Title
81333
    1CHL1    C3    1   0.026   5.483  10.217 -0.5703 -0.7300  0.8729
    1CHL1    H3    2   0.012   5.575  10.157  0.3016 -1.6276 -0.7360
    1CHL1    O3    3   0.016   5.511  10.352 -0.0064  0.1162 -0.3421
    1CHL1   H3'    4   0.015   5.424  10.393  0.7013  0.3997  0.2966
    1CHL1    C4    5  -0.084   5.391  10.163  0.3692  0.1289 -0.7948
    1CHL1   H4A    6  -0.079   5.292  10.214 -0.4639  0.0763 -0.8080
    1CHL1   H4B    7  -0.188   5.425  10.178  0.3820 -0.7595  1.5726
    1CHL1    C5    8  -0.060   5.358  10.017 -0.1534 -0.9418  0.7407
    1CHL1    C6    9  -0.154   5.394   9.927  0.7032 -0.3187  0.1294
    1CHL1    H6   10  -0.253   5.425   9.963  1.0525  1.5120 -0.4778
    1CHL1    C7   11  -0.146   5.384   9.777 -0.6481  0.0614  0.4853
    1CHL1   H7A   12  -0.232   5.339   9.722  0.6127 -0.5392 -1.0111
    1CHL1   H7B   13  -0.150   5.482   9.724  0.6200 -0.0897  0.0983
    1CHL1    C8   14  -0.016   5.315   9.730  0.5958 -0.4872  0.1523
    1CHL1    H8   15  -0.041   5.206   9.729 -0.8167 -0.1684 -2.1758
    1CHL1   C14   16   0.017   5.352   9.583  0.1742 -0.5786 -0.2200
    1CHL1   H14   17   0.041   5.461   9.582  0.2936 -0.5804  1.0309
    1CHL1   C15   18  -0.086   5.331   9.479  0.1104 -0.1951  0.8625
    1CHL1  H15A   19  -0.149   5.240   9.492  0.9603 -0.8665  0.3152
    1CHL1  H15B   20  -0.151   5.421   9.470  0.4110 -0.0970 -0.5403
    1CHL1   C16   21  -0.021   5.326   9.342 -0.1287 -0.3292  0.1401
    1CHL1  H16A   22  -0.040   5.231   9.287 -0.0702 -1.1952  1.5951
    1CHL1  H16B   23  -0.054   5.414   9.283 -0.1562  0.1893  0.9325
    1CHL1   C17   24   0.134   5.331   9.376  0.4906 -0.1674 -0.4352
    1CHL1   H17   25   0.154   5.440   9.388  2.6436 -0.5284 -0.4722
    1CHL1   C13   26   0.145   5.286   9.525 -0.5440  0.3826  0.2871
    1CHL1   C18   27   0.130   5.128   9.528 -0.4351 -0.3196 -0.7158
    1CHL1  H18A   28   0.234   5.092   9.511  0.5913  1.6833  1.0688
    1CHL1  H18B   29   0.103   5.085   9.627 -2.7628  0.7957 -0.8416
    1CHL1  H18C   30   0.060   5.092   9.450  0.4626  1.8981 -2.5972
    1CHL1   C12   31   0.271   5.318   9.616  0.4635  0.4283  0.3931
    1CHL1  H12A   32   0.363   5.261   9.592  2.4289  2.7926  1.9528
    1CHL1  H12B   33   0.304   5.424   9.617  0.2157  0.5008  1.8999
    1CHL1   C11   34   0.245   5.290   9.765  0.8403 -0.6100  0.0179
    1CHL1  H11A   35   0.253   5.180   9.778 -2.2486 -0.8653  0.2772
    1CHL1  H11B   36   0.324   5.337   9.828 -0.3549 -0.4128  1.3994
    1CHL1    C9   37   0.111   5.343   9.821  0.3165  0.0376  0.7813
    1CHL1    H9   38   0.111   5.454   9.808 -1.8403 -0.1898 -1.5550
    1CHL1   C10   39   0.088   5.318   9.971 -0.0394  0.1740  0.5733
    1CHL1   C19   40   0.099   5.167   9.995  0.7100 -0.7196 -0.1211
    1CHL1  H19A   41   0.080   5.141  10.101  2.1037 -1.9927 -0.1675
    1CHL1  H19B   42   0.021   5.114   9.936  2.7991 -3.4450 -0.5135
    1CHL1  H19C   43   0.202   5.128   9.981  0.1688 -0.9964 -3.7354
    1CHL1    C1   44   0.192   5.396  10.052  0.1592 -0.0442 -0.0386
    1CHL1   H1A   45   0.285   5.338  10.039 -0.9575 -1.3780 -2.4933
    1CHL1   H1B   46   0.212   5.495  10.006  1.0748  1.0158  2.5335
    1CHL1    C2   47   0.165   5.426  10.198 -0.7227  0.5446 -0.3369
    1CHL1   H2A   48   0.240   5.489  10.252  1.0912 -0.0170 -2.1399
    1CHL1   H2B   49   0.162   5.332  10.257  0.8271  1.1388  0.7353
    1CHL1   C20   50   0.228   5.282   9.272 -0.2218 -0.6833 -0.3102
    1CHL1   H20   51   0.238   5.172   9.286  0.3212 -1.1043 -3.7521
    1CHL1   C21   52   0.372   5.339   9.293 -0.0771 -0.0042  0.4544
    1CHL1  H21A   53   0.408   5.324   9.398 -2.0698 -0.8378  1.0403
    1CHL1  H21B   54   0.369   5.447   9.269  0.3949 -0.3150 -1.0009
    1CHL1  H21C   55   0.443   5.290   9.223 -2.4761 -1.5525 -0.9549
    1CHL1   C22   56   0.180   5.309   9.127  0.6997 -0.0683 -0.0675
    1CHL1  H22A   57   0.075   5.284   9.103  1.1803 -0.1336 -2.1866
    1CHL1  H22B   58   0.189   5.420   9.115  1.4880 -0.2620 -1.3705
    1CHL1   C23   59   0.264   5.235   9.022  0.2541 -0.2949  0.1609
    1CHL1  H23A   60   0.371   5.249   9.049  0.4887 -0.6466 -0.5895
    1CHL1  H23B   61   0.232   5.130   9.038  0.9535 -0.1027  3.1100
    1CHL1   C24   62   0.246   5.276   8.879 -0.0334 -0.4791 -0.0065
    1CHL1  H24A   63   0.294   5.199   8.816  3.1680  1.6386 -0.2768
    1CHL1  H24B   64   0.141   5.281   8.843  0.5136 -1.2460 -1.7892
    1CHL1   C25   65   0.306   5.411   8.835  0.0129  0.4210 -0.4101
    1CHL1   H25   66   0.269   5.482   8.913 -0.4435  0.6331 -0.8195
    1CHL1   C26   67   0.462   5.406   8.829 -0.0108 -0.7720 -0.0772
    1CHL1  H26A   68   0.482   5.340   8.741 -0.3172 -1.7802  0.6025
    1CHL1  H26B   69   0.514   5.503   8.817  0.5061 -0.7615  2.1620
    1CHL1  H26C   70   0.506   5.360   8.919  1.1586  0.3926 -0.0468
    1CHL1   C27   71   0.243   5.437   8.703  0.6912  0.0582 -0.5261
    1CHL1  H27A   72   0.268   5.354   8.633  0.4630 -1.0355  0.6716
    1CHL1  H27B   73   0.132   5.437   8.702  0.6818  0.2693  0.7999
    1CHL1  H27C   74   0.271   5.534   8.657 -0.7968 -1.0161 -3.9153
    2CHL1    C3   75   1.421   3.128  10.014 -0.7295  0.3224 -0.0911
    2CHL1    H3   76   1.495   3.051   9.985 -0.4329  1.0830 -1.3758
    2CHL1    O3   77   1.472   3.157  10.141  0.2411  0.4935  0.0524
    2CHL1   H3'   78   1.449   3.079  10.193 -1.3056  0.6231 -0.4230
    2CHL1    C4   79   1.425   3.249   9.927  0.0391  0.2301 -0.0333
    2CHL1   H4A   80   1.354   3.328   9.962  0.1298 -0.0677  0.8415
    2CHL1   H4B   81   1.523   3.302   9.936  0.2711  0.3326 -2.7466
    2CHL1    C5   82   1.385   3.204   9.788 -0.6343  0.4890 -0.5147
    2CHL1    C6   83   1.473   3.215   9.684  0.0279 -0.1802  0.3786
    2CHL1    H6   84   1.571   3.262   9.703 -0.2684 -0.4018  2.6107
    2CHL1    C7   85   1.446   3.164   9.545  0.6307 -0.6800  0.2264
    2CHL1   H7A   86   1.468   3.251   9.480 -0.4902 -0.0060  0.7316
    2CHL1   H7B   87   1.514   3.079   9.523 -0.2197 -0.8086 -2.0059
    2CHL1    C8   88   1.292   3.147   9.521 -0.7696  0.6744  0.2496
    2CHL1    H8   89   1.244   3.247   9.516  0.5627  1.4065  1.5661
    2CHL1   C14   90   1.286   3.074   9.391 -0.4930 -0.2428 -0.5027
    2CHL1   H14   91   1.345   2.982   9.410 -2.3261 -1.6141 -1.3781
    2CHL1   C15   92   1.362   3.133   9.266 -0.2029 -0.4149  0.8913
    2CHL1  H15A   93   1.342   3.241   9.255 -1.3410 -0.8278 -1.3623
    2CHL1  H15B   94   1.472   3.125   9.259 -0.1773  0.3290  0.4583
    2CHL1   C16   95   1.290   3.055   9.150 -0.2556 -0.6078  0.1605
    2CHL1  H16A   96   1.264   3.137   9.081 -2.1835 -0.7297  0.7252
    2CHL1  H16B   97   1.350   2.979   9.094  1.0074 -1.3715  2.4771
    2CHL1   C17   98   1.176   2.966   9.211 -0.4496 -0.5174  0.1139
    2CHL1   H17   99   1.219   2.864   9.223  1.0258  0.1363  0.4545
    2CHL1   C13  100   1.151   3.033   9.343 -0.4657 -0.5497 -0.5793
    2CHL1   C18  101   1.068   3.169   9.321 -0.1293 -0.7931  0.1688
    2CHL1  H18A  102   1.074   3.240   9.407 -1.3500  0.5421 -0.8377
    2CHL1  H18B  103   1.092   3.221   9.226 -0.1357  1.1470  1.2043
    2CHL1  H18C  104   0.961   3.143   9.310  0.1699 -1.5728 -1.0602
    2CHL1   C12  105   1.090   2.945   9.458 -0.2982  0.0227 -0.3231
    2CHL1  H12A  106   0.984   2.929   9.429 -0.0275 -2.5773  0.0724
    2CHL1  H12B  107   1.139   2.846   9.448 -1.4358 -0.4442 -1.4351
    2CHL1   C11  108   1.094   3.009   9.599  0.2276  0.0488 -0.0591
    2CHL1  H11A  109   1.007   3.077   9.613 -0.3306 -0.3288 -1.6396
    2CHL1  H11B  110   1.065   2.935   9.676  0.6533  0.7353  0.7683
    2CHL1    C9  111   1.232   3.069   9.634  0.5195 -0.3975  0.3384
    2CHL1    H9  112   1.294   2.976   9.643 -1.3623 -1.8882 -1.7528
    2CHL1   C10  113   1.252   3.134   9.774 -0.5473  0.7627 -0.0104
    2CHL1   C19  114   1.137   3.238   9.802  0.3045  0.0358  0.0632
    2CHL1  H19A  115   1.163   3.293   9.896 -0.0091  0.3435 -0.0283
    2CHL1  H19B  116   1.117   3.318   9.727  1.1053 -0.5799 -0.8085
    2CHL1  H19C  117   1.039   3.191   9.822 -0.3823  0.4831 -2.1856
    2CHL1    C1  118   1.250   3.019   9.882  0.5971 -0.1742 -0.1460
    2CHL1   H1A  119   1.147   2.977   9.880  0.3542  0.3877  0.3310
    2CHL1   H1B  120   1.313   2.934   9.847  1.5634  0.8862 -0.9982
    2CHL1    C2  121   1.283   3.064  10.023  0.2027 -0.2076 -0.0313
    2CHL1   H2A  122   1.288   2.979  10.095 -0.9288 -1.2683 -1.1803
    2CHL1   H2B  123   1.210   3.131  10.073  0.4346 -0.9093  1.2859
    2CHL1   C20  124   1.050   2.942   9.118 -0.4943  0.2766  0.5832
    2CHL1   H20  125   0.959   2.937   9.183 -1.0749 -0.3844 -0.2799
    2CHL1   C21  126   1.068   2.799   9.055 -0.0621 -0.7082 -0.5095
    2CHL1  H21A  127   1.152   2.789   8.982  0.4253 -0.3388  0.0007
    2CHL1  H21B  128   0.975   2.778   8.997  1.6974 -2.2441 -2.8861
    2CHL1  H21C  129   1.085   2.722   9.133 -0.2258 -1.1791 -0.9306
    2CHL1   C22  130   1.031   3.049   9.011  0.4250 -0.0721  0.8433
    2CHL1  H22A  131   1.029   3.154   9.049 -1.5063 -0.2849  1.3795
    2CHL1  H22B  132   1.117   3.024   8.945 -0.8595  2.2972 -1.8379
    2CHL1   C23  133   0.905   3.029   8.926 -0.9093  0.1706  1.2517
    2CHL1  H23A  134   0.918   2.930   8.875  4.3784  0.2773  2.0306
    2CHL1  H23B  135   0.815   3.030   8.991 -1.8595 -0.9529 -0.0093
    2CHL1   C24  136   0.894   3.136   8.821 -0.6266 -0.3424 -0.0062
    2CHL1  H24A  137   0.926   3.236   8.857 -0.0294 -0.7023  0.4692
    2CHL1  H24B  138   0.963   3.099   8.741 -0.0440  1.7375 -0.5069
    2CHL1   C25  139   0.759   3.150   8.761  0.3665  0.1189  0.3412
    2CHL1   H25  140   0.692   3.199   8.835  2.1783 -0.0330  2.1149
    2CHL1   C26  141   0.762   3.247   8.633 -0.6318 -0.1229 -0.6568
    2CHL1  H26A  142   0.837   3.225   8.554  2.3447  3.5892  0.9689
    2CHL1  H26B  143   0.664   3.250   8.581 -1.4969 -0.0537  0.9390
    2CHL1  H26C  144   0.783   3.344   8.683  0.2299 -1.1590  1.0660
    2CHL1   C27  145   0.684   3.019   8.717 -0.4987 -0.2968 -0.6481
    2CHL1  H27A  146   0.747   2.942   8.667  0.3266 -1.5084  2.1868
    2CHL1  H27B  147   0.657   2.968   8.811  0.2484 -0.5512 -0.5677
    2CHL1  H27C  148   0.590   3.044   8.663 -2.2016  1.9970  3.1506
    3CHL1    C3  149   1.786   2.949  10.275 -0.3548 -0.1690 -0.3256
    3CHL1    H3  150   1.688   2.999  10.258 -0.6900 -1.7724 -3.3620
    3CHL1    O3  151   1.800   2.919  10.416 -0.4826  0.5408 -0.3685
    3CHL1   H3'  152   1.870   2.853  10.418 -1.3393 -0.4574 -1.8182
    3CHL1    C4  153   1.783   2.811  10.205  0.2667 -0.2101 -0.1911
    3CHL1   H4A  154   1.872   2.749  10.231 -0.8255 -2.3150 -1.3818
    3CHL1   H4B  155   1.695   2.762  10.251 -1.2437  2.9625  0.3908
    3CHL1    C5  156   1.772   2.830  10.055  0.2221  0.2040  0.6979
    3CHL1    C6  157   1.677   2.764   9.983 -0.5848  0.3838 -0.6108
    3CHL1    H6  158   1.610   2.695  10.037  1.8013 -1.2801  0.3536
    3CHL1    C7  159   1.667   2.763   9.829 -0.2875 -0.0641  0.1105
    3CHL1   H7A  160   1.643   2.663   9.789 -0.8533  0.0474  0.1572
    3CHL1   H7B  161   1.578   2.825   9.803 -0.0533  0.3472  0.2789
    3CHL1    C8  162   1.792   2.834   9.767 -0.2276 -0.8083 -0.6298
    3CHL1    H8  163   1.871   2.756   9.767 -1.3748 -2.0185  1.3971
    3CHL1   C14  164   1.759   2.886   9.624  0.0811  0.3366  0.8774
    3CHL1   H14  165   1.688   2.971   9.633 -2.2065 -1.3702 -0.3690
    3CHL1   C15  166   1.686   2.787   9.529 -0.1209  0.1190 -0.1298
    3CHL1  H15A  167   1.742   2.691   9.527  0.0884  0.2437 -0.2556
    3CHL1  H15B  168   1.579   2.762   9.549 -0.3892  2.6888  1.9302
    3CHL1   C16  169   1.703   2.856   9.392  0.2778 -0.4347 -0.3414
    3CHL1  H16A  170   1.715   2.778   9.314 -0.3634 -1.4013  0.5147
    3CHL1  H16B  171   1.613   2.914   9.362  1.6835  2.1316  0.3025
    3CHL1   C17  172   1.812   2.966   9.409  0.1976  0.5792 -0.4782
    3CHL1   H17  173   1.766   3.065   9.427 -0.6512 -0.1016  1.3052
    3CHL1   C13  174   1.876   2.942   9.549 -0.3501  0.4588  0.1280
    3CHL1   C18  175   1.991   2.831   9.536  0.2416  0.5956  0.4253
    3CHL1  H18A  176   2.053   2.822   9.628  0.7521  0.3644  0.0624
    3CHL1  H18B  177   1.957   2.730   9.507 -1.1169  1.9433 -2.9391
    3CHL1  H18C  178   2.062   2.865   9.458  1.3102 -2.0767  0.1752
    3CHL1   C12  179   1.929   3.067   9.624  0.4991 -0.0443  0.4789
    3CHL1  H12A  180   2.031   3.089   9.586 -0.1183  0.9641 -0.6012
    3CHL1  H12B  181   1.856   3.150   9.614  1.0840  0.4007 -0.1446
    3CHL1   C11  182   1.952   3.034   9.774 -0.4017  0.0723 -0.3020
    3CHL1  H11A  183   2.043   2.971   9.765 -1.6339 -1.9527  1.1713
    3CHL1  H11B  184   2.000   3.121   9.824  1.0886 -2.4422  2.7618
    3CHL1    C9  185   1.842   2.958   9.843  0.0657  0.3193 -0.5328
    3CHL1    H9  186   1.753   3.025   9.849 -0.4355 -0.4201  0.4178
    3CHL1   C10  187   1.871   2.927   9.988 -0.9071  0.1980  0.3162
    3CHL1   C19  188   2.007   2.853   9.994 -0.0623  0.8879 -0.0106
    3CHL1  H19A  189   2.039   2.844  10.100 -0.4036  2.6643  0.2479
    3CHL1  H19B  190   2.021   2.761   9.932  0.9463  2.3662 -2.0385
    3CHL1  H19C  191   2.087   2.926   9.969 -0.0471  1.5047  1.8020
    3CHL1    C1  192   1.883   3.059  10.073  0.0652  0.2714  0.3650
    3CHL1   H1A  193   1.957   3.132  10.036 -0.5713  0.1384 -1.2199
    3CHL1   H1B  194   1.785   3.111  10.062  0.2163  0.6000  0.5733
    3CHL1    C2  195   1.895   3.040  10.224 -0.1353  0.0348 -0.0014
    3CHL1   H2A  196   1.898   3.141  10.271  1.1778  0.0914 -0.1811
    3CHL1   H2B  197   1.996   2.995  10.233 -0.9330 -1.6432  0.6700
    3CHL1   C20  198   1.897   2.982   9.287 -0.2430 -0.5580  0.1656
    3CHL1   H20  199   1.968   2.900   9.264 -0.5998 -0.2198 -2.2512
    3CHL1   C21  200   1.972   3.116   9.308  0.1661  0.2337 -0.0011
    3CHL1  H21A  201   2.058   3.110   9.379  0.1170 -1.0289 -0.0291
    3CHL1  H21B  202   1.897   3.192   9.339  0.0420 -0.5128  1.5717
    3CHL1  H21C  203   2.021   3.139   9.211  0.6116  1.8762  0.5994
    3CHL1   C22  204   1.809   2.992   9.160 -0.4159  0.5529  0.3754
    3CHL1  H22A  205   1.733   2.910   9.160 -1.3348  1.3448 -2.2944
    3CHL1  H22B  206   1.750   3.086   9.158  0.3323  1.0015 -1.1279
    3CHL1   C23  207   1.893   2.978   9.029  0.1573  0.0442 -0.1982
    3CHL1  H23A  208   1.969   3.059   9.015 -0.0148  0.2993  0.3470
    3CHL1  H23B  209   1.957   2.887   9.030  1.5522  0.9967 -0.7514
    3CHL1   C24  210   1.822   2.981   8.896 -0.7757  0.1489 -0.3803
    3CHL1  H24A  211   1.727   2.923   8.898 -0.0093 -1.2504 -2.3750
    3CHL1  H24B  212   1.783   3.081   8.868 -2.0371  0.0205  0.8567
    3CHL1   C25  213   1.903   2.928   8.772 -0.0287  0.7830 -0.6444
    3CHL1   H25  214   1.995   2.989   8.785  1.7365 -1.9872  0.3828
    3CHL1   C26  215   1.941   2.779   8.798 -0.1519 -0.2293  0.0527
    3CHL1  H26A  216   2.034   2.774   8.858  0.1470 -1.1117 -0.4746
    3CHL1  H26B  217   1.867   2.726   8.861  0.2748 -0.7326  0.1396
    3CHL1  H26C  218   1.961   2.720   8.706  0.6766  0.7631 -0.4173
    3CHL1   C27  219   1.836   2.946   8.639 -0.3339  0.6495  0.3305
    3CHL1  H27A  220   1.736   2.899   8.624  0.1850 -0.2744 -0.2284
    3CHL1  H27B  221   1.821   3.051   8.606  1.9746  1.2350  1.0871
    3CHL1  H27C  222   1.909   2.900   8.570  1.3607  1.4919  1.5295
    4CHL1    C3  223   1.264   5.301  10.393  0.8477 -1.0113 -0.5415
    4CHL1    H3  224   1.172   5.361  10.410 -1.5711 -4.1233 -2.0530
    4CHL1    O3  225   1.335   5.298  10.516  0.0730  0.0866 -0.2334
    4CHL1   H3'  226   1.402   5.230  10.505  2.3349  1.8009  2.4882
    4CHL1    C4  227   1.239   5.157  10.343  0.0376  0.6481 -0.0210
    4CHL1   H4A  228   1.334   5.102  10.364  0.5989  0.8960 -1.8301
    4CHL1   H4B  229   1.164   5.118  10.415 -0.1907  1.3125  0.1065
    4CHL1    C5  230   1.193   5.151  10.198  0.8558 -0.1038 -0.4584
    4CHL1    C6  231   1.077   5.090  10.149 -0.4305 -0.3721 -0.0561
    4CHL1    H6  232   1.017   5.033  10.222 -1.1854 -1.6409 -1.6350
    4CHL1    C7  233   1.039   5.069  10.000 -0.5987 -0.1167 -0.1342
    4CHL1   H7A  234   1.020   4.962   9.975 -1.3946 -0.0999  0.3840
    4CHL1   H7B  235   0.946   5.120   9.969 -0.5454 -1.2808 -2.2925
    4CHL1    C8  236   1.153   5.106   9.908 -1.0678  0.6373  0.5319
    4CHL1    H8  237   1.228   5.026   9.922 -1.4290  0.2618  0.3348
    4CHL1   C14  238   1.109   5.126   9.763  0.5405  0.0900 -0.7518
    4CHL1   H14  239   1.041   5.213   9.758  1.0254  0.6404  1.8256
    4CHL1   C15  240   1.027   5.005   9.710  0.0526  0.3647 -0.5254
    4CHL1  H15A  241   1.070   4.910   9.747 -2.1002 -0.0639  1.0005
    4CHL1  H15B  242   0.924   5.009   9.752  0.7441 -2.4527  1.6094
    4CHL1   C16  243   1.029   5.024   9.556  0.7434  0.6127  0.0850
    4CHL1  H16A  244   1.061   4.929   9.509 -0.8973  0.2710 -0.3861
    4CHL1  H16B  245   0.932   5.050   9.508  0.7133  0.4160  0.0381
    4CHL1   C17  246   1.130   5.136   9.530 -0.2089  0.2154 -0.5382
    4CHL1   H17  247   1.080   5.235   9.528  1.5073  1.1126 -0.0476
    4CHL1   C13  248   1.214   5.150   9.664  0.7671 -0.4126 -0.6526
    4CHL1   C18  249   1.312   5.033   9.661 -0.2560 -0.2517  0.2070
    4CHL1  H18A  250   1.387   5.025   9.742  0.5292 -1.1024 -0.5973
    4CHL1  H18B  251   1.269   4.931   9.646 -2.0311  0.4211  0.5852
    4CHL1  H18C  252   1.375   5.052   9.572 -0.5625  0.5352  0.1533
    4CHL1   C12  253   1.268   5.292   9.692  0.3532  0.2380 -0.0690
    4CHL1  H12A  254   1.357   5.315   9.630  1.0346 -0.3068  0.6985
    4CHL1  H12B  255   1.194   5.373   9.675 -0.6343 -0.6880 -0.2594
    4CHL1   C11  256   1.307   5.306   9.841 -0.0733 -0.2720 -0.3474
    4CHL1  H11A  257   1.399   5.243   9.852  0.8615  0.5715 -2.9121
    4CHL1  H11B  258   1.339   5.410   9.862 -0.3817 -0.2426 -0.0127
    4CHL1    C9  259   1.211   5.239   9.952  0.0317 -0.0340 -0.2299
    4CHL1    H9  260   1.124   5.307   9.961 -1.5725 -2.4531  4.2868
    4CHL1   C10  261   1.277   5.234  10.095 -0.1376 -0.1664 -0.4286
    4CHL1   C19  262   1.401   5.143  10.086 -0.5653 -0.4142  0.1557
    4CHL1  H19A  263   1.489   5.210  10.078  0.5961 -1.5351  2.8496
    4CHL1  H19B  264   1.421   5.066  10.164  0.3909 -0.4175 -0.0918
    4CHL1  H19C  265   1.400   5.073   9.999  1.1739 -1.7709  1.1962
    4CHL1    C1  266   1.304   5.379  10.151  0.1833 -0.4173  0.2033
    4CHL1   H1A  267   1.375   5.429  10.082 -3.0927  3.6085 -0.4867
    4CHL1   H1B  268   1.211   5.440  10.155  1.0330  1.0746 -1.6487
    4CHL1    C2  269   1.363   5.371  10.291  0.0100 -0.2348 -0.1957
    4CHL1   H2A  270   1.386   5.473  10.329 -0.1989 -0.8171  1.5330
    4CHL1   H2B  271   1.458   5.315  10.285  0.2710  0.2840 -0.9280
    4CHL1   C20  272   1.192   5.114   9.391  0.1315 -0.3722  0.3241
    4CHL1   H20  273   1.226   5.009   9.392  1.7735  0.1439  0.4586
    4CHL1   C21  274   1.312   5.209   9.370  0.4567 -0.2171 -0.1770
    4CHL1  H21A  275   1.353   5.187   9.269  2.1180  1.1786  0.1646
    4CHL1  H21B  276   1.392   5.185   9.443  0.8328 -0.0784 -0.5353
    4CHL1  H21C  277   1.287   5.317   9.361  3.0735  0.3767 -0.6117
    4CHL1   C22  278   1.095   5.118   9.269  0.4326 -0.4456 -0.0941
    4CHL1  H22A  279   0.991   5.087   9.294 -0.6800  4.2575  1.6291
    4CHL1  H22B  280   1.082   5.223   9.233  0.6361 -1.0844 -2.1076
    4CHL1   C23  281   1.150   5.026   9.152  1.1070 -0.0674  0.3597
    4CHL1  H23A  282   1.259   5.047   9.147  1.2462 -0.5229  1.2809
    4CHL1  H23B  283   1.153   4.920   9.185  0.8954  0.0393  0.7345
    4CHL1   C24  284   1.081   5.055   9.016  0.0064 -0.1645 -0.1196
    4CHL1  H24A  285   0.971   5.048   9.032  0.1643  0.9773  1.5827
    4CHL1  H24B  286   1.077   5.162   8.989  0.7806 -0.1044 -0.0215
    4CHL1   C25  287   1.114   4.960   8.902 -0.5500  0.1822  0.9375
    4CHL1   H25  288   1.061   4.864   8.923 -0.9945  0.0124 -0.8908
    4CHL1   C26  289   1.051   5.019   8.773 -0.1683 -0.3418  0.2717
    4CHL1  H26A  290   1.073   4.953   8.686 -0.8925  0.8802 -0.8601
    4CHL1  H26B  291   0.940   5.028   8.773 -0.3254 -2.0373 -0.2653
    4CHL1  H26C  292   1.093   5.120   8.749 -0.9773  0.2684  1.3978
    4CHL1   C27  293   1.258   4.912   8.872  0.0221 -0.4992 -0.1321
    4CHL1  H27A  294   1.298   4.859   8.961  0.8100 -1.2912 -0.9483
    4CHL1  H27B  295   1.242   4.846   8.784 -2.3266 -0.6631  0.3870
    4CHL1  H27C  296   1.326   4.998   8.852 -1.2261  0.4382 -0.3780
    5CHL1    C3  297   2.340   2.991  10.155  0.4799 -0.2709 -0.7733
    5CHL1    H3  298   2.237   2.961  10.124  0.8450 -3.4709  0.8799
    5CHL1    O3  299   2.355   3.004  10.295  0.2385 -0.6993  0.9074
    5CHL1   H3'  300   2.322   3.091  10.317  0.8752 -0.7556  2.1575
    5CHL1    C4  301   2.437   2.892  10.096 -0.3301  0.1737  0.3752
    5CHL1   H4A  302   2.541   2.922  10.121  0.4124 -0.1822 -2.1336
    5CHL1   H4B  303   2.434   2.791  10.142  1.5779 -0.2964 -0.4527
    5CHL1    C5  304   2.431   2.889   9.943 -0.4490 -0.1583 -0.7399
    5CHL1    C6  305   2.408   2.771   9.892  0.4157 -0.0269 -0.2402
    5CHL1    H6  306   2.412   2.682   9.957  0.8137  2.4444  3.2894
    5CHL1    C7  307   2.405   2.745   9.741 -0.1185  0.2324 -0.0861
    5CHL1   H7A  308   2.469   2.662   9.706  1.3728  1.4858 -0.3864
    5CHL1   H7B  309   2.303   2.717   9.708 -0.4021 -0.2106  1.1492
    5CHL1    C8  310   2.453   2.863   9.663 -0.6238 -0.7714 -0.9707
    5CHL1    H8  311   2.564   2.857   9.665 -0.3211  3.4347  1.5921
    5CHL1   C14  312   2.394   2.861   9.527  0.5116 -0.4117 -0.3912
    5CHL1   H14  313   2.285   2.876   9.545  0.3798 -1.1209 -0.5776
    5CHL1   C15  314   2.397   2.725   9.448  0.5450  0.7443 -0.4342
    5CHL1  H15A  315   2.497   2.677   9.452 -0.0399 -0.4870 -0.1034
    5CHL1  H15B  316   2.313   2.659   9.479  0.8172  0.6194  0.0436
    5CHL1   C16  317   2.380   2.771   9.300 -0.9081 -0.4965 -0.0971
    5CHL1  H16A  318   2.467   2.753   9.234 -0.5699  1.0895 -0.0923
    5CHL1  H16B  319   2.291   2.732   9.245  0.5452 -1.5687 -1.7532
    5CHL1   C17  320   2.375   2.931   9.302 -0.7369 -0.3694 -0.0074
    5CHL1   H17  321   2.266   2.946   9.319 -1.3555 -0.1088 -3.8539
    5CHL1   C13  322   2.447   2.966   9.433 -0.8057 -0.8187  0.3234
    5CHL1   C18  323   2.606   2.939   9.419  0.8872  0.2926 -1.1635
    5CHL1  H18A  324   2.661   2.990   9.501 -1.5860 -1.4423  1.6888
    5CHL1  H18B  325   2.629   2.830   9.413  0.3194  0.1517 -0.8450
    5CHL1  H18C  326   2.642   2.980   9.322  0.2962  1.4528 -0.9050
    5CHL1   C12  327   2.421   3.110   9.495 -0.2441  0.0073 -0.0673
    5CHL1  H12A  328   2.478   3.178   9.429 -0.5104  0.2914 -0.0042
    5CHL1  H12B  329   2.312   3.132   9.499 -0.7213 -2.4083  1.5771
    5CHL1   C11  330   2.468   3.114   9.638  0.3698  0.2684 -0.0443
    5CHL1  H11A  331   2.579   3.114   9.647  0.2333 -1.1183  1.9772
    5CHL1  H11B  332   2.442   3.206   9.694  2.5827  0.3188  0.9883
    5CHL1    C9  333   2.406   3.002   9.729 -0.9024  0.5181 -0.4345
    5CHL1    H9  334   2.295   3.000   9.721 -1.1200 -1.8297  2.2812
    5CHL1   C10  335   2.442   3.023   9.877 -0.5890 -0.7738  0.3586
    5CHL1   C19  336   2.594   3.071   9.896 -0.1023  0.4050  0.7768
    5CHL1  H19A  337   2.656   2.989   9.853 -1.8258  0.4382 -1.9033
    5CHL1  H19B  338   2.615   3.164   9.839 -0.2169  1.1733  1.9788
    5CHL1  H19C  339   2.627   3.084  10.001  1.2362 -0.1417  0.4384
    5CHL1    C1  340   2.348   3.120   9.934 -0.4454  0.2673 -0.9649
    5CHL1   H1A  341   2.376   3.224   9.909 -1.8024  0.8370 -0.1811
    5CHL1   H1B  342   2.246   3.104   9.892 -0.5837  0.2136 -0.6091
    5CHL1    C2  343   2.355   3.127  10.084 -0.2242  0.4353  0.0077
    5CHL1   H2A  344   2.288   3.207  10.122  2.4921  2.3854  0.8782
    5CHL1   H2B  345   2.455   3.163  10.116 -0.3024 -0.1311  0.9269
    5CHL1   C20  346   2.411   3.002   9.173  0.7344 -0.0682 -0.0169
    5CHL1   H20  347   2.519   2.998   9.145  0.9579 -1.9398  1.0538
    5CHL1   C21  348   2.364   3.151   9.194  0.1993 -0.2896  0.8225
    5CHL1  H21A  349   2.281   3.158   9.268 -2.7443  1.5335 -2.5118
    5CHL1  H21B  350   2.333   3.186   9.094  2.4235  0.0468  0.2314
    5CHL1  H21C  351   2.438   3.227   9.228  1.1252 -0.1391 -1.4754
    5CHL1   C22  352   2.345   2.931   9.054  0.3354 -0.3455 -1.0776
    5CHL1  H22A  353   2.384   2.827   9.058  0.6458 -0.1853  0.6539
    5CHL1  H22B  354   2.235   2.938   9.055  0.3649  0.1824  0.7109
    5CHL1   C23  355   2.386   2.998   8.914  0.0630 -0.6345  0.0227
    5CHL1  H23A  356   2.336   3.097   8.908  2.3647  0.4812 -1.4098
    5CHL1  H23B  357   2.496   3.008   8.905  0.2233 -1.2316  1.2133
    5CHL1   C24  358   2.342   2.913   8.788  0.1308 -0.1665 -0.9032
    5CHL1  H24A  359   2.403   2.821   8.801 -1.8006 -1.3722 -0.1601
    5CHL1  H24B  360   2.235   2.886   8.774  0.9613 -2.6020 -2.8369
    5CHL1   C25  361   2.371   2.996   8.662 -0.3246 -0.2017 -0.1046
    5CHL1   H25  362   2.471   3.041   8.681 -0.0620 -0.2604 -1.3339
    5CHL1   C26  363   2.380   2.893   8.546  0.0015  0.3454 -0.5353
    5CHL1  H26A  364   2.384   2.943   8.447  1.4319 -0.0557 -0.6904
    5CHL1  H26B  365   2.470   2.828   8.558  1.1741  2.0102 -0.0713
    5CHL1  H26C  366   2.291   2.827   8.547  0.1149  0.1969  0.4897
    5CHL1   C27  367   2.260   3.091   8.638  0.1456  0.1889 -0.5235
    5CHL1  H27A  368   2.252   3.149   8.732  2.5472  1.6577 -1.1795
    5CHL1  H27B  369   2.285   3.164   8.558  0.7385 -1.2889 -1.7073
    5CHL1  H27C  370   2.159   3.048   8.623  0.1873  0.5147 -1.7390
    6CHL1    C3  371   6.663   0.056  10.204 -0.0897 -0.4349 -0.1037
    6CHL1    H3  372   6.762   0.007  10.192  0.2723 -0.4279  2.5917
    6CHL1    O3  373   6.632   0.083  10.343  0.4962 -0.0296  0.4990
    6CHL1   H3'  374   6.615  -0.002  10.384 -0.2200  0.1890  0.6737
    6CHL1    C4  375   6.654   0.179  10.107 -0.1007  0.7537  0.0794
    6CHL1   H4A  376   6.557   0.226  10.132 -0.8240 -1.5638  1.8640
    6CHL1   H4B  377   6.737   0.251  10.121  1.2297 -0.2173 -2.5436
    6CHL1    C5  378   6.645   0.139   9.957 -0.4258  0.9139 -0.1709
    6CHL1    C6  379   6.731   0.192   9.869  0.3099 -0.0997  0.2862
    6CHL1    H6  380   6.807   0.263   9.905 -2.3529  2.0627  1.8641
    6CHL1    C7  381   6.706   0.181   9.721 -0.6392 -0.1015 -0.2069
    6CHL1   H7A  382   6.685   0.281   9.677 -2.4519  0.3007  1.4809
    6CHL1   H7B  383   6.799   0.143   9.673  0.2046  0.1966  1.1648
    6CHL1    C8  384   6.588   0.088   9.677 -0.0122  0.0122  0.0538
    6CHL1    H8  385   6.493   0.147   9.672  0.8231  1.2952 -1.1486
    6CHL1   C14  386   6.618   0.029   9.546 -0.4930  0.9759 -0.4567
    6CHL1   H14  387   6.703  -0.043   9.550 -1.7606 -0.5411 -0.1840
    6CHL1   C15  388   6.667   0.134   9.437  0.6594 -0.4222  0.1662
    6CHL1  H15A  389   6.606   0.227   9.448  1.7258  0.3093  0.0421
    6CHL1  H15B  390   6.776   0.142   9.455  0.5692 -0.4745  0.7501
    6CHL1   C16  391   6.625   0.069   9.311  0.3209  0.6114  0.1764
    6CHL1  H16A  392   6.542   0.122   9.259  1.2262 -0.0123 -1.9376
    6CHL1  H16B  393   6.707   0.050   9.239 -0.9733 -1.0646 -0.8868
    6CHL1   C17  394   6.572  -0.070   9.342  0.1695 -0.0376 -0.1490
    6CHL1   H17  395   6.649  -0.151   9.344 -0.5436 -0.9360 -4.3527
    6CHL1   C13  396   6.507  -0.056   9.479  0.3719  0.2316 -0.0204
    6CHL1   C18  397   6.383   0.041   9.457  0.4418 -0.0336 -0.3798
    6CHL1  H18A  398   6.402   0.148   9.433  0.2412 -0.2141 -1.3763
    6CHL1  H18B  399   6.305   0.007   9.385  0.1977  0.9319 -0.5860
    6CHL1  H18C  400   6.332   0.046   9.556  2.2094 -0.0270  0.5401
    6CHL1   C12  401   6.478  -0.174   9.576 -0.3204 -0.6873 -0.0940
    6CHL1  H12A  402   6.390  -0.235   9.544  0.0205  0.3704 -3.1371
    6CHL1  H12B  403   6.566  -0.241   9.567 -0.4682 -0.8984  0.0128
    6CHL1   C11  404   6.454  -0.123   9.721 -0.2731  0.7808  0.3054
    6CHL1  H11A  405   6.355  -0.074   9.729 -0.6904  0.0619 -0.4207
    6CHL1  H11B  406   6.460  -0.215   9.783 -2.3856  0.2650 -0.2218
    6CHL1    C9  407   6.565  -0.029   9.776 -0.2379  0.2630  0.9013
    6CHL1    H9  408   6.655  -0.092   9.787  0.0648  0.7067  0.9769
    6CHL1   C10  409   6.543   0.025   9.918  0.3281 -0.3562  0.0298
    6CHL1   C19  410   6.389   0.063   9.940  0.0206 -0.2773  0.0547
    6CHL1  H19A  411   6.386   0.136  10.024 -1.2531 -1.6431  1.2257
    6CHL1  H19B  412   6.356   0.122   9.851  2.0510  0.1967 -0.3957
    6CHL1  H19C  413   6.318  -0.021   9.957 -0.3013  0.2463  1.2986
    6CHL1    C1  414   6.560  -0.094  10.017 -0.0930 -0.2507  0.5604
    6CHL1   H1A  415   6.486  -0.174   9.996  1.2998 -0.8031 -2.4870
    6CHL1   H1B  416   6.657  -0.146  10.006  1.1997  2.1320  0.2564
    6CHL1    C2  417   6.557  -0.046  10.166 -0.1361 -0.1974 -0.7894
    6CHL1   H2A  418   6.577  -0.138  10.225  0.4766  0.4812  0.0624
    6CHL1   H2B  419   6.455  -0.016  10.199  0.6565  0.6496  0.9347
    6CHL1   C20  420   6.487  -0.125   9.234  0.3666 -0.1296 -0.0069
    6CHL1   H20  421   6.391  -0.068   9.229 -0.0056 -0.6829  0.8270
    6CHL1   C21  422   6.441  -0.268   9.283 -0.5438 -0.0450 -0.2540
    6CHL1  H21A  423   6.349  -0.258   9.344  0.1544  1.4413  0.5908
    6CHL1  H21B  424   6.532  -0.312   9.329 -0.4525 -0.0738 -0.4601
    6CHL1  H21C  425   6.420  -0.335   9.197 -0.9402 -1.2623  0.7860
    6CHL1   C22  426   6.548  -0.128   9.087  0.0986  0.3725  0.5796
    6CHL1  H22A  427   6.617  -0.043   9.068 -2.5955  2.3075 -0.9027
    6CHL1  H22B  428   6.610  -0.220   9.077  0.0102  0.2764  0.9389
    6CHL1   C23  429   6.445  -0.106   8.975  0.4587 -0.1767 -0.1909
    6CHL1  H23A  430   6.369  -0.188   8.970  0.8860 -0.6136  0.3158
    6CHL1  H23B  431   6.381  -0.016   8.985  0.6779  0.0057 -0.4454
    6CHL1   C24  432   6.506  -0.100   8.835 -0.0018 -0.4325  0.1807
    6CHL1  H24A  433   6.424  -0.086   8.762 -0.4921 -1.0325  0.6102
    6CHL1  H24B  434   6.583  -0.020   8.835  1.1685 -1.5181  0.8909
    6CHL1   C25  435   6.579  -0.231   8.797 -0.6315  0.5138  0.4922
    6CHL1   H25  436   6.673  -0.244   8.855 -1.7908  1.7225  2.7267
    6CHL1   C26  437   6.499  -0.365   8.831  0.1125  0.2834 -0.7510
    6CHL1  H26A  438   6.392  -0.351   8.803 -0.7144  1.1426  2.5442
    6CHL1  H26B  439   6.539  -0.455   8.781 -0.9516 -1.1954  0.9611
    6CHL1  H26C  440   6.512  -0.383   8.940 -1.8273  2.3830 -0.1111
    6CHL1   C27  441   6.602  -0.235   8.641  0.1385 -0.6642 -0.1695
    6CHL1  H27A  442   6.502  -0.218   8.597  0.2232  0.2554 -0.0234
    6CHL1  H27B  443   6.660  -0.145   8.612 -0.9441  1.1458  2.9992
    6CHL1  H27C  444   6.651  -0.328   8.607  1.5730  0.4511 -1.2126
    7CHL1    C3  445   3.785   3.644  10.313 -0.1454 -0.2377  0.4254
    7CHL1    H3  446   3.726   3.722  10.260  0.0610 -0.3293  0.0601
    7CHL1    O3  447   3.794   3.661  10.451 -0.4017 -0.6370  0.5190
    7CHL1   H3'  448   3.845   3.585  10.481  0.9019  0.2704  0.6455
    7CHL1    C4  449   3.709   3.519  10.277  0.0531  0.4523 -0.0437
    7CHL1   H4A  450   3.762   3.424  10.298 -0.9453 -0.1673 -0.2876
    7CHL1   H4B  451   3.615   3.510  10.336  0.6887 -1.0921  0.7631
    7CHL1    C5  452   3.685   3.517  10.127 -0.6282  0.4857 -0.0453
    7CHL1    C6  453   3.565   3.508  10.067 -0.3129 -0.2185 -0.9568
    7CHL1    H6  454   3.472   3.504  10.126 -0.5880  1.6987 -1.2088
    7CHL1    C7  455   3.543   3.489   9.921 -0.1003  0.2046  0.3213
    7CHL1   H7A  456   3.472   3.404   9.917 -0.4029  0.3422  2.3078
    7CHL1   H7B  457   3.494   3.571   9.864 -1.0325 -0.3996  0.2414
    7CHL1    C8  458   3.675   3.462   9.843 -0.0229  0.7710 -0.3028
    7CHL1    H8  459   3.698   3.354   9.861  0.7615  0.4892 -2.8598
    7CHL1   C14  460   3.659   3.478   9.698 -0.1734 -0.0430 -0.3053
    7CHL1   H14  461   3.647   3.584   9.668 -1.8898  0.0096  0.5065
    7CHL1   C15  462   3.552   3.404   9.623  0.5663 -0.0468  0.5442
    7CHL1  H15A  463   3.538   3.300   9.659 -2.1672 -0.2313 -0.9551
    7CHL1  H15B  464   3.452   3.451   9.635 -0.7889 -2.8646  0.7301
    7CHL1   C16  465   3.600   3.393   9.478 -0.1596 -0.2190  0.2662
    7CHL1  H16A  466   3.599   3.291   9.434  3.2611 -0.4048  0.4261
    7CHL1  H16B  467   3.527   3.454   9.422  1.0161  0.8038 -0.1741
    7CHL1   C17  468   3.743   3.457   9.479 -0.0545 -0.2681  1.1613
    7CHL1   H17  469   3.723   3.566   9.470  1.2113 -0.1753 -0.8915
    7CHL1   C13  470   3.792   3.435   9.622  1.3062 -0.3182  0.9899
    7CHL1   C18  471   3.830   3.287   9.640  0.0436 -0.5133 -0.2229
    7CHL1  H18A  472   3.928   3.267   9.591 -0.3656  0.2418 -1.3688
    7CHL1  H18B  473   3.842   3.263   9.748 -0.1316  4.7578  1.0988
    7CHL1  H18C  474   3.760   3.215   9.593 -0.7515 -0.9074  1.5051
    7CHL1   C12  475   3.894   3.536   9.670 -0.1950  0.3876 -0.0909
    7CHL1  H12A  476   3.988   3.520   9.614 -0.0945 -1.3678  0.5527
    7CHL1  H12B  477   3.852   3.635   9.644  0.1070  1.2415  2.4451
    7CHL1   C11  478   3.925   3.520   9.815  0.2664 -0.5731  0.2844
    7CHL1  H11A  479   3.962   3.415   9.821 -2.1546 -1.5152 -0.6874
    7CHL1  H11B  480   4.012   3.584   9.842  0.0249 -0.4111  0.6788
    7CHL1    C9  481   3.802   3.540   9.901 -0.1058  0.0083 -0.0041
    7CHL1    H9  482   3.769   3.645   9.886 -1.2112 -0.6836 -2.6809
    7CHL1   C10  483   3.822   3.519  10.049 -0.1413  0.8740 -0.4318
    7CHL1   C19  484   3.892   3.377  10.071  0.2316 -0.6378  0.5556
    7CHL1  H19A  485   3.834   3.286  10.045  0.4691 -0.9358  1.0716
    7CHL1  H19B  486   3.990   3.375  10.018  0.2898  1.3671  0.5314
    7CHL1  H19C  487   3.915   3.360  10.179  0.7577  0.2867  0.5953
    7CHL1    C1  488   3.915   3.632  10.096 -0.0781 -0.2819 -0.6119
    7CHL1   H1A  489   4.012   3.629  10.041 -0.1649 -0.5878 -0.7520
    7CHL1   H1B  490   3.865   3.726  10.064 -1.2661 -1.0190 -0.9403
    7CHL1    C2  491   3.919   3.651  10.249 -0.0587  0.0200 -0.0264
    7CHL1   H2A  492   3.972   3.744  10.278 -3.1227  0.5476  4.3240
    7CHL1   H2B  493   3.981   3.570  10.293 -2.2695 -1.5273  0.3501
    7CHL1   C20  494   3.831   3.405   9.356 -0.8050  0.1077  0.2187
    7CHL1   H20  495   3.866   3.304   9.385 -1.9566 -0.3148  0.1913
    7CHL1   C21  496   3.955   3.492   9.339 -0.4293  0.0418 -0.1504
    7CHL1  H21A  497   4.013   3.467   9.247  2.4566  0.8149  1.3982
    7CHL1  H21B  498   4.028   3.467   9.419 -2.0729  1.2217  1.7396
    7CHL1  H21C  499   3.928   3.600   9.340  0.6144  0.3082 -0.2429
    7CHL1   C22  500   3.745   3.401   9.225  0.1664 -0.2146  0.1275
    7CHL1  H22A  501   3.690   3.308   9.253 -1.0553  0.3305 -0.4472
    7CHL1  H22B  502   3.676   3.488   9.232  2.8726  1.9981  0.1743
    7CHL1   C23  503   3.813   3.389   9.089  0.3578  0.3459  0.4281
    7CHL1  H23A  504   3.740   3.405   9.007  2.6173 -0.9224 -1.9137
    7CHL1  H23B  505   3.894   3.463   9.073  0.9872 -0.8829 -2.3826
    7CHL1   C24  506   3.880   3.253   9.069  0.6352 -0.0036  0.8048
    7CHL1  H24A  507   3.975   3.256   9.127  0.7905  2.7396  0.4668
    7CHL1  H24B  508   3.795   3.189   9.101  0.1041  0.3820  0.1758
    7CHL1   C25  509   3.923   3.224   8.923  0.4405 -0.3044 -0.0880
    7CHL1   H25  510   3.949   3.116   8.922 -2.0735 -0.9481 -0.2671
    7CHL1   C26  511   3.811   3.218   8.813 -0.5567  0.2764  0.6748
    7CHL1  H26A  512   3.753   3.124   8.825 -0.2805 -0.0504 -0.4922
    7CHL1  H26B  513   3.744   3.306   8.821  0.0360  0.6089  2.3461
    7CHL1  H26C  514   3.852   3.203   8.711 -1.5861  1.3392  0.0944
    7CHL1   C27  515   4.056   3.297   8.880  0.2186 -0.1526 -0.1019
    7CHL1  H27A  516   4.035   3.405   8.868  1.3064 -0.0985 -1.6586
    7CHL1  H27B  517   4.133   3.272   8.956  0.6148  2.0939  0.2549
    7CHL1  H27C  518   4.084   3.249   8.783  0.1236 -2.5313  1.0013
    8CHL1    C3  519   3.611   4.941  10.374  0.7806  0.1641  0.3055
    8CHL1    H3  520   3.529   4.866  10.388  2.0585 -1.2580  0.2653
    8CHL1    O3  521   3.667   4.972  10.498 -0.6556 -0.6423  0.3193
    8CHL1   H3'  522   3.591   4.976  10.557 -1.3034  2.8878 -0.6424
    8CHL1    C4  523   3.713   4.883  10.273 -0.3603 -0.0026  0.5823
    8CHL1   H4A  524   3.805   4.945  10.272 -0.1525 -0.3166 -0.7493
    8CHL1   H4B  525   3.760   4.792  10.317  3.0173  0.9940 -0.7417
    8CHL1    C5  526   3.666   4.851  10.132 -0.5879  0.9018 -0.8593
    8CHL1    C6  527   3.681   4.728  10.072 -0.0805 -0.6119  0.5266
    8CHL1    H6  528   3.733   4.645  10.123 -0.6647 -0.6746  1.0151
    8CHL1    C7  529   3.631   4.708   9.930 -0.4748  0.5792 -0.0834
    8CHL1   H7A  530   3.713   4.658   9.873 -0.0661 -0.1465  1.1195
    8CHL1   H7B  531   3.547   4.636   9.926  0.5626 -0.5799 -1.7329
    8CHL1    C8  532   3.595   4.837   9.859 -0.1723  0.1816  0.5192
    8CHL1    H8  533   3.688   4.896   9.841  1.6289 -2.2720  1.5089
    8CHL1   C14  534   3.528   4.801   9.734 -0.0593  0.4476  0.5719
    8CHL1   H14  535   3.433   4.755   9.766  0.9349  0.1041  3.1532
    8CHL1   C15  536   3.607   4.698   9.641 -0.2203  0.4943  0.1137
    8CHL1  H15A  537   3.714   4.725   9.640 -0.1538  0.2795  1.2050
    8CHL1  H15B  538   3.596   4.594   9.678 -2.4129  0.4115 -0.6907
    8CHL1   C16  539   3.525   4.720   9.508  0.4175  0.9066  0.0273
    8CHL1  H16A  540   3.595   4.760   9.431  0.1180 -1.6091 -1.6163
    8CHL1  H16B  541   3.487   4.622   9.470  0.5943 -0.0821  2.3365
    8CHL1   C17  542   3.419   4.835   9.530 -0.0403 -0.1617  0.0864
    8CHL1   H17  543   3.332   4.786   9.579 -1.0327  0.1933 -1.3022
    8CHL1   C13  544   3.473   4.918   9.651  0.2377  0.3452  0.0932
    8CHL1   C18  545   3.592   5.009   9.601  0.0639 -0.2915  0.4858
    8CHL1  H18A  546   3.679   4.949   9.568  1.3021  0.9832  1.4043
    8CHL1  H18B  547   3.571   5.076   9.515 -3.5379 -1.2741  0.5018
    8CHL1  H18C  548   3.622   5.081   9.679 -0.5458  2.0830 -1.4297
    8CHL1   C12  549   3.379   5.002   9.733 -0.1122  0.2832 -0.1934
    8CHL1  H12A  550   3.349   5.095   9.680 -1.0642  0.1452  0.0950
    8CHL1  H12B  551   3.288   4.945   9.764  0.3691 -0.5521 -0.3101
    8CHL1   C11  552   3.433   5.042   9.871 -0.2120  0.3709 -0.1367
    8CHL1  H11A  553   3.509   5.122   9.853 -2.3253  2.2064 -1.1212
    8CHL1  H11B  554   3.346   5.065   9.937 -0.9098  0.6873 -1.1479
    8CHL1    C9  555   3.507   4.924   9.949  0.0426 -0.5963 -0.1111
    8CHL1    H9  556   3.433   4.851   9.988  0.2133  1.4491  4.2676
    8CHL1   C10  557   3.589   4.975  10.074  0.6529 -0.1113  0.8483
    8CHL1   C19  558   3.691   5.083  10.039 -0.0255 -0.0829 -0.1947
    8CHL1  H19A  559   3.767   5.097  10.118  0.2845  1.2477 -0.7120
    8CHL1  H19B  560   3.748   5.056   9.948  1.5874  0.6162  0.5867
    8CHL1  H19C  561   3.638   5.178  10.016  2.1518  0.5855 -2.5849
    8CHL1    C1  562   3.491   5.031  10.181  0.6025  0.1149 -0.3383
    8CHL1   H1A  563   3.437   5.120  10.141  0.4076  0.8554  1.5175
    8CHL1   H1B  564   3.414   4.954  10.206 -0.6201  1.4716  0.1581
    8CHL1    C2  565   3.556   5.069  10.311 -1.2247  0.7039 -0.6103
    8CHL1   H2A  566   3.482   5.116  10.380 -0.6096 -0.3767  0.8224
    8CHL1   H2B  567   3.634   5.147  10.304  1.0358 -0.9873  3.6057
    8CHL1   C20  568   3.376   4.902   9.392 -0.3971  0.4572 -0.4812
    8CHL1   H20  569   3.470   4.944   9.348 -1.1026  2.5330 -0.0847
    8CHL1   C21  570   3.271   5.013   9.423 -0.3957 -0.3166 -0.1581
    8CHL1  H21A  571   3.328   5.095   9.471 -0.4371 -0.3802 -0.0008
    8CHL1  H21B  572   3.192   4.975   9.492 -0.2245  0.4132  0.4398
    8CHL1  H21C  573   3.228   5.061   9.332 -0.3776 -2.0459 -1.0979
    8CHL1   C22  574   3.319   4.789   9.298 -0.3466  0.1899  0.4923
    8CHL1  H22A  575   3.410   4.727   9.285 -1.1615 -0.6997 -1.1754
    8CHL1  H22B  576   3.247   4.742   9.368  2.4271 -1.8619  2.0650
    8CHL1   C23  577   3.268   4.844   9.159  0.3346 -0.2603 -0.4998
    8CHL1  H23A  578   3.246   4.751   9.102  1.4875  0.2624 -1.8500
    8CHL1  H23B  579   3.176   4.905   9.171  0.5543  0.5052 -2.4701
    8CHL1   C24  580   3.365   4.943   9.082 -0.6113  0.0556  0.4738
    8CHL1  H24A  581   3.375   5.035   9.143  0.0072  0.0466  0.3867
    8CHL1  H24B  582   3.467   4.900   9.072 -0.0005  0.9759  2.5496
    8CHL1   C25  583   3.313   4.988   8.952 -0.1662  0.0080  0.9304
    8CHL1   H25  584   3.212   5.032   8.967  0.0294  0.2036  1.6879
    8CHL1   C26  585   3.409   5.101   8.887  0.4807  0.1963 -0.4600
    8CHL1  H26A  586   3.369   5.145   8.793 -0.9526 -1.1020 -0.4806
    8CHL1  H26B  587   3.423   5.185   8.959 -1.0041  0.8023 -0.8412
    8CHL1  H26C  588   3.511   5.062   8.872  1.1156  1.9472 -0.7955
    8CHL1   C27  589   3.294   4.874   8.849 -0.5044  0.1421 -0.0731
    8CHL1  H27A  590   3.389   4.855   8.796  1.3072 -0.0872  3.1546
    8CHL1  H27B  591   3.264   4.775   8.890 -1.4958  1.6222  2.9225
    8CHL1  H27C  592   3.213   4.909   8.781 -0.2924  1.1743  0.2023
    9CHL1    C3  593   6.504   1.107  10.294 -0.2880  0.1801 -0.1070
    9CHL1    H3  594   6.447   1.018  10.260  1.5402 -1.6818  1.5318
    9CHL1    O3  595   6.489   1.120  10.432 -0.4477  0.1764  0.3821
    9CHL1   H3'  596   6.514   1.041  10.480  0.1801  0.0519 -0.1326
    9CHL1    C4  597   6.651   1.085  10.253  0.6416 -0.3339  0.0347
    9CHL1   H4A  598   6.707   1.174  10.288 -1.2872  1.0869 -0.4253
    9CHL1   H4B  599   6.692   1.007  10.321  1.2274  0.1411  0.2260
    9CHL1    C5  600   6.657   1.063  10.102 -0.0264  1.5601 -0.1840
    9CHL1    C6  601   6.722   0.954  10.052  0.2914 -0.2466  0.2404
    9CHL1    H6  602   6.770   0.885  10.123  2.1278  1.1310  0.3979
    9CHL1    C7  603   6.709   0.908   9.913 -0.4025 -0.8034 -0.3153
    9CHL1   H7A  604   6.814   0.891   9.881  0.6472  1.8883  1.5481
    9CHL1   H7B  605   6.669   0.805   9.908 -0.2539 -0.8615 -0.3045
    9CHL1    C8  606   6.653   1.010   9.815  0.4779 -0.2798 -0.7647
    9CHL1    H8  607   6.729   1.088   9.792  0.4388 -0.1342 -0.4062
    9CHL1   C14  608   6.612   0.946   9.683  0.4300 -0.2446 -0.2828
    9CHL1   H14  609   6.523   0.883   9.703  0.1888 -0.1404 -1.0177
    9CHL1   C15  610   6.712   0.854   9.626 -0.4136  0.1239  0.5407
    9CHL1  H15A  611   6.812   0.903   9.630 -0.9975  1.4551 -0.5860
    9CHL1  H15B  612   6.708   0.754   9.675  1.7070 -1.3041 -2.1058
    9CHL1   C16  613   6.667   0.834   9.481 -0.0162  0.5871 -0.2192
    9CHL1  H16A  614   6.754   0.861   9.417 -0.8146 -0.7912 -1.9386
    9CHL1  H16B  615   6.630   0.733   9.454  1.7038 -0.6252  1.7950
    9CHL1   C17  616   6.558   0.944   9.460  0.1475 -0.6091  0.6892
    9CHL1   H17  617   6.464   0.899   9.499 -0.2823  0.0104  0.3872
    9CHL1   C13  618   6.569   1.045   9.570  0.0794  0.1734 -0.5019
    9CHL1   C18  619   6.673   1.146   9.529 -0.0387  0.2941  0.1665
    9CHL1  H18A  620   6.643   1.225   9.457  0.8279 -0.4794 -1.0668
    9CHL1  H18B  621   6.710   1.208   9.612 -0.3895  1.4506 -0.5339
    9CHL1  H18C  622   6.761   1.101   9.479  0.6684  0.3102  1.3765
    9CHL1   C12  623   6.446   1.120   9.625  0.0485  0.5999  0.7566
    9CHL1  H12A  624   6.400   1.190   9.553  1.0252  1.1426  0.6649
    9CHL1  H12B  625   6.371   1.038   9.636  0.5264  0.0277 -0.2087
    9CHL1   C11  626   6.473   1.177   9.767 -0.1985 -0.5619 -0.4119
    9CHL1  H11A  627   6.533   1.271   9.766 -1.2597  0.1844  1.9357
    9CHL1  H11B  628   6.372   1.209   9.800 -0.1579 -2.1024  1.3250
    9CHL1    C9  629   6.535   1.080   9.874 -0.2471  0.4276  0.5400
    9CHL1    H9  630   6.454   1.005   9.889  2.5356 -2.8790 -0.2305
    9CHL1   C10  631   6.570   1.148  10.005  0.5069 -0.2626 -0.4816
    9CHL1   C19  632   6.656   1.275   9.985 -0.6578 -0.1870 -1.2049
    9CHL1  H19A  633   6.712   1.256   9.891  0.4930 -0.9041 -0.3987
    9CHL1  H19B  634   6.581   1.357   9.977 -0.1859  0.4550  0.6388
    9CHL1  H19C  635   6.728   1.295  10.067 -0.9176 -0.4460 -0.9136
    9CHL1    C1  636   6.434   1.190  10.075 -0.6293  0.5309 -0.9170
    9CHL1   H1A  637   6.389   1.278  10.025 -3.6045  1.0558  2.4516
    9CHL1   H1B  638   6.365   1.103  10.068  1.4541 -1.1078 -1.5906
    9CHL1    C2  639   6.441   1.224  10.223  0.1398  0.3303 -0.4404
    9CHL1   H2A  640   6.342   1.251  10.264  2.1971  0.4411  4.7697
    9CHL1   H2B  641   6.504   1.313  10.241 -3.9547  2.6060  3.7349
    9CHL1   C20  642   6.536   0.990   9.318 -0.1180  0.2011  0.3167
    9CHL1   H20  643   6.616   1.056   9.279  0.0538  0.2583  0.7696
    9CHL1   C21  644   6.400   1.060   9.294 -0.1446  0.5328 -0.0946
    9CHL1  H21A  645   6.407   1.151   9.358  1.2343 -0.2696  0.9210
    9CHL1  H21B  646   6.322   0.986   9.324  1.7903 -1.3252  0.4104
    9CHL1  H21C  647   6.411   1.091   9.189 -1.4682  0.2031 -0.3480
    9CHL1   C22  648   6.532   0.865   9.221 -0.1412  0.1946 -0.3909
    9CHL1  H22A  649   6.615   0.793   9.234  0.6391  1.1354 -0.1645
    9CHL1  H22B  650   6.443   0.801   9.239  0.6367 -0.6803  0.4066
    9CHL1   C23  651   6.517   0.897   9.073  0.0435 -0.1976  0.5810
    9CHL1  H23A  652   6.413   0.934   9.055 -0.5344 -1.5571  1.0646
    9CHL1  H23B  653   6.586   0.981   9.050 -1.6538  1.1491  0.2757
    9CHL1   C24  654   6.552   0.780   8.975 -0.2747 -0.3110 -0.2386
    9CHL1  H24A  655   6.656   0.750   9.000  0.5099  0.1088 -2.8877
    9CHL1  H24B  656   6.482   0.694   8.987  1.3144 -1.9145 -2.0858
    9CHL1   C25  657   6.551   0.826   8.820 -0.5897 -0.1792  0.2249
    9CHL1   H25  658   6.597   0.927   8.830 -1.6404  0.3001  0.3601
    9CHL1   C26  659   6.630   0.729   8.727  0.5491  0.1874  0.4900
    9CHL1  H26A  660   6.563   0.643   8.704 -1.9219  2.6458 -1.8749
    9CHL1  H26B  661   6.642   0.777   8.628 -0.5602  1.7874  1.1143
    9CHL1  H26C  662   6.724   0.706   8.783  1.4726  0.4156 -0.9548
    9CHL1   C27  663   6.408   0.835   8.762 -1.0288  0.1572 -0.5778
    9CHL1  H27A  664   6.378   0.737   8.720  0.6708 -0.9151  0.6845
    9CHL1  H27B  665   6.337   0.870   8.841  0.6750  0.4028  0.8595
    9CHL1  H27C  666   6.403   0.906   8.676  0.6803  2.3528  1.0777
   10CHL1    C3  667   5.531   5.322  10.178  0.2367 -0.2516  0.1156
   10CHL1    H3  668   5.560   5.216  10.196  0.7066 -0.7726 -3.3510
   10CHL1    O3  669   5.554   5.404  10.290 -0.1225 -0.0228  0.0314
   10CHL1   H3'  670   5.557   5.493  10.254 -1.2888 -1.3081 -3.4359
   10CHL1    C4  671   5.625   5.364  10.061  0.6337 -0.0870  0.6749
   10CHL1   H4A  672   5.624   5.474  10.043 -0.7264 -0.5041 -2.0190
   10CHL1   H4B  673   5.731   5.343  10.088  0.7514  0.2796  0.5112
   10CHL1    C5  674   5.584   5.304   9.929 -0.0554  0.5778  0.6816
   10CHL1    C6  675   5.669   5.231   9.853 -0.5043  0.2083 -0.9393
   10CHL1    H6  676   5.774   5.227   9.885 -1.1457  0.2479  1.2063
   10CHL1    C7  677   5.634   5.165   9.720  0.7851 -0.1793  0.6393
   10CHL1   H7A  678   5.714   5.158   9.644  0.8605 -0.3693  0.7352
   10CHL1   H7B  679   5.599   5.060   9.737  0.3273 -0.2145 -0.4944
   10CHL1    C8  680   5.515   5.242   9.654  0.6784  0.2568  0.1729
   10CHL1    H8  681   5.538   5.347   9.627 -0.7660  1.1157  2.1756
   10CHL1   C14  682   5.471   5.166   9.531 -0.5954  0.4324  0.6872
   10CHL1   H14  683   5.449   5.060   9.556  2.5512 -0.8752 -1.7282
   10CHL1   C15  684   5.585   5.149   9.419  0.6531  0.4222  0.2943
   10CHL1  H15A  685   5.637   5.247   9.408 -0.9526  1.2042 -0.5857
   10CHL1  H15B  686   5.664   5.077   9.448 -1.0102 -1.3344  0.5072
   10CHL1   C16  687   5.502   5.117   9.294 -0.0207 -0.5102  0.2212
   10CHL1  H16A  688   5.527   5.168   9.199 -0.9690  0.0170  0.2388
   10CHL1  H16B  689   5.515   5.010   9.266  1.4045  0.5172 -3.2631
   10CHL1   C17  690   5.354   5.144   9.332  0.3294 -0.5718 -1.1079
   10CHL1   H17  691   5.305   5.052   9.369  0.0048 -0.1607 -0.5089
   10CHL1   C13  692   5.349   5.230   9.460 -0.8118 -0.1284  0.5601
   10CHL1   C18  693   5.375   5.378   9.419 -0.6202  0.2508  0.0903
   10CHL1  H18A  694   5.399   5.439   9.509 -1.4460 -2.2502  2.0535
   10CHL1  H18B  695   5.452   5.382   9.340 -3.6612  1.5999 -2.9271
   10CHL1  H18C  696   5.291   5.431   9.370  0.2620  1.2028 -0.4076
   10CHL1   C12  697   5.236   5.210   9.565 -0.2504 -0.3480 -0.3414
   10CHL1  H12A  698   5.138   5.250   9.530  0.3005  0.5767 -0.8394
   10CHL1  H12B  699   5.223   5.101   9.554 -0.5414 -0.1202 -2.3372
   10CHL1   C11  700   5.261   5.269   9.702 -0.4638  0.4692  0.1725
   10CHL1  H11A  701   5.254   5.378   9.683 -0.1731  0.1916 -1.5765
   10CHL1  H11B  702   5.185   5.247   9.780 -0.2862  0.5146  0.3620
   10CHL1    C9  703   5.403   5.239   9.756  0.0203  0.1550 -0.4790
   10CHL1    H9  704   5.399   5.132   9.786  0.6188 -0.5328 -2.7843
   10CHL1   C10  705   5.431   5.316   9.890 -0.0878  0.8407 -0.4406
   10CHL1   C19  706   5.390   5.464   9.876  0.1197 -0.2994 -0.0268
   10CHL1  H19A  707   5.280   5.470   9.857  0.2229 -1.3548 -0.9494
   10CHL1  H19B  708   5.403   5.525   9.968  0.2218 -3.6928  2.3071
   10CHL1  H19C  709   5.445   5.516   9.795  0.4986 -1.1946 -0.3439
   10CHL1    C1  710   5.352   5.256  10.003 -0.1002  0.1284  0.3238
   10CHL1   H1A  711   5.245   5.286   9.996  0.2375  1.6776  1.4025
   10CHL1   H1B  712   5.363   5.146  10.014  1.2593  0.4175  2.0059
   10CHL1    C2  713   5.381   5.323  10.145 -0.6760  0.0390 -0.7578
   10CHL1   H2A  714   5.331   5.261  10.222  0.6558 -1.2755 -0.9325
   10CHL1   H2B  715   5.351   5.430  10.147 -1.5727 -0.1864 -1.3785
   10CHL1   C20  716   5.269   5.183   9.207 -0.3410 -0.2281 -0.2040
   10CHL1   H20  717   5.327   5.266   9.160 -1.3623  1.2949  1.1806
   10CHL1   C21  718   5.127   5.228   9.256 -0.4067  0.1688  0.8280
   10CHL1  H21A  719   5.083   5.164   9.335 -2.9049  0.6919 -0.0746
   10CHL1  H21B  720   5.054   5.227   9.172 -0.0511 -0.9709  0.5214
   10CHL1  H21C  721   5.129   5.331   9.297 -1.6854  1.2412 -1.6643
   10CHL1   C22  722   5.266   5.073   9.093  0.1933  0.0175 -0.3818
   10CHL1  H22A  723   5.360   5.014   9.088  0.5671  0.2687  2.7511
   10CHL1  H22B  724   5.182   5.010   9.128  0.0971 -0.3585 -1.2716
   10CHL1   C23  725   5.236   5.125   8.952 -0.1033 -0.1690  1.0437
   10CHL1  H23A  726   5.131   5.161   8.953  0.0950  0.4143  1.5113
   10CHL1  H23B  727   5.310   5.204   8.928  1.2481 -2.1907 -1.7388
   10CHL1   C24  728   5.241   5.023   8.842  0.2873 -0.1847 -0.0410
   10CHL1  H24A  729   5.348   4.997   8.829  0.0020 -1.4375 -0.0326
   10CHL1  H24B  730   5.198   4.924   8.871 -1.1946  0.8265  1.3020
   10CHL1   C25  731   5.172   5.084   8.721 -0.7767  0.2710 -0.1938
   10CHL1   H25  732   5.069   5.115   8.750 -0.6658 -0.5833  1.1724
   10CHL1   C26  733   5.227   5.216   8.667  0.1369 -0.1423  0.1940
   10CHL1  H26A  734   5.236   5.298   8.741 -0.4189  2.7266 -2.7492
   10CHL1  H26B  735   5.330   5.208   8.626  0.4261  1.4157  0.5772
   10CHL1  H26C  736   5.161   5.253   8.585  1.5546  1.3566 -0.3016
   10CHL1   C27  737   5.155   4.974   8.614  0.8520 -0.1692 -0.1908
   10CHL1  H27A  738   5.097   5.014   8.529  2.8332  0.1188 -1.4480
   10CHL1  H27B  739   5.259   4.945   8.586  0.4894  0.9714 -2.7960
   10CHL1  H27C  740   5.112   4.880   8.655  2.8071 -0.7311  0.6716
   11CHL1    C3  741   1.239   1.535   9.943  0.1468  0.4575 -0.1517
   11CHL1    H3  742   1.135   1.545   9.903  0.1741  1.1754 -0.0516
   11CHL1    O3  743   1.268   1.543  10.082 -0.2393 -0.0374  0.0670
   11CHL1   H3'  744   1.362   1.524  10.088  0.1657  2.1146  1.0211
   11CHL1    C4  745   1.291   1.406   9.892  1.5028  0.8983  0.3347
   11CHL1   H4A  746   1.394   1.391   9.930  0.1280 -2.2163  3.0915
   11CHL1   H4B  747   1.219   1.339   9.944 -0.1320  1.6504 -0.8988
   11CHL1    C5  748   1.297   1.403   9.743  0.4999  0.2067 -0.3179
   11CHL1    C6  749   1.222   1.317   9.675 -0.5337  0.1027 -0.8699
   11CHL1    H6  750   1.171   1.239   9.734 -0.7743  0.9576  0.0674
   11CHL1    C7  751   1.205   1.305   9.526 -0.1170  0.0102  0.1900
   11CHL1   H7A  752   1.205   1.197   9.499  0.7127  0.6397 -2.6040
   11CHL1   H7B  753   1.105   1.344   9.499 -0.6968 -0.6278  1.4017
   11CHL1    C8  754   1.311   1.386   9.454  0.1469 -0.0870 -0.3132
   11CHL1    H8  755   1.406   1.331   9.473  1.0902  0.9845 -1.8344
   11CHL1   C14  756   1.268   1.402   9.307 -0.2736  0.3515 -0.6184
   11CHL1   H14  757   1.174   1.462   9.306 -0.9286 -0.6706 -0.7438
   11CHL1   C15  758   1.224   1.279   9.229  0.1201  0.2949  0.4651
   11CHL1  H15A  759   1.302   1.200   9.241 -0.2452 -0.6299 -2.7887
   11CHL1  H15B  760   1.123   1.243   9.258 -0.8215  1.4037 -1.3840
   11CHL1   C16  761   1.228   1.336   9.080 -0.2409 -0.5972  0.0020
   11CHL1  H16A  762   1.282   1.264   9.015  1.3149  0.2879  0.2925
   11CHL1  H16B  763   1.125   1.351   9.042  0.5155  0.8547 -1.5691
   11CHL1   C17  764   1.303   1.470   9.095  0.9154 -0.5336 -0.0731
   11CHL1   H17  765   1.224   1.547   9.107  0.0423 -1.4782  0.2609
   11CHL1   C13  766   1.373   1.470   9.230  0.0676 -0.1091  0.2425
   11CHL1   C18  767   1.505   1.393   9.209 -0.6835  0.1359 -0.0830
   11CHL1  H18A  768   1.497   1.308   9.139  1.8945  1.2452 -1.8203
   11CHL1  H18B  769   1.576   1.452   9.147 -3.6745  2.8318 -1.1216
   11CHL1  H18C  770   1.552   1.370   9.307 -0.4292  0.0659 -0.2219
   11CHL1   C12  771   1.398   1.612   9.287 -0.0945  0.2766 -0.0109
   11CHL1  H12A  772   1.479   1.666   9.233 -1.1037 -0.1812 -2.0367
   11CHL1  H12B  773   1.303   1.668   9.296 -1.6517 -2.5002  1.5680
   11CHL1   C11  774   1.437   1.609   9.441  0.0816 -0.1550  1.0773
   11CHL1  H11A  775   1.530   1.550   9.447  0.7030  0.5770 -1.0202
   11CHL1  H11B  776   1.445   1.716   9.471  1.0474  0.3229 -0.8220
   11CHL1    C9  777   1.336   1.525   9.523  0.3245  0.8279  0.3410
   11CHL1    H9  778   1.242   1.584   9.515  0.3007  0.7128 -0.3110
   11CHL1   C10  779   1.374   1.521   9.671 -0.1279 -0.0816  0.9287
   11CHL1   C19  780   1.522   1.480   9.700  0.1966  0.3392  0.1692
   11CHL1  H19A  781   1.550   1.468   9.807 -0.7155  0.7390  0.4576
   11CHL1  H19B  782   1.526   1.378   9.657  1.3622  0.5592 -0.2581
   11CHL1  H19C  783   1.598   1.543   9.649 -1.0443  2.0748  0.4188
   11CHL1    C1  784   1.345   1.656   9.736 -0.4689 -0.0093 -0.6280
   11CHL1   H1A  785   1.437   1.716   9.718 -0.6113  0.1296 -0.8950
   11CHL1   H1B  786   1.263   1.716   9.691 -0.6830  0.3247  0.2163
   11CHL1    C2  787   1.326   1.656   9.890  0.2262  0.7534 -0.4898
   11CHL1   H2A  788   1.280   1.752   9.922  0.0790  0.3878  0.4103
   11CHL1   H2B  789   1.424   1.665   9.941  0.5293  0.8359 -1.0806
   11CHL1   C20  790   1.378   1.517   8.963 -0.5272 -0.3910  0.0011
   11CHL1   H20  791   1.470   1.457   8.945 -0.8460 -0.7397 -0.4767
   11CHL1   C21  792   1.417   1.665   8.986 -0.4738  0.0770 -0.2842
   11CHL1  H21A  793   1.523   1.664   9.020 -1.0797 -0.9345  1.6107
   11CHL1  H21B  794   1.361   1.721   9.064 -1.0542 -0.1530 -0.5367
   11CHL1  H21C  795   1.413   1.728   8.894  0.2975  0.0615 -0.3389
   11CHL1   C22  796   1.285   1.499   8.839  0.0237  0.0024 -0.2933
   11CHL1  H22A  797   1.237   1.399   8.837 -1.8708  0.9147 -1.4217
   11CHL1  H22B  798   1.204   1.574   8.833 -1.4114 -1.2911  2.1339
   11CHL1   C23  799   1.372   1.524   8.706 -0.0446 -0.2060 -0.1913
   11CHL1  H23A  800   1.399   1.632   8.712 -3.8000  0.9195 -1.7790
   11CHL1  H23B  801   1.467   1.470   8.727 -0.7838 -0.5579  2.4925
   11CHL1   C24  802   1.297   1.486   8.579 -0.0013 -0.2100 -0.0035
   11CHL1  H24A  803   1.196   1.532   8.576  0.2247  0.3289  0.5248
   11CHL1  H24B  804   1.338   1.536   8.488 -0.5771  1.3554  0.5862
   11CHL1   C25  805   1.273   1.335   8.564  0.2622 -0.0307 -0.4473
   11CHL1   H25  806   1.256   1.294   8.666 -2.1610 -1.7770 -1.4857
   11CHL1   C26  807   1.159   1.295   8.469 -0.2390  0.1113  0.8381
   11CHL1  H26A  808   1.141   1.186   8.485  1.1508  0.1480  2.7475
   11CHL1  H26B  809   1.070   1.358   8.492 -3.2939 -3.5682 -0.2422
   11CHL1  H26C  810   1.195   1.313   8.366  2.3436  0.2891  1.7566
   11CHL1   C27  811   1.409   1.273   8.522 -0.0226  0.2920 -0.2705
   11CHL1  H27A  812   1.493   1.322   8.576  0.0379  1.2272 -1.1859
   11CHL1  H27B  813   1.402   1.162   8.525  0.0685  0.2653 -0.8687
   11CHL1  H27C  814   1.420   1.294   8.413 -1.6804  0.6740 -0.3790
   12CHL1    C3  815   4.580   4.498  10.220  0.0878 -0.1623  1.0503
   12CHL1    H3  816   4.683   4.469  10.192 -0.1734  0.4723 -0.6470
   12CHL1    O3  817   4.577   4.518  10.364 -0.1507  0.1572  0.1078
   12CHL1   H3'  818   4.483   4.507  10.380 -0.1043 -0.5165 -0.0935
   12CHL1    C4  819   4.536   4.622  10.142  0.2677 -0.9379 -0.9259
   12CHL1   H4A  820   4.433   4.637  10.179  0.0400 -3.3841 -0.4605
   12CHL1   H4B  821   4.607   4.700  10.176  0.7390 -1.4572 -0.6900
   12CHL1    C5  822   4.542   4.607   9.990  0.1379 -0.3460 -0.2718
   12CHL1    C6  823   4.616   4.689   9.913  0.5793  0.3271  0.4211
   12CHL1    H6  824   4.672   4.772   9.959  1.7499  0.2076 -0.7463
   12CHL1    C7  825   4.626   4.683   9.765 -0.3768  0.6585 -0.9522
   12CHL1   H7A  826   4.606   4.776   9.708  0.8475  1.0382 -0.7882
   12CHL1   H7B  827   4.731   4.659   9.738 -0.3457  0.8762 -1.0245
   12CHL1    C8  828   4.528   4.575   9.707 -0.2266  0.3048  0.5132
   12CHL1    H8  829   4.430   4.627   9.712 -1.1887 -1.3104 -0.9979
   12CHL1   C14  830   4.556   4.546   9.565 -0.2584  0.0349  0.1548
   12CHL1   H14  831   4.659   4.506   9.572  0.7440  1.8776 -3.0060
   12CHL1   C15  832   4.567   4.652   9.461 -0.0427  0.1693  0.1471
   12CHL1  H15A  833   4.475   4.714   9.453 -0.8337 -0.8913  0.8805
   12CHL1  H15B  834   4.651   4.725   9.469 -1.3771  1.8484 -0.7863
   12CHL1   C16  835   4.587   4.577   9.331 -0.2777 -0.4213  0.6821
   12CHL1  H16A  836   4.525   4.638   9.262  0.8642  3.2907  2.8062
   12CHL1  H16B  837   4.694   4.574   9.301 -0.3055  0.1088  0.5273
   12CHL1   C17  838   4.537   4.432   9.361 -0.3013  0.3441 -0.2479
   12CHL1   H17  839   4.636   4.381   9.368  0.6172  2.1899  0.4279
   12CHL1   C13  840   4.474   4.439   9.500  0.1490  0.5163 -0.7410
   12CHL1   C18  841   4.326   4.484   9.494  0.5078  0.0495  0.1066
   12CHL1  H18A  842   4.286   4.525   9.589  2.3591  0.2483  0.8285
   12CHL1  H18B  843   4.313   4.565   9.419  1.8589  1.1234  1.0158
   12CHL1  H18C  844   4.256   4.401   9.471  1.6816 -0.8292 -0.3549
   12CHL1   C12  845   4.485   4.310   9.585 -0.0948 -0.3183 -0.6113
   12CHL1  H12A  846   4.423   4.223   9.552  0.7568 -1.1806  0.0378
   12CHL1  H12B  847   4.591   4.279   9.596  0.5074  2.5858  2.4419
   12CHL1   C11  848   4.432   4.338   9.729  0.3703  0.2771 -0.4783
   12CHL1  H11A  849   4.323   4.361   9.727  0.1400 -0.7934 -0.7838
   12CHL1  H11B  850   4.434   4.246   9.791  1.4721  0.4982 -0.1760
   12CHL1    C9  851   4.522   4.443   9.792  0.5043 -0.2242  0.2422
   12CHL1    H9  852   4.626   4.405   9.799  0.5657  0.3739  2.7442
   12CHL1   C10  853   4.481   4.476   9.939 -0.0110 -0.6602 -0.2627
   12CHL1   C19  854   4.323   4.497   9.954 -0.2175 -0.3673  0.6298
   12CHL1  H19A  855   4.311   4.525  10.061  0.6118 -0.6655  0.7952
   12CHL1  H19B  856   4.295   4.585   9.891 -2.7746 -1.8935 -0.4844
   12CHL1  H19C  857   4.268   4.405   9.925  0.3505 -0.3484 -0.5434
   12CHL1    C1  858   4.520   4.355  10.025  0.5787  0.1489  0.0440
   12CHL1   H1A  859   4.461   4.263  10.006  0.9110 -0.1689  0.5202
   12CHL1   H1B  860   4.629   4.334  10.012  0.2217 -0.7611 -1.5999
   12CHL1    C2  861   4.501   4.370  10.173 -0.2270 -0.8878 -0.3037
   12CHL1   H2A  862   4.537   4.282  10.229 -1.0621 -2.0375 -1.5447
   12CHL1   H2B  863   4.395   4.394  10.193 -0.2651  0.1543 -1.6376
   12CHL1   C20  864   4.462   4.362   9.252 -0.3999 -0.2784 -0.4222
   12CHL1   H20  865   4.366   4.413   9.229 -0.1257  1.1231  1.4659
   12CHL1   C21  866   4.431   4.212   9.270  0.3981  0.1744  0.2486
   12CHL1  H21A  867   4.368   4.184   9.357 -0.8224 -0.5939 -0.8736
   12CHL1  H21B  868   4.526   4.155   9.265  0.6507  0.6900 -1.1236
   12CHL1  H21C  869   4.370   4.174   9.185  1.8568 -1.8731  0.0981
   12CHL1   C22  870   4.533   4.368   9.115  1.3483  0.4222  1.0245
   12CHL1  H22A  871   4.590   4.463   9.112  0.6704  0.8873  2.3079
   12CHL1  H22B  872   4.609   4.287   9.116 -0.8874 -1.7326  2.3907
   12CHL1   C23  873   4.444   4.365   8.992  0.1551  0.5492  0.4437
   12CHL1  H23A  874   4.387   4.269   8.990  0.5253  0.3436 -3.1204
   12CHL1  H23B  875   4.360   4.437   8.999 -0.2316  0.1322  0.1066
   12CHL1   C24  876   4.518   4.394   8.864 -0.0171  0.6738  0.2604
   12CHL1  H24A  877   4.548   4.501   8.861 -1.3995  1.0592  0.2791
   12CHL1  H24B  878   4.616   4.343   8.852  0.3696  1.4180  0.1980
   12CHL1   C25  879   4.454   4.351   8.728  0.9539 -0.6936  0.1778
   12CHL1   H25  880   4.346   4.373   8.737  0.9198 -0.6718 -0.2686
   12CHL1   C26  881   4.527   4.425   8.609 -0.5626 -0.8416 -0.0003
   12CHL1  H26A  882   4.513   4.535   8.615  2.6013 -0.3344 -0.6816
   12CHL1  H26B  883   4.636   4.407   8.618 -0.8535 -1.2745  3.1605
   12CHL1  H26C  884   4.497   4.392   8.508  1.9459  3.2450 -2.2329
   12CHL1   C27  885   4.458   4.201   8.714 -0.0554  0.7302  0.2583
   12CHL1  H27A  886   4.485   4.158   8.813  2.5807  0.5458 -0.5051
   12CHL1  H27B  887   4.360   4.163   8.676 -0.7153  1.5304  1.1566
   12CHL1  H27C  888   4.552   4.173   8.661  0.6308 -0.3507  1.9843
   13CHL1    C3  889   3.257   6.568   9.928 -0.4155 -0.2649  0.1835
   13CHL1    H3  890   3.302   6.473   9.964  0.4093 -0.0729 -0.3129
   13CHL1    O3  891   3.284   6.670  10.017 -0.3038  0.0741  0.6047
   13CHL1   H3'  892   3.232   6.643  10.094 -1.0232 -1.5832 -0.4336
   13CHL1    C4  893   3.314   6.602   9.788 -0.4389  0.6356  0.2126
   13CHL1   H4A  894   3.299   6.707   9.757 -1.0917  0.7833  1.0197
   13CHL1   H4B  895   3.424   6.606   9.799 -0.1861 -4.2745  0.7721
   13CHL1    C5  896   3.269   6.512   9.678 -0.0368 -0.2141 -0.4408
   13CHL1    C6  897   3.347   6.448   9.597 -0.6790  0.1061  0.5034
   13CHL1    H6  898   3.455   6.465   9.606 -0.7463  1.0774 -0.4676
   13CHL1    C7  899   3.301   6.350   9.493  0.1478 -0.6976  0.5239
   13CHL1   H7A  900   3.358   6.372   9.400  0.2850 -0.2922  0.7039
   13CHL1   H7B  901   3.327   6.247   9.525  0.4387 -0.2635  1.6949
   13CHL1    C8  902   3.147   6.356   9.457  0.4590  0.5492 -0.0355
   13CHL1    H8  903   3.140   6.449   9.397 -0.2871  1.5869  1.5980
   13CHL1   C14  904   3.092   6.234   9.381 -0.4496 -0.2272  0.7680
   13CHL1   H14  905   3.093   6.155   9.459 -1.1914  0.3174  1.3377
   13CHL1   C15  906   3.182   6.196   9.265  0.0921  1.1242 -0.3268
   13CHL1  H15A  907   3.213   6.285   9.206 -0.0873  1.3745 -0.0388
   13CHL1  H15B  908   3.264   6.131   9.303 -0.9290 -0.4691 -0.7809
   13CHL1   C16  909   3.086   6.099   9.192 -0.9008  0.5923  0.0496
   13CHL1  H16A  910   3.078   6.131   9.086  0.7943 -2.8570 -1.2098
   13CHL1  H16B  911   3.120   5.994   9.204  3.9831  2.1920  1.4587
   13CHL1   C17  912   2.942   6.117   9.257  0.4346 -0.6495 -0.3173
   13CHL1   H17  913   2.925   6.033   9.327 -0.4892 -1.5815 -1.6233
   13CHL1   C13  914   2.945   6.247   9.333 -0.5984  0.2876  0.3080
   13CHL1   C18  915   2.937   6.365   9.227 -0.1692  1.2491  0.1798
   13CHL1  H18A  916   2.832   6.377   9.191 -0.7702 -0.3273  1.3426
   13CHL1  H18B  917   2.962   6.462   9.276 -1.5653  0.4320  2.5962
   13CHL1  H18C  918   3.006   6.342   9.144 -0.4404 -1.3301  0.6317
   13CHL1   C12  919   2.857   6.259   9.453 -0.3376  0.1122 -0.4705
   13CHL1  H12A  920   2.760   6.288   9.408  0.5194  1.2003 -1.6359
   13CHL1  H12B  921   2.857   6.160   9.505  2.5136  0.6952  0.7493
   13CHL1   C11  922   2.913   6.373   9.541 -0.2220 -0.5921 -0.2124
   13CHL1  H11A  923   2.899   6.466   9.483 -1.1576 -0.7437 -0.2321
   13CHL1  H11B  924   2.858   6.369   9.637 -0.2032  0.2569 -0.1654
   13CHL1    C9  925   3.061   6.373   9.583  0.7352  0.2648  1.1401
   13CHL1    H9  926   3.078   6.281   9.643  3.8878 -0.5928 -0.9280
   13CHL1   C10  927   3.113   6.489   9.674  0.7160  0.0118 -0.5716
   13CHL1   C19  928   3.058   6.625   9.631 -0.5170 -0.7531  0.7238
   13CHL1  H19A  929   2.947   6.628   9.619 -0.6334  4.8885  1.5301
   13CHL1  H19B  930   3.083   6.712   9.695  0.5460  0.0038 -0.6944
   13CHL1  H19C  931   3.106   6.653   9.535 -2.4240  0.6486  0.1362
   13CHL1    C1  932   3.071   6.443   9.821  0.8335 -0.3281  0.0592
   13CHL1   H1A  933   2.961   6.431   9.828  1.0322 -2.0009  0.4627
   13CHL1   H1B  934   3.126   6.349   9.843  0.7141 -0.4813 -0.3021
   13CHL1    C2  935   3.108   6.541   9.923  0.5790 -0.5080  0.1910
   13CHL1   H2A  936   3.074   6.510  10.024  0.0493  2.8443  1.1166
   13CHL1   H2B  937   3.057   6.638   9.905  1.0928 -0.4716 -1.1936
   13CHL1   C20  938   2.838   6.100   9.153 -0.1107  0.1221 -0.3225
   13CHL1   H20  939   2.839   6.178   9.074  0.0839 -0.1217 -0.5612
   13CHL1   C21  940   2.691   6.116   9.214 -0.4172  0.4839 -0.5463
   13CHL1  H21A  941   2.605   6.091   9.148 -0.0598  1.6234 -1.4650
   13CHL1  H21B  942   2.683   6.225   9.235 -0.7184  0.1265  1.2396
   13CHL1  H21C  943   2.676   6.069   9.313 -1.5500  0.5246 -0.6847
   13CHL1   C22  944   2.856   5.950   9.090  0.6015 -0.7105  0.8210
   13CHL1  H22A  945   2.966   5.932   9.087  1.0909  2.3141 -1.9714
   13CHL1  H22B  946   2.814   5.880   9.165 -0.5778 -0.4856  0.3734
   13CHL1   C23  947   2.794   5.937   8.946  0.3841 -0.6008  0.5638
   13CHL1  H23A  948   2.688   5.973   8.951  0.6614  0.6137 -1.4730
   13CHL1  H23B  949   2.854   6.001   8.878 -1.2744  2.0772  1.5307
   13CHL1   C24  950   2.802   5.799   8.877 -0.3501  0.0301  0.2851
   13CHL1  H24A  951   2.897   5.756   8.914  0.2520  1.0475 -0.0671
   13CHL1  H24B  952   2.715   5.734   8.904  1.4010 -2.1000  0.9059
   13CHL1   C25  953   2.799   5.794   8.726  0.1500 -0.2563 -0.4843
   13CHL1   H25  954   2.877   5.863   8.688  0.4654 -0.8057 -0.8370
   13CHL1   C26  955   2.839   5.649   8.678  0.1728 -0.6712  0.6838
   13CHL1  H26A  956   2.756   5.576   8.687 -0.1385 -0.4077  0.0006
   13CHL1  H26B  957   2.879   5.659   8.575 -1.1929 -2.2495 -0.0030
   13CHL1  H26C  958   2.922   5.608   8.740 -0.2207 -3.0926 -0.3709
   13CHL1   C27  959   2.665   5.838   8.670 -0.0926  0.3171  0.6079
   13CHL1  H27A  960   2.593   5.760   8.702  1.4576 -1.6294 -0.5244
   13CHL1  H27B  961   2.640   5.940   8.705 -2.3381  1.0021 -2.7284
   13CHL1  H27C  962   2.669   5.848   8.559 -0.5846  3.9584  0.8624
   14CHL1    C3  963   3.144   2.957  10.407  0.6743  0.2876 -0.5509
   14CHL1    H3  964   3.242   2.922  10.368 -0.3101 -0.9883 -1.9264
   14CHL1    O3  965   3.134   2.939  10.542  0.3260  0.3666 -0.1015
   14CHL1   H3'  966   3.207   2.992  10.575  1.2383 -1.1725  0.4050
   14CHL1    C4  967   3.118   3.107  10.378 -0.1549  0.3479 -0.1910
   14CHL1   H4A  968   3.012   3.130  10.404 -0.7108 -0.3274 -1.8084
   14CHL1   H4B  969   3.195   3.160  10.439  2.4967 -3.2651 -0.2893
   14CHL1    C5  970   3.138   3.128  10.229 -0.4950  0.1131  0.3640
   14CHL1    C6  971   3.215   3.231  10.176  0.1576  0.0270  1.0795
   14CHL1    H6  972   3.280   3.284  10.247  4.2514 -0.6158 -2.0082
   14CHL1    C7  973   3.217   3.256  10.025 -0.3323 -0.0668 -0.5302
   14CHL1   H7A  974   3.204   3.363   9.999  0.0648  0.4140  1.1905
   14CHL1   H7B  975   3.316   3.223   9.987 -0.9338 -0.8267 -1.4477
   14CHL1    C8  976   3.114   3.183   9.944 -0.0041 -0.2610  0.0730
   14CHL1    H8  977   3.020   3.238   9.967  0.0351 -0.0607 -0.2357
   14CHL1   C14  978   3.155   3.183   9.797 -0.0195  0.0710 -0.4782
   14CHL1   H14  979   3.247   3.121   9.786  0.5885  1.0470 -0.9013
   14CHL1   C15  980   3.185   3.315   9.738 -0.6601  0.5041 -0.0651
   14CHL1  H15A  981   3.121   3.383   9.798  0.6503  0.5015  1.3538
   14CHL1  H15B  982   3.291   3.342   9.754 -0.7024 -0.6576  2.3882
   14CHL1   C16  983   3.149   3.297   9.590  0.1377 -0.4359 -0.7002
   14CHL1  H16A  984   3.064   3.363   9.562  0.6377  0.4151 -0.2417
   14CHL1  H16B  985   3.237   3.318   9.525 -1.0294 -0.2167 -2.2165
   14CHL1   C17  986   3.107   3.154   9.573 -0.1472  0.7652 -1.8179
   14CHL1   H17  987   3.199   3.093   9.556 -1.0657 -0.9316 -0.8684
   14CHL1   C13  988   3.050   3.112   9.709  0.2604  0.8286  0.1973
   14CHL1   C18  989   2.910   3.174   9.723 -0.5449 -0.0153 -0.3002
   14CHL1  H18A  990   2.843   3.121   9.651 -1.6512  0.7619  0.1560
   14CHL1  H18B  991   2.862   3.157   9.822 -0.0817 -0.2742 -0.1174
   14CHL1  H18C  992   2.908   3.284   9.709 -0.2492  0.0543  0.2132
   14CHL1   C12  993   3.049   2.957   9.745  0.2893 -0.1444  0.7079
   14CHL1  H12A  994   2.976   2.893   9.692 -0.0820 -0.9881  2.1896
   14CHL1  H12B  995   3.152   2.920   9.726  0.4132  0.0580  0.9845
   14CHL1   C11  996   3.026   2.944   9.897  0.0008  0.3060  0.3073
   14CHL1  H11A  997   2.919   2.970   9.917  0.5184  1.2877  1.8696
   14CHL1  H11B  998   3.031   2.839   9.932 -1.0798  0.4795  1.0289
   14CHL1    C9  999   3.101   3.039   9.998  0.0782  0.4006 -0.1483
   14CHL1    H9 1000   3.203   2.994  10.000  0.4743  1.3068  0.4309
   14CHL1   C10 1001   3.046   3.032  10.145  0.1214 -0.6918  0.1580
   14CHL1   C19 1002   2.895   3.079  10.149  0.3052 -0.2756 -0.0987
   14CHL1  H19A 1003   2.826   2.998  10.119  0.4066 -0.2162 -0.4880
   14CHL1  H19B 1004   2.857   3.082  10.254 -1.2990 -1.3396 -0.6460
   14CHL1  H19C 1005   2.875   3.170  10.089 -3.1158 -1.2774 -0.5433
   14CHL1    C1 1006   3.043   2.883  10.191 -0.6942 -0.9130  0.1613
   14CHL1   H1A 1007   2.962   2.821  10.146 -0.1793  0.0069 -2.1031
   14CHL1   H1B 1008   3.145   2.843  10.171  0.0077  0.5203  0.7792
   14CHL1    C2 1009   3.031   2.870  10.347 -1.1646 -0.5024  0.2719
   14CHL1   H2A 1010   3.046   2.765  10.380 -0.0161 -0.2113  0.7065
   14CHL1   H2B 1011   2.935   2.913  10.382 -0.7301  0.9483 -0.2782
   14CHL1   C20 1012   3.017   3.136   9.442  0.0191 -0.2200 -0.9014
   14CHL1   H20 1013   2.927   3.198   9.463  0.1397  0.0941 -1.2855
   14CHL1   C21 1014   2.966   2.991   9.431  0.0971  0.2885 -0.3541
   14CHL1  H21A 1015   3.049   2.919   9.439  0.1242  0.4140  0.5871
   14CHL1  H21B 1016   2.921   2.985   9.330 -0.2648 -1.3328 -0.1077
   14CHL1  H21C 1017   2.893   2.962   9.510  0.4484 -0.9080 -0.4694
   14CHL1   C22 1018   3.088   3.201   9.316  0.7877  0.9006 -0.2353
   14CHL1  H22A 1019   3.025   3.209   9.224  0.9867 -1.6722 -0.6371
   14CHL1  H22B 1020   3.121   3.305   9.336 -2.6845  1.8206  0.9533
   14CHL1   C23 1021   3.205   3.113   9.270 -0.1546  0.4023 -0.1111
   14CHL1  H23A 1022   3.280   3.101   9.351 -0.5072  1.4356  0.3783
   14CHL1  H23B 1023   3.174   3.008   9.255  0.5658  0.4480 -2.1303
   14CHL1   C24 1024   3.262   3.167   9.141  0.4902  0.0137  0.3001
   14CHL1  H24A 1025   3.178   3.164   9.068 -1.6095 -1.3651  2.6485
   14CHL1  H24B 1026   3.296   3.271   9.160 -0.4470  0.1992  1.0193
   14CHL1   C25 1027   3.377   3.087   9.084 -0.7161  0.3692 -0.2050
   14CHL1   H25 1028   3.431   3.053   9.174  0.3315  1.3279 -0.4600
   14CHL1   C26 1029   3.330   2.960   9.013  0.1170  0.3173  0.1444
   14CHL1  H26A 1030   3.421   2.899   8.991 -0.2276 -0.5855  1.1554
   14CHL1  H26B 1031   3.272   2.899   9.086  0.7234  0.3104  0.6287
   14CHL1  H26C 1032   3.265   2.979   8.925  1.0008  0.8166 -0.4148
   14CHL1   C27 1033   3.468   3.180   9.007  0.1617 -0.1711 -0.0157
   14CHL1  H27A 1034   3.496   3.263   9.074 -1.6576  1.4289 -1.1836
   14CHL1  H27B 1035   3.551   3.113   8.976 -0.3207 -1.0995  0.6730
   14CHL1  H27C 1036   3.426   3.213   8.909  2.2828  0.1523 -0.8293
   15CHL1    C3 1037   2.925   2.062  10.195  0.4397 -0.7189  0.1779
   15CHL1    H3 1038   2.997   1.991  10.241  0.8036  0.3454  1.2947
   15CHL1    O3 1039   2.838   2.112  10.296 -0.7608 -0.2829  0.5951
   15CHL1   H3' 1040   2.781   2.185  10.270  0.3770 -0.1749 -1.6471
   15CHL1    C4 1041   3.001   2.184  10.126 -0.3177 -0.2986 -0.1100
   15CHL1   H4A 1042   2.924   2.259  10.099  1.5206  1.5085 -0.4262
   15CHL1   H4B 1043   3.067   2.237  10.198 -0.8533  0.9077 -0.5042
   15CHL1    C5 1044   3.086   2.139  10.012  0.1517 -0.2273  1.0135
   15CHL1    C6 1045   3.213   2.165  10.001  0.3393  0.1178 -0.1249
   15CHL1    H6 1046   3.256   2.233  10.076 -2.2718  1.6167  0.0775
   15CHL1    C7 1047   3.296   2.150   9.883  0.2616 -0.2911  0.8409
   15CHL1   H7A 1048   3.368   2.233   9.870  0.8799 -1.1114 -1.3500
   15CHL1   H7B 1049   3.357   2.059   9.904 -1.2124 -1.7902 -1.0840
   15CHL1    C8 1050   3.212   2.110   9.755  0.5489  0.2656 -0.3229
   15CHL1    H8 1051   3.168   2.204   9.714 -0.0629 -0.7644 -2.0539
   15CHL1   C14 1052   3.299   2.061   9.639  0.2502  0.3164  0.6578
   15CHL1   H14 1053   3.341   1.961   9.665 -1.1439 -0.7709 -1.2126
   15CHL1   C15 1054   3.408   2.153   9.596  0.3416  0.0462  0.1985
   15CHL1  H15A 1055   3.368   2.253   9.569  1.2664  0.2182 -0.5364
   15CHL1  H15B 1056   3.483   2.171   9.676  2.2449  2.3875 -2.0373
   15CHL1   C16 1057   3.461   2.082   9.473  0.2241 -0.8054  0.1301
   15CHL1  H16A 1058   3.499   2.156   9.399  0.4905 -2.6401 -1.5977
   15CHL1  H16B 1059   3.538   2.008   9.502 -1.7849 -2.3268  1.7316
   15CHL1   C17 1060   3.341   1.996   9.415 -0.4648 -0.2168  0.0728
   15CHL1   H17 1061   3.373   1.892   9.438 -0.2328 -0.4242 -1.1652
   15CHL1   C13 1062   3.227   2.023   9.511 -0.4913  0.4112 -0.8069
   15CHL1   C18 1063   3.149   2.141   9.452 -0.0264  0.6140  0.3296
   15CHL1  H18A 1064   3.070   2.192   9.511 -1.8001 -1.9033  0.2406
   15CHL1  H18B 1065   3.221   2.223   9.430  1.2273 -0.9564 -1.6081
   15CHL1  H18C 1066   3.101   2.111   9.356  1.3327 -0.8965  0.1046
   15CHL1   C12 1067   3.130   1.903   9.545  0.3897  0.3005  0.7722
   15CHL1  H12A 1068   3.061   1.869   9.465  0.9181 -0.2244  0.5265
   15CHL1  H12B 1069   3.196   1.814   9.560 -0.9860 -0.7851  0.5438
   15CHL1   C11 1070   3.038   1.940   9.669  0.6749  0.7179  0.2586
   15CHL1  H11A 1071   2.966   2.009   9.620  2.2408  1.4103 -1.1197
   15CHL1  H11B 1072   2.989   1.843   9.691  0.9181  0.5648  0.1225
   15CHL1    C9 1073   3.108   2.007   9.795  0.7379 -0.0067  0.6522
   15CHL1    H9 1074   3.167   1.927   9.845  1.0086 -0.1609  0.0903
   15CHL1   C10 1075   3.010   2.067   9.903 -0.2903  0.3344  0.3937
   15CHL1   C19 1076   2.924   2.169   9.826  0.5005  0.6243  0.4946
   15CHL1  H19A 1077   2.858   2.223   9.897  1.1597 -0.8596  2.2816
   15CHL1  H19B 1078   2.978   2.248   9.771 -3.3778  2.9177 -0.2137
   15CHL1  H19C 1079   2.869   2.124   9.741 -1.4125  1.2101  1.3958
   15CHL1    C1 1080   2.928   1.947   9.969  0.1023 -0.0273  0.4178
   15CHL1   H1A 1081   2.867   1.888   9.897  1.0897 -0.4922 -0.0394
   15CHL1   H1B 1082   3.011   1.890  10.016 -0.9526 -2.1620 -0.2521
   15CHL1    C2 1083   2.838   1.988  10.091  0.3526  0.0125 -0.1742
   15CHL1   H2A 1084   2.782   1.901  10.132  1.0694 -0.3361  0.0650
   15CHL1   H2B 1085   2.753   2.050  10.056 -1.5598 -1.1272  2.2868
   15CHL1   C20 1086   3.315   2.003   9.262 -0.6520 -0.0397 -0.1285
   15CHL1   H20 1087   3.297   2.112   9.252  1.4187  0.3757  0.3173
   15CHL1   C21 1088   3.203   1.915   9.223 -0.4793  0.0209  0.0444
   15CHL1  H21A 1089   3.186   1.905   9.114  0.4542 -0.7412 -0.0381
   15CHL1  H21B 1090   3.103   1.936   9.268 -0.8373  0.1639 -0.8041
   15CHL1  H21C 1091   3.221   1.808   9.246  2.5358  0.9970  2.5399
   15CHL1   C22 1092   3.444   1.967   9.190 -0.0037 -0.2554 -0.2380
   15CHL1  H22A 1093   3.537   2.008   9.233 -0.7751  3.3854 -1.8327
   15CHL1  H22B 1094   3.464   1.858   9.186 -0.7124 -0.4013  0.0220
   15CHL1   C23 1095   3.434   2.037   9.052  0.0447 -0.0270  0.2175
   15CHL1  H23A 1096   3.365   1.978   8.987  0.6090  0.8146 -1.1581
   15CHL1  H23B 1097   3.393   2.140   9.051 -0.1390 -0.1015  0.0715
   15CHL1   C24 1098   3.572   2.047   8.972  0.0652  0.0075  0.0641
   15CHL1  H24A 1099   3.664   2.085   9.023  0.9870  0.6743 -2.0220
   15CHL1  H24B 1100   3.606   1.947   8.938 -1.4172  0.2741 -2.3127
   15CHL1   C25 1101   3.559   2.138   8.854  0.0904 -0.6377 -0.0049
   15CHL1   H25 1102   3.570   2.244   8.886 -1.6208 -0.2302 -0.6979
   15CHL1   C26 1103   3.678   2.107   8.753  0.4455  0.2698  0.6092
   15CHL1  H26A 1104   3.671   2.002   8.719 -1.8875  0.4908  0.3131
   15CHL1  H26B 1105   3.657   2.172   8.665 -0.4303 -4.5585 -2.9517
   15CHL1  H26C 1106   3.783   2.117   8.789  1.0209 -2.5308 -0.2271
   15CHL1   C27 1107   3.427   2.139   8.775 -0.3582 -0.1385  0.3638
   15CHL1  H27A 1108   3.403   2.039   8.732  0.4617 -0.9358  1.7188
   15CHL1  H27B 1109   3.336   2.174   8.828 -1.3109 -2.9788  0.6729
   15CHL1  H27C 1110   3.431   2.211   8.690 -0.8961 -1.3633 -0.7191
   16CHL1    C3 1111   3.922   2.134  10.144  0.1505 -0.5491  0.2358
   16CHL1    H3 1112   3.963   2.238  10.145 -1.0636 -0.0578 -0.1707
   16CHL1    O3 1113   3.908   2.082  10.280 -0.4011  0.2850 -0.1938
   16CHL1   H3' 1114   3.815   2.096  10.300 -0.1799 -0.0552  1.0858
   16CHL1    C4 1115   3.791   2.138  10.067  0.3520  0.4025 -0.0621
   16CHL1   H4A 1116   3.751   2.035  10.059 -1.5040  0.8364  2.8197
   16CHL1   H4B 1117   3.715   2.199  10.120 -0.4126 -0.1705 -0.4875
   16CHL1    C5 1118   3.808   2.181   9.921  0.0864  0.1994  0.1863
   16CHL1    C6 1119   3.742   2.294   9.876  0.1413  0.1099 -0.2031
   16CHL1    H6 1120   3.661   2.341   9.934 -0.7178  0.2550 -1.5046
   16CHL1    C7 1121   3.767   2.347   9.735 -0.2277 -0.1234  0.9905
   16CHL1   H7A 1122   3.669   2.377   9.691 -2.0091 -1.5841  3.7995
   16CHL1   H7B 1123   3.833   2.436   9.729 -0.8568  0.1962 -1.6020
   16CHL1    C8 1124   3.836   2.236   9.642 -0.0145  0.0353  0.4710
   16CHL1    H8 1125   3.759   2.157   9.631  0.0205 -0.0533  0.8432
   16CHL1   C14 1126   3.864   2.300   9.507 -0.6089  0.2831 -0.4769
   16CHL1   H14 1127   3.950   2.368   9.523 -0.4404  0.2272 -1.1110
   16CHL1   C15 1128   3.762   2.384   9.433 -0.1308 -0.0267 -0.3174
   16CHL1  H15A 1129   3.664   2.332   9.440 -0.0549 -0.2314 -0.7854
   16CHL1  H15B 1130   3.754   2.489   9.469 -0.5990 -0.1108 -0.1732
   16CHL1   C16 1131   3.803   2.382   9.285 -0.2049 -0.5032 -0.6456
   16CHL1  H16A 1132   3.726   2.335   9.220 -1.1857  0.1479  0.0506
   16CHL1  H16B 1133   3.834   2.482   9.247  1.0029 -0.7068 -0.2221
   16CHL1   C17 1134   3.929   2.293   9.280 -0.0946  0.2065  0.1663
   16CHL1   H17 1135   4.018   2.352   9.310  1.8308 -2.3787 -0.2886
   16CHL1   C13 1136   3.918   2.201   9.402 -0.3668  0.4915  0.1184
   16CHL1   C18 1137   3.821   2.082   9.378 -0.6061 -0.3756  0.0107
   16CHL1  H18A 1138   3.727   2.124   9.337 -0.5586 -0.0266  0.2664
   16CHL1  H18B 1139   3.857   2.021   9.292 -1.4950 -1.0386  0.1022
   16CHL1  H18C 1140   3.798   2.023   9.469  0.6748  1.3994  1.5266
   16CHL1   C12 1141   4.048   2.144   9.463  0.1448  0.2744  0.0147
   16CHL1  H12A 1142   4.084   2.069   9.389 -1.2584 -0.5152  0.1285
   16CHL1  H12B 1143   4.123   2.226   9.470  2.0018 -1.5767  2.6564
   16CHL1   C11 1144   4.039   2.089   9.611  0.4106  0.4483  0.2507
   16CHL1  H11A 1145   3.985   1.993   9.598  0.8254  0.4236 -1.3421
   16CHL1  H11B 1146   4.142   2.077   9.651 -0.1718 -2.1807  1.0804
   16CHL1    C9 1147   3.959   2.180   9.710  0.5723  0.9142  0.0610
   16CHL1    H9 1148   4.030   2.260   9.737  1.2673 -0.1905  1.5430
   16CHL1   C10 1149   3.917   2.115   9.843 -0.3312  0.4538  0.4266
   16CHL1   C19 1150   3.852   1.975   9.809  0.1596  0.1593  0.4921
   16CHL1  H19A 1151   3.812   1.924   9.899  0.2372  1.3813  1.2343
   16CHL1  H19B 1152   3.769   1.982   9.736 -0.6834  1.8471  1.5765
   16CHL1  H19C 1153   3.928   1.898   9.783 -0.5133  0.5823 -2.9290
   16CHL1    C1 1154   4.043   2.090   9.925 -0.0306  0.0776  0.3543
   16CHL1   H1A 1155   4.112   2.022   9.871 -0.5272 -0.2791  0.1658
   16CHL1   H1B 1156   4.095   2.188   9.930 -0.8539  0.5036  0.6990
   16CHL1    C2 1157   4.022   2.045  10.069  0.3274  0.5845  0.3135
   16CHL1   H2A 1158   4.120   2.042  10.122  0.2664  0.7067  0.4327
   16CHL1   H2B 1159   3.971   1.947  10.073 -1.3635  1.5057  2.0782
   16CHL1   C20 1160   3.966   2.235   9.138  0.1808 -0.4300 -0.5800
   16CHL1   H20 1161   3.910   2.140   9.122  0.6193 -1.0135  1.2418
   16CHL1   C21 1162   4.111   2.192   9.133 -0.2922 -0.1251  0.1915
   16CHL1  H21A 1163   4.182   2.273   9.159 -0.2544 -0.2117  0.3582
   16CHL1  H21B 1164   4.138   2.167   9.028  0.3863  3.8648 -0.6668
   16CHL1  H21C 1165   4.134   2.100   9.191 -1.9773 -0.1009  0.9487
   16CHL1   C22 1166   3.940   2.344   9.025 -0.7868 -0.3764 -0.2321
   16CHL1  H22A 1167   3.830   2.363   9.023 -1.0078 -1.7152 -1.3345
   16CHL1  H22B 1168   3.982   2.445   9.045  1.4273 -0.7751 -2.6382
   16CHL1   C23 1169   3.991   2.300   8.887 -0.3730  0.5449  0.6142
   16CHL1  H23A 1170   4.102   2.304   8.885 -0.2655 -1.7286 -0.5863
   16CHL1  H23B 1171   3.958   2.197   8.859  0.2559  0.7335 -0.8999
   16CHL1   C24 1172   3.951   2.405   8.779  0.6802  0.4077  0.0178
   16CHL1  H24A 1173   3.848   2.431   8.811 -0.8047 -1.1213 -3.2686
   16CHL1  H24B 1174   4.012   2.498   8.782  0.9175  0.3288 -1.9023
   16CHL1   C25 1175   3.937   2.361   8.636 -0.3239 -0.1576  0.5331
   16CHL1   H25 1176   3.873   2.270   8.637 -1.8304  0.8325 -1.8139
   16CHL1   C26 1177   3.882   2.479   8.551 -0.2558 -0.0130 -0.4711
   16CHL1  H26A 1178   3.968   2.545   8.527  1.9262 -2.4902  0.2192
   16CHL1  H26B 1179   3.839   2.443   8.455  2.3287 -0.1752 -1.6147
   16CHL1  H26C 1180   3.800   2.525   8.610 -0.0991  0.2837 -0.4860
   16CHL1   C27 1181   4.074   2.327   8.583  0.3436 -0.0703  0.7742
   16CHL1  H27A 1182   4.061   2.282   8.483 -1.5230  0.9904  0.5083
   16CHL1  H27B 1183   4.126   2.423   8.561 -0.4522 -0.2858 -2.2681
   16CHL1  H27C 1184   4.133   2.258   8.647 -0.4865 -0.9503  0.6066
   17CHL1    C3 1185   6.054   5.921  10.391  0.0422 -0.9372  0.4358
   17CHL1    H3 1186   6.123   5.837  10.369  1.4128  0.8648 -2.3613
   17CHL1    O3 1187   6.039   5.930  10.534 -0.6931  0.8129 -0.4154
   17CHL1   H3' 1188   6.125   5.918  10.574 -1.1391  0.6992  0.5248
   17CHL1    C4 1189   6.121   6.051  10.337  0.0206 -0.2522  0.1520
   17CHL1   H4A 1190   6.082   6.140  10.391 -1.6429 -1.5811  1.1947
   17CHL1   H4B 1191   6.223   6.035  10.378 -0.4391 -0.7877  1.0949
   17CHL1    C5 1192   6.118   6.066  10.194 -0.0698  0.1127 -0.1501
   17CHL1    C6 1193   6.229   6.098  10.129 -0.2109  0.5730 -0.6037
   17CHL1    H6 1194   6.326   6.113  10.179  1.2556 -0.1019 -3.1695
   17CHL1    C7 1195   6.236   6.109   9.980 -0.2846  0.1745 -0.1587
   17CHL1   H7A 1196   6.292   6.204   9.963  1.0704 -0.7576 -1.0209
   17CHL1   H7B 1197   6.298   6.031   9.930  1.7178  1.2474  0.5943
   17CHL1    C8 1198   6.094   6.130   9.922  0.4593 -0.0610 -0.1343
   17CHL1    H8 1199   6.047   6.230   9.938 -0.8902 -0.7820  0.4448
   17CHL1   C14 1200   6.098   6.123   9.770 -0.2437  1.0851  0.7220
   17CHL1   H14 1201   6.130   6.020   9.742  1.5805  1.8628 -0.1214
   17CHL1   C15 1202   6.198   6.217   9.705 -0.6916  0.2497 -0.2289
   17CHL1  H15A 1203   6.202   6.318   9.751  1.7681  0.4095 -0.7359
   17CHL1  H15B 1204   6.298   6.172   9.691  0.3822  2.6552 -0.4688
   17CHL1   C16 1205   6.146   6.226   9.556  0.3640 -0.6299  0.2659
   17CHL1  H16A 1206   6.125   6.333   9.534  1.0528 -0.6784 -0.6751
   17CHL1  H16B 1207   6.219   6.173   9.491 -0.2557 -0.5929 -0.4641
   17CHL1   C17 1208   6.013   6.138   9.554 -0.6407  0.3508  0.4331
   17CHL1   H17 1209   6.040   6.032   9.534  0.6875  0.9319 -1.0481
   17CHL1   C13 1210   5.964   6.145   9.697 -0.1001 -0.1418  0.7542
   17CHL1   C18 1211   5.917   6.291   9.717 -0.1385 -0.6965 -0.6768
   17CHL1  H18A 1212   5.823   6.303   9.659  0.2626 -1.3602 -1.4717
   17CHL1  H18B 1213   5.880   6.310   9.820 -1.0336  0.3473 -1.1837
   17CHL1  H18C 1214   5.986   6.373   9.690 -1.1034  0.2084 -0.4522
   17CHL1   C12 1215   5.872   6.036   9.747  0.3178 -0.5330 -0.7604
   17CHL1  H12A 1216   5.770   6.064   9.711  0.0360 -0.3879  0.1494
   17CHL1  H12B 1217   5.893   5.937   9.702 -0.1279 -2.2839  2.7359
   17CHL1   C11 1218   5.862   6.022   9.900 -0.0849  0.5153  0.5684
   17CHL1  H11A 1219   5.794   6.103   9.933 -0.1010  1.7223 -2.2357
   17CHL1  H11B 1220   5.807   5.928   9.923 -1.1098  0.7861 -0.7168
   17CHL1    C9 1221   5.999   6.026   9.975 -0.6951  0.3722  0.1081
   17CHL1    H9 1222   6.046   5.927   9.956 -0.6904  0.1996  0.9990
   17CHL1   C10 1223   5.980   6.039  10.128  0.2574  0.1396 -0.2874
   17CHL1   C19 1224   5.893   6.160  10.164  0.0683 -0.5667  0.3890
   17CHL1  H19A 1225   5.905   6.193  10.270  1.6182  2.1636 -0.5915
   17CHL1  H19B 1226   5.915   6.245  10.096  0.5104 -0.3489  0.7956
   17CHL1  H19C 1227   5.784   6.140  10.150 -0.1153  1.5455 -1.3576
   17CHL1    C1 1228   5.915   5.910  10.182  0.7015 -0.1331  0.9054
   17CHL1   H1A 1229   5.812   5.922  10.141  0.4482 -0.6767  1.3840
   17CHL1   H1B 1230   5.967   5.824  10.135  0.3941  0.3080 -0.2593
   17CHL1    C2 1231   5.914   5.901  10.332  0.0699 -0.2529  0.1910
   17CHL1   H2A 1232   5.869   5.802  10.351  0.2538  0.0333  2.2044
   17CHL1   H2B 1233   5.855   5.983  10.379 -0.1733  0.8060 -1.8972
   17CHL1   C20 1234   5.924   6.181   9.437 -0.1078 -0.6023 -0.2736
   17CHL1   H20 1235   5.878   6.280   9.457 -1.6246 -1.0993 -1.2091
   17CHL1   C21 1236   5.807   6.078   9.414  0.2057  0.5405 -0.6465
   17CHL1  H21A 1237   5.831   5.976   9.377 -0.7613  0.5688 -1.3761
   17CHL1  H21B 1238   5.735   6.117   9.339  0.0194  0.6767 -0.3926
   17CHL1  H21C 1239   5.746   6.073   9.506  0.4654 -3.2464 -0.6060
   17CHL1   C22 1240   5.991   6.184   9.300  0.6462  0.2284 -0.0064
   17CHL1  H22A 1241   6.096   6.160   9.325  0.2281 -0.9952  0.6421
   17CHL1  H22B 1242   5.952   6.106   9.231  0.6478 -0.5593  0.8852
   17CHL1   C23 1243   5.980   6.323   9.237 -0.0218 -0.9821 -0.0965
   17CHL1  H23A 1244   5.874   6.349   9.216 -0.6250 -0.9519  2.8104
   17CHL1  H23B 1245   6.018   6.400   9.307 -0.6129 -1.8509  1.1978
   17CHL1   C24 1246   6.070   6.344   9.115 -0.0711 -0.1029 -0.1734
   17CHL1  H24A 1247   6.057   6.451   9.090  0.8995  0.2152  0.6462
   17CHL1  H24B 1248   6.169   6.343   9.165  0.1801 -0.9612 -0.6915
   17CHL1   C25 1249   6.051   6.248   8.994 -0.8107 -0.4923  0.5136
   17CHL1   H25 1250   6.087   6.147   9.022 -0.1036 -1.4568 -3.5706
   17CHL1   C26 1251   5.911   6.232   8.941 -0.0358  0.3463  0.2065
   17CHL1  H26A 1252   5.901   6.156   8.860 -2.0454  1.9355 -1.1266
   17CHL1  H26B 1253   5.838   6.201   9.018 -1.5382  1.1037 -0.8778
   17CHL1  H26C 1254   5.862   6.325   8.903 -3.1020 -0.9967  0.6871
   17CHL1   C27 1255   6.140   6.292   8.873  0.6986 -0.1626  0.2361
   17CHL1  H27A 1256   6.247   6.290   8.905  1.1764 -1.4739 -1.3480
   17CHL1  H27B 1257   6.135   6.227   8.783 -3.1689  0.1845  0.1150
   17CHL1  H27C 1258   6.102   6.395   8.855 -1.7956 -0.8520  1.3536
   18CHL1    C3 1259   5.434   4.712  10.100  0.8633 -0.2661  0.1382
   18CHL1    H3 1260   5.493   4.797  10.060 -0.1951  1.2757  1.7483
   18CHL1    O3 1261   5.457   4.698  10.239 -0.3645 -0.4984 -0.1073
   18CHL1   H3' 1262   5.538   4.648  10.249  0.1028  0.4786  1.1860
   18CHL1    C4 1263   5.282   4.737  10.093 -0.2779  0.8934 -0.5653
   18CHL1   H4A 1264   5.235   4.650  10.141  1.8291  0.5893  1.0431
   18CHL1   H4B 1265   5.247   4.823  10.155 -0.8482  0.3740 -0.1727
   18CHL1    C5 1266   5.241   4.757   9.947  0.0760  0.2668 -0.0874
   18CHL1    C6 1267   5.179   4.873   9.908 -0.5084 -0.0521 -0.3302
   18CHL1    H6 1268   5.147   4.946   9.984  2.3610 -1.5509  2.4740
   18CHL1    C7 1269   5.127   4.892   9.772  0.6393  0.1679  1.1469
   18CHL1   H7A 1270   5.020   4.920   9.782 -0.1012 -1.6833 -0.9353
   18CHL1   H7B 1271   5.182   4.974   9.721 -1.1388  0.9097  0.3595
   18CHL1    C8 1272   5.119   4.761   9.698 -0.0878 -0.4142 -0.2242
   18CHL1    H8 1273   5.037   4.700   9.743  0.9883 -0.9503  1.0679
   18CHL1   C14 1274   5.088   4.794   9.553  0.8990 -0.4592 -0.0870
   18CHL1   H14 1275   5.171   4.860   9.520  0.7924 -0.4654 -0.3700
   18CHL1   C15 1276   4.972   4.883   9.516  0.4357  0.0570 -0.1879
   18CHL1  H15A 1277   4.875   4.843   9.553 -0.1656  0.3337 -1.4412
   18CHL1  H15B 1278   4.998   4.990   9.530 -0.2576  0.1127  0.7607
   18CHL1   C16 1279   4.940   4.856   9.366 -0.2337 -0.2105 -0.2514
   18CHL1  H16A 1280   4.834   4.822   9.367 -1.0120  2.1233  1.1590
   18CHL1  H16B 1281   4.943   4.954   9.313 -0.2665 -0.0947 -0.0382
   18CHL1   C17 1282   5.045   4.752   9.326 -0.5463 -0.4809 -0.1512
   18CHL1   H17 1283   5.139   4.804   9.297 -0.3899 -1.3199 -1.1577
   18CHL1   C13 1284   5.088   4.681   9.458  0.5261  1.2030  1.1349
   18CHL1   C18 1285   4.985   4.575   9.490  0.3741  0.8700 -0.6547
   18CHL1  H18A 1286   5.007   4.484   9.430  1.0091  1.0490 -0.6920
   18CHL1  H18B 1287   5.001   4.545   9.596 -1.2289  1.2176 -0.2905
   18CHL1  H18C 1288   4.881   4.612   9.472  0.1904  1.2831  1.1405
   18CHL1   C12 1289   5.234   4.626   9.458  1.2142 -1.1328  0.2744
   18CHL1  H12A 1290   5.244   4.537   9.393  0.4698 -0.5170 -0.6851
   18CHL1  H12B 1291   5.306   4.701   9.419 -0.5186  0.6099  0.3872
   18CHL1   C11 1292   5.284   4.587   9.596 -0.0455  0.5159 -0.0641
   18CHL1  H11A 1293   5.214   4.507   9.629 -1.3900  1.8168  0.2933
   18CHL1  H11B 1294   5.387   4.545   9.597 -0.5245 -0.6423  0.8855
   18CHL1    C9 1295   5.255   4.695   9.703 -0.4955 -0.2451  0.8906
   18CHL1    H9 1296   5.327   4.775   9.678  2.2273 -2.7091  0.7024
   18CHL1   C10 1297   5.280   4.637   9.850 -0.0635 -0.8488 -0.1123
   18CHL1   C19 1298   5.197   4.518   9.877  0.1210  0.6087 -0.8317
   18CHL1  H19A 1299   5.218   4.432   9.810 -1.8095 -0.5316 -0.0425
   18CHL1  H19B 1300   5.214   4.482   9.981 -1.3515 -1.0835 -1.1492
   18CHL1  H19C 1301   5.087   4.528   9.863 -0.1723 -0.1290  0.7875
   18CHL1    C1 1302   5.425   4.598   9.870 -0.2272  0.3338 -0.5724
   18CHL1   H1A 1303   5.461   4.510   9.813 -1.6360 -0.2292 -0.6074
   18CHL1   H1B 1304   5.496   4.674   9.830 -1.4448  1.6820 -0.2361
   18CHL1    C2 1305   5.471   4.587  10.024 -0.0704  0.0192 -0.3303
   18CHL1   H2A 1306   5.579   4.562  10.031 -0.4010 -1.0261  1.3122
   18CHL1   H2B 1307   5.416   4.500  10.067  1.6067  0.2492  2.3608
   18CHL1   C20 1308   5.013   4.675   9.197 -0.2416 -0.7195 -0.4608
   18CHL1   H20 1309   4.929   4.602   9.209  1.2766 -2.2629  1.1053
   18CHL1   C21 1310   5.119   4.577   9.168 -0.2648  0.0234 -0.6623
   18CHL1  H21A 1311   5.096   4.485   9.227  1.4277  0.4606  0.7197
   18CHL1  H21B 1312   5.225   4.605   9.182 -0.4196  1.8901 -2.9134
   18CHL1  H21C 1313   5.115   4.536   9.065 -2.2175  2.2474 -1.5212
   18CHL1   C22 1314   4.975   4.757   9.076 -0.1641  0.1788  0.2260
   18CHL1  H22A 1315   4.894   4.828   9.103 -0.6780 -0.3357  0.0371
   18CHL1  H22B 1316   5.062   4.824   9.057  1.0808 -1.1310  1.0888
   18CHL1   C23 1317   4.950   4.678   8.951  0.5505 -0.3664  0.2710
   18CHL1  H23A 1318   5.049   4.650   8.909  1.1453  2.4170 -0.3381
   18CHL1  H23B 1319   4.902   4.582   8.977  0.4742 -0.2148  0.7040
   18CHL1   C24 1320   4.874   4.766   8.843  0.0967 -0.7779 -0.2220
   18CHL1  H24A 1321   4.794   4.821   8.896 -0.9094 -2.2628 -0.1678
   18CHL1  H24B 1322   4.947   4.834   8.794 -0.9747 -1.0984 -2.3199
   18CHL1   C25 1323   4.803   4.691   8.726  0.4380 -0.5765  0.8718
   18CHL1   H25 1324   4.729   4.619   8.767 -1.7030  1.2333  0.3360
   18CHL1   C26 1325   4.725   4.787   8.634  1.3050 -0.2561  1.1720
   18CHL1  H26A 1326   4.667   4.722   8.564  0.4092  0.9861  0.7373
   18CHL1  H26B 1327   4.646   4.845   8.687 -1.3048 -0.2929 -2.4393
   18CHL1  H26C 1328   4.792   4.853   8.576  2.4163 -3.1340 -0.9787
   18CHL1   C27 1329   4.905   4.612   8.641 -0.6151  0.2385  0.0301
   18CHL1  H27A 1330   4.962   4.555   8.717 -3.9085 -1.0853  1.5902
   18CHL1  H27B 1331   4.848   4.541   8.577  1.1916 -0.3943 -0.9459
   18CHL1  H27C 1332   4.967   4.682   8.580  0.0691 -1.6908 -1.5420
   19CHL1    C3 1333   2.314   1.915  10.092 -0.4155 -0.0795  0.4780
   19CHL1    H3 1334   2.285   1.810  10.071 -0.7809  0.5035 -2.1903
   19CHL1    O3 1335   2.271   1.945  10.220  0.2511 -0.0713  0.0217
   19CHL1   H3' 1336   2.309   1.877  10.276  2.8458 -0.9629 -2.6770
   19CHL1    C4 1337   2.464   1.918  10.090  0.0106  0.2651 -0.0160
   19CHL1   H4A 1338   2.508   2.020  10.098  0.6303  0.0938 -1.0534
   19CHL1   H4B 1339   2.509   1.856  10.170  0.5497  0.3282 -0.2609
   19CHL1    C5 1340   2.506   1.873   9.953  0.1661 -0.2327 -0.0536
   19CHL1    C6 1341   2.580   1.764   9.939  0.6532  0.0097  0.1833
   19CHL1    H6 1342   2.614   1.708  10.027  1.1512 -1.5539 -0.9819
   19CHL1    C7 1343   2.627   1.719   9.809 -0.6244 -0.1722  0.2731
   19CHL1   H7A 1344   2.730   1.677   9.803 -1.4872 -2.2936 -0.3846
   19CHL1   H7B 1345   2.560   1.631   9.794 -2.6153  1.5032 -0.8138
   19CHL1    C8 1346   2.616   1.821   9.693 -0.3868  0.4243  0.2509
   19CHL1    H8 1347   2.690   1.902   9.711 -0.4412  0.9752 -1.7906
   19CHL1   C14 1348   2.631   1.753   9.555 -0.6131 -0.1629  0.8833
   19CHL1   H14 1349   2.547   1.681   9.549 -1.8427  1.2574  0.7201
   19CHL1   C15 1350   2.764   1.668   9.532 -0.7844 -0.4386 -0.1238
   19CHL1  H15A 1351   2.850   1.730   9.566 -0.2226 -2.2772  1.9706
   19CHL1  H15B 1352   2.777   1.572   9.585  1.9243  0.7128  1.4221
   19CHL1   C16 1353   2.765   1.670   9.377  0.2728 -0.3118 -0.1948
   19CHL1  H16A 1354   2.862   1.719   9.352 -0.0782  0.0134 -0.9462
   19CHL1  H16B 1355   2.782   1.568   9.336  1.0588 -0.6562  0.9666
   19CHL1   C17 1356   2.641   1.750   9.332 -0.1511  0.8188  0.2531
   19CHL1   H17 1357   2.570   1.664   9.334  1.7510 -0.8420 -1.0541
   19CHL1   C13 1358   2.608   1.849   9.441 -0.3704  0.2664 -0.5606
   19CHL1   C18 1359   2.713   1.960   9.452  0.6935  0.5397 -0.1626
   19CHL1  H18A 1360   2.814   1.918   9.435  0.2439  0.0338 -1.6613
   19CHL1  H18B 1361   2.698   2.027   9.365 -1.7933  0.4983  0.1776
   19CHL1  H18C 1362   2.708   2.020   9.546 -1.5877 -1.4936  1.0914
   19CHL1   C12 1363   2.467   1.903   9.445  0.0648 -0.4195  0.1059
   19CHL1  H12A 1364   2.453   1.974   9.360  0.0089 -1.6401 -0.9151
   19CHL1  H12B 1365   2.399   1.815   9.441 -0.0113 -0.4086  1.1312
   19CHL1   C11 1366   2.438   1.967   9.575 -0.0834 -0.3100  0.4169
   19CHL1  H11A 1367   2.497   2.061   9.572  0.5096 -0.7122 -0.6925
   19CHL1  H11B 1368   2.331   1.995   9.578 -0.2445 -0.9474  0.6762
   19CHL1    C9 1369   2.473   1.883   9.698  0.0301 -0.4389  0.0085
   19CHL1    H9 1370   2.406   1.794   9.694  0.3918 -0.7279  0.5191
   19CHL1   C10 1371   2.448   1.957   9.837  0.2435  0.2993  0.1832
   19CHL1   C19 1372   2.527   2.097   9.830  0.5938 -0.0680  0.0067
   19CHL1  H19A 1373   2.636   2.093   9.810  0.3995 -0.7109 -0.9153
   19CHL1  H19B 1374   2.470   2.168   9.766 -0.7074 -0.9907  0.1235
   19CHL1  H19C 1375   2.512   2.135   9.934  3.7606 -0.8539  0.8077
   19CHL1    C1 1376   2.292   1.969   9.854 -0.6853 -1.0908  0.3755
   19CHL1   H1A 1377   2.252   2.051   9.791  0.6128 -0.5078  0.3023
   19CHL1   H1B 1378   2.248   1.874   9.817 -0.7000 -0.4554 -1.2897
   19CHL1    C2 1379   2.246   2.001   9.995  0.5054  0.5918 -0.8524
   19CHL1   H2A 1380   2.138   2.003  10.019  0.8889 -1.6484  1.2482
   19CHL1   H2B 1381   2.273   2.107  10.015 -0.7259  0.5720  1.0328
   19CHL1   C20 1382   2.651   1.799   9.187 -0.3207 -0.2455 -0.1998
   19CHL1   H20 1383   2.682   1.906   9.195  3.0672 -1.0829 -1.3415
   19CHL1   C21 1384   2.516   1.794   9.115  0.3797  0.0470  0.1443
   19CHL1  H21A 1385   2.432   1.842   9.169  1.1429 -0.2945  1.6700
   19CHL1  H21B 1386   2.468   1.694   9.111  1.0721 -0.2423 -1.2079
   19CHL1  H21C 1387   2.515   1.834   9.011  0.6751  0.1355  0.1725
   19CHL1   C22 1388   2.753   1.738   9.086  0.8294 -0.2419  0.2930
   19CHL1  H22A 1389   2.848   1.721   9.141  0.3214  0.6380  1.4612
   19CHL1  H22B 1390   2.723   1.635   9.056  1.0356 -0.5213  1.0352
   19CHL1   C23 1391   2.798   1.834   8.983  0.1623 -1.2424  0.0564
   19CHL1  H23A 1392   2.718   1.849   8.907 -0.2692  0.4032  0.7983
   19CHL1  H23B 1393   2.807   1.937   9.024 -2.1612  0.1464 -2.7708
   19CHL1   C24 1394   2.923   1.809   8.900 -0.3329  0.2907 -0.0552
   19CHL1  H24A 1395   3.015   1.796   8.961  0.3155  0.8623 -0.8897
   19CHL1  H24B 1396   2.904   1.713   8.848 -1.0497 -1.0945  2.6831
   19CHL1   C25 1397   2.961   1.931   8.810  0.7506 -0.9200 -0.5727
   19CHL1   H25 1398   2.869   1.954   8.753  0.6352 -1.8386 -0.7765
   19CHL1   C26 1399   3.013   2.058   8.880 -0.3970  0.9495  0.5510
   19CHL1  H26A 1400   3.120   2.032   8.892 -0.2355  1.0296 -0.6532
   19CHL1  H26B 1401   3.003   2.146   8.812  2.7000  1.7999  1.1120
   19CHL1  H26C 1402   2.988   2.077   8.987  2.3183 -1.3663  1.6778
   19CHL1   C27 1403   3.072   1.882   8.713 -0.0909 -0.0957 -0.0577
   19CHL1  H27A 1404   3.083   1.962   8.636 -0.0590 -1.0460 -1.0465
   19CHL1  H27B 1405   3.168   1.859   8.763  0.5778 -1.2887 -1.8267
   19CHL1  H27C 1406   3.039   1.787   8.666 -0.8589  0.1768 -0.0770
   20CHL1    C3 1407   4.410   2.151  10.335 -0.2180 -0.1250  0.4818
   20CHL1    H3 1408   4.303   2.163  10.306  0.7435  1.9996 -2.3911
   20CHL1    O3 1409   4.430   2.161  10.471  0.7234 -0.4717  0.6566
   20CHL1   H3' 1410   4.523   2.137  10.463  0.7695  0.2520 -1.0851
   20CHL1    C4 1411   4.466   2.017  10.284 -0.1359  0.1542 -0.2361
   20CHL1   H4A 1412   4.575   2.011  10.303 -0.0253 -1.0393 -1.2305
   20CHL1   H4B 1413   4.425   1.935  10.348  2.5877 -1.3594 -0.3428
   20CHL1    C5 1414   4.453   1.986  10.139 -0.4788  0.3099 -0.7556
   20CHL1    C6 1415   4.397   1.877  10.085  0.3010 -0.3465  0.7343
   20CHL1    H6 1416   4.356   1.794  10.145  0.9779 -1.6005 -0.4845
   20CHL1    C7 1417   4.386   1.848   9.935 -0.0104 -0.3873 -0.9453
   20CHL1   H7A 1418   4.431   1.748   9.916  1.9765 -0.2883  2.7185
   20CHL1   H7B 1419   4.281   1.834   9.903 -0.7490  0.4414  1.0432
   20CHL1    C8 1420   4.458   1.957   9.851 -0.8840  0.1268  0.0536
   20CHL1    H8 1421   4.568   1.943   9.857 -0.4940 -0.0611 -5.2793
   20CHL1   C14 1422   4.429   1.939   9.705 -0.2523 -0.1233 -0.2659
   20CHL1   H14 1423   4.319   1.953   9.708 -0.1939  0.9407 -2.3809
   20CHL1   C15 1424   4.446   1.799   9.642  0.4990 -0.6009  0.3860
   20CHL1  H15A 1425   4.546   1.755   9.660  1.8208  2.6356  1.2793
   20CHL1  H15B 1426   4.374   1.720   9.673 -0.0968  0.1481  0.9215
   20CHL1   C16 1427   4.437   1.819   9.492  0.6328 -0.2806  0.2419
   20CHL1  H16A 1428   4.523   1.781   9.433 -1.6183 -4.1928 -0.7164
   20CHL1  H16B 1429   4.335   1.798   9.452  1.5533 -4.1135 -0.2188
   20CHL1   C17 1430   4.437   1.986   9.475  0.1432 -0.2192  0.3670
   20CHL1   H17 1431   4.332   2.020   9.484 -0.6104 -2.2353 -0.3896
   20CHL1   C13 1432   4.486   2.043   9.608 -0.3321 -0.1335  0.4819
   20CHL1   C18 1433   4.637   2.033   9.609  0.0727 -0.3609 -0.2648
   20CHL1  H18A 1434   4.688   2.046   9.707 -1.6377  2.1567  0.3347
   20CHL1  H18B 1435   4.680   1.939   9.568  2.0768 -0.5170  2.1314
   20CHL1  H18C 1436   4.683   2.120   9.556 -0.7600  0.1489 -0.1617
   20CHL1   C12 1437   4.434   2.180   9.667  0.3163  0.5546 -0.2747
   20CHL1  H12A 1438   4.441   2.266   9.596 -0.1857 -0.0755 -1.0955
   20CHL1  H12B 1439   4.324   2.168   9.674  0.1685  0.8172 -1.9128
   20CHL1   C11 1440   4.487   2.203   9.809  0.5157 -0.5675  0.4894
   20CHL1  H11A 1441   4.597   2.204   9.828 -0.2671 -0.2969  5.6027
   20CHL1  H11B 1442   4.445   2.302   9.836 -1.6687 -1.0511 -1.0665
   20CHL1    C9 1443   4.437   2.097   9.905 -0.2007 -0.2395 -0.4426
   20CHL1    H9 1444   4.327   2.112   9.907 -0.1584  0.0357  0.0831
   20CHL1   C10 1445   4.488   2.110  10.050 -0.5595 -0.6276  0.4456
   20CHL1   C19 1446   4.648   2.107  10.063  0.0289 -0.5954  0.5640
   20CHL1  H19A 1447   4.697   2.103  10.163  0.4137  0.9250  0.4464
   20CHL1  H19B 1448   4.683   2.012  10.017  0.4658  0.1781 -0.7128
   20CHL1  H19C 1449   4.697   2.193  10.014  0.9755 -0.9455  0.8793
   20CHL1    C1 1450   4.437   2.243  10.109 -0.9178 -0.4012 -0.9092
   20CHL1   H1A 1451   4.467   2.330  10.046 -0.3508 -0.9351 -1.3854
   20CHL1   H1B 1452   4.326   2.235  10.103 -1.3048  1.6810  2.0748
   20CHL1    C2 1453   4.468   2.265  10.256 -0.0523  0.8200 -0.8629
   20CHL1   H2A 1454   4.416   2.359  10.282 -1.1095  0.5191 -1.8357
   20CHL1   H2B 1455   4.573   2.287  10.286 -0.5771 -0.9025  2.5098
   20CHL1   C20 1456   4.490   2.035   9.341  0.5473  0.3618  0.6866
   20CHL1   H20 1457   4.595   2.000   9.327  0.6004  0.1869  1.5077
   20CHL1   C21 1458   4.481   2.190   9.333 -0.5473  0.4450 -0.0068
   20CHL1  H21A 1459   4.373   2.212   9.329 -1.1643 -2.4256 -0.1539
   20CHL1  H21B 1460   4.532   2.222   9.239  0.7945  2.8748  1.4955
   20CHL1  H21C 1461   4.525   2.241   9.421 -1.3919  1.6195 -0.2575
   20CHL1   C22 1462   4.422   1.970   9.225 -0.5911 -0.1568 -0.2262
   20CHL1  H22A 1463   4.451   1.863   9.216 -2.8583 -0.7245 -1.2549
   20CHL1  H22B 1464   4.312   1.978   9.240 -0.6740 -0.2606 -0.7561
   20CHL1   C23 1465   4.458   2.028   9.087 -0.1898 -0.5065  0.1357
   20CHL1  H23A 1466   4.446   2.138   9.080 -0.5824 -0.5420  0.2390
   20CHL1  H23B 1467   4.567   2.019   9.068 -0.3584 -1.7543 -0.2318
   20CHL1   C24 1468   4.384   1.967   8.972 -0.1239  0.1191  0.3574
   20CHL1  H24A 1469   4.380   1.857   8.964  1.8184 -0.1045  2.0241
   20CHL1  H24B 1470   4.281   1.989   9.007 -0.5124  3.8338 -2.7358
   20CHL1   C25 1471   4.418   2.048   8.844  0.2965  0.5150 -0.4773
   20CHL1   H25 1472   4.420   2.157   8.866  0.2835  0.2716  0.7399
   20CHL1   C26 1473   4.554   2.021   8.777  0.0056  0.1410  0.8458
   20CHL1  H26A 1474   4.645   2.064   8.823  1.2953 -0.5266 -1.0111
   20CHL1  H26B 1475   4.557   1.911   8.758 -0.8257 -0.3442  3.3406
   20CHL1  H26C 1476   4.546   2.070   8.678  1.7129  0.6527  0.9370
   20CHL1   C27 1477   4.300   2.031   8.752 -0.2113  0.3866 -0.1740
   20CHL1  H27A 1478   4.318   2.098   8.665  1.9381  1.0482  0.7287
   20CHL1  H27B 1479   4.300   1.926   8.716 -0.1554  0.1117  0.6218
   20CHL1  H27C 1480   4.203   2.053   8.801  1.2142  1.1382  2.3951
   21CHL1    C3 1481   4.298   4.899  10.286  1.2758  0.1842  0.0530
   21CHL1    H3 1482   4.346   4.799  10.280  3.1447  1.0202  0.7951
   21CHL1    O3 1483   4.331   4.940  10.416 -0.5582  0.4937  0.3415
   21CHL1   H3' 1484   4.255   4.983  10.455  0.2988  3.5783 -1.2056
   21CHL1    C4 1485   4.356   5.000  10.191  0.6232 -0.2069 -0.5300
   21CHL1   H4A 1486   4.322   5.102  10.219  0.1062 -0.2786 -0.8950
   21CHL1   H4B 1487   4.466   4.998  10.205  0.8611 -1.2009 -2.4349
   21CHL1    C5 1488   4.330   4.983  10.041 -0.6919  0.0685  0.8471
   21CHL1    C6 1489   4.429   4.969   9.950  0.5893 -0.7001 -0.1033
   21CHL1    H6 1490   4.530   4.969   9.994  0.7668  0.6751 -0.4614
   21CHL1    C7 1491   4.407   4.966   9.799  0.6688 -0.5296  0.3231
   21CHL1   H7A 1492   4.468   5.040   9.744  1.0486 -0.6204  0.6203
   21CHL1   H7B 1493   4.432   4.864   9.763  0.9577  0.0137 -1.0212
   21CHL1    C8 1494   4.256   4.987   9.770 -0.0994 -0.1237  0.0062
   21CHL1    H8 1495   4.227   5.094   9.777  1.2188  0.2778 -0.5395
   21CHL1   C14 1496   4.225   4.934   9.633 -0.3778  0.1502  0.3136
   21CHL1   H14 1497   4.253   4.827   9.632  1.0751  0.5173 -0.5383
   21CHL1   C15 1498   4.316   4.987   9.518 -0.3136  0.0244 -1.2803
   21CHL1  H15A 1499   4.333   5.097   9.522 -1.3413  0.1149  2.9662
   21CHL1  H15B 1500   4.415   4.937   9.518 -0.4333 -0.2426 -2.9469
   21CHL1   C16 1501   4.235   4.952   9.387  0.4861 -0.1446 -0.1671
   21CHL1  H16A 1502   4.220   5.051   9.339  1.2641  0.5989  1.0793
   21CHL1  H16B 1503   4.293   4.882   9.324  1.3359  0.0114  0.4367
   21CHL1   C17 1504   4.101   4.888   9.439 -0.6032 -0.1729  0.3906
   21CHL1   H17 1505   4.125   4.780   9.446  2.5316  0.1873 -2.8056
   21CHL1   C13 1506   4.082   4.941   9.581  0.6976 -0.3412 -0.2065
   21CHL1   C18 1507   4.044   5.093   9.574  0.4486 -0.4881  0.9073
   21CHL1  H18A 1508   4.053   5.144   9.672 -0.9864  3.2157 -0.7754
   21CHL1  H18B 1509   4.112   5.138   9.498 -0.9276 -0.1493 -0.1509
   21CHL1  H18C 1510   3.935   5.097   9.551  0.7699  0.1164 -0.5656
   21CHL1   C12 1511   3.997   4.859   9.680  0.5393 -0.4100 -0.4852
   21CHL1  H12A 1512   3.890   4.873   9.652  0.6623  1.3298 -0.1772
   21CHL1  H12B 1513   4.020   4.751   9.671 -0.1279 -0.4213 -2.1091
   21CHL1   C11 1514   4.018   4.908   9.824 -0.4494 -0.7137  0.1143
   21CHL1  H11A 1515   3.971   5.009   9.827  1.9167  0.4078  0.6596
   21CHL1  H11B 1516   3.973   4.837   9.897 -3.1543  0.7849 -0.0326
   21CHL1    C9 1517   4.163   4.920   9.864 -0.5214 -0.3788 -0.0025
   21CHL1    H9 1518   4.199   4.815   9.865  0.1102 -0.1870  2.8897
   21CHL1   C10 1519   4.187   4.971  10.011  0.1909 -0.3974 -0.4965
   21CHL1   C19 1520   4.128   5.115  10.021 -0.0536 -0.4587  0.3340
   21CHL1  H19A 1521   4.020   5.113   9.995 -0.5543 -1.6828  2.3678
   21CHL1  H19B 1522   4.131   5.141  10.129  1.3720  1.9806 -0.2716
   21CHL1  H19C 1523   4.173   5.189   9.952 -1.5754 -0.2695 -0.4758
   21CHL1    C1 1524   4.119   4.869  10.106  0.1812  0.2464 -0.4652
   21CHL1   H1A 1525   4.009   4.878  10.094  0.1211 -1.9619 -1.7050
   21CHL1   H1B 1526   4.150   4.769  10.070  0.6950  0.4920 -0.7185
   21CHL1    C2 1527   4.147   4.889  10.255  0.4308  0.0346  0.0444
   21CHL1   H2A 1528   4.102   4.804  10.309 -1.3112  0.7495 -0.2512
   21CHL1   H2B 1529   4.093   4.982  10.282 -0.4165 -0.4476  0.0180
   21CHL1   C20 1530   3.999   4.916   9.334  0.4654  0.0682  0.1288
   21CHL1   H20 1531   3.986   5.026   9.321  1.4006 -0.0648 -2.2090
   21CHL1   C21 1532   3.859   4.854   9.365  0.4763  0.7284 -0.1666
   21CHL1  H21A 1533   3.877   4.745   9.377  0.1389  1.0170  3.7789
   21CHL1  H21B 1534   3.793   4.865   9.277  1.1289 -1.4081 -0.9572
   21CHL1  H21C 1535   3.820   4.892   9.462  1.8104  0.3771  0.5198
   21CHL1   C22 1536   4.039   4.871   9.196  0.4304 -0.2379 -0.4784
   21CHL1  H22A 1537   3.956   4.880   9.123 -1.1063 -1.1408  1.1316
   21CHL1  H22B 1538   4.111   4.936   9.141 -0.5594 -0.9483 -2.6579
   21CHL1   C23 1539   4.082   4.722   9.172  0.5907  0.1929  0.1681
   21CHL1  H23A 1540   4.168   4.704   9.239 -0.1159 -3.5210  0.1729
   21CHL1  H23B 1541   4.011   4.652   9.221 -0.4951  0.7993 -0.4988
   21CHL1   C24 1542   4.112   4.683   9.030 -0.0236 -0.1314 -0.6699
   21CHL1  H24A 1543   4.138   4.575   9.036  1.7497  0.0922 -3.4473
   21CHL1  H24B 1544   4.019   4.684   8.969  0.6740 -1.4585 -1.7831
   21CHL1   C25 1545   4.213   4.766   8.951  0.5635  0.1312  0.2933
   21CHL1   H25 1546   4.156   4.858   8.926  0.6180  0.0229 -0.2535
   21CHL1   C26 1547   4.344   4.799   9.019  0.1437  0.5423 -0.3575
   21CHL1  H26A 1548   4.422   4.839   8.951  0.2694  1.3929  0.2851
   21CHL1  H26B 1549   4.331   4.873   9.102 -0.7387  1.4928 -1.3294
   21CHL1  H26C 1550   4.391   4.713   9.072  0.3025  0.6301 -0.3528
   21CHL1   C27 1551   4.235   4.710   8.814 -0.2025 -0.3518  0.2944
   21CHL1  H27A 1552   4.290   4.614   8.816 -0.4533 -0.4899  0.4946
   21CHL1  H27B 1553   4.145   4.699   8.751 -0.3249 -2.8618  0.8679
   21CHL1  H27C 1554   4.294   4.783   8.754 -0.7836 -0.1401 -0.0264
   22CHL1    C3 1555   3.999   5.820  10.017  0.2039  0.6129  0.1452
   22CHL1    H3 1556   3.892   5.815  10.043  0.8733  0.1436  2.9898
   22CHL1    O3 1557   4.068   5.790  10.134 -0.3792  0.2292 -0.0419
   22CHL1   H3' 1558   4.160   5.786  10.108 -0.5623  0.6062 -0.7590
   22CHL1    C4 1559   4.030   5.729   9.901 -0.0479  0.5842 -0.0902
   22CHL1   H4A 1560   4.140   5.736   9.885  0.3051 -0.7779  1.5828
   22CHL1   H4B 1561   4.011   5.623   9.929 -0.6846  1.0496  1.2874
   22CHL1    C5 1562   3.958   5.760   9.770  0.3261  0.4134  0.3687
   22CHL1    C6 1563   3.885   5.674   9.697  0.9995 -0.0329  0.7972
   22CHL1    H6 1564   3.885   5.569   9.729 -0.8759 -0.6156 -1.0271
   22CHL1    C7 1565   3.820   5.696   9.572 -0.7560  0.1345  0.2552
   22CHL1   H7A 1566   3.838   5.614   9.498  0.0661  0.7151 -0.1912
   22CHL1   H7B 1567   3.710   5.703   9.584 -0.7403 -0.3455  0.7122
   22CHL1    C8 1568   3.862   5.829   9.503 -0.4708  0.3193  0.0505
   22CHL1    H8 1569   3.961   5.817   9.455 -1.4582 -0.3512 -1.9018
   22CHL1   C14 1570   3.762   5.874   9.403 -0.3292 -0.3079 -0.6027
   22CHL1   H14 1571   3.664   5.887   9.454 -1.3395 -1.5592 -2.1630
   22CHL1   C15 1572   3.718   5.769   9.298  0.5122 -0.3074 -0.2240
   22CHL1  H15A 1573   3.808   5.712   9.266 -0.3753 -1.4291 -0.7571
   22CHL1  H15B 1574   3.652   5.691   9.341 -0.0118 -0.4504 -1.2546
   22CHL1   C16 1575   3.651   5.858   9.185  0.1223 -0.6219  0.6970
   22CHL1  H16A 1576   3.691   5.836   9.084 -0.4366 -1.6521  0.6948
   22CHL1  H16B 1577   3.541   5.841   9.179  0.0031  0.3322 -0.0004
   22CHL1   C17 1578   3.681   6.005   9.229 -0.1892 -0.1794 -0.2894
   22CHL1   H17 1579   3.600   6.017   9.304  1.2543  0.4003  1.2217
   22CHL1   C13 1580   3.792   6.002   9.327 -0.3435  0.3606 -0.1398
   22CHL1   C18 1581   3.924   5.997   9.245  0.3266 -0.1454  0.4140
   22CHL1  H18A 1582   3.913   5.933   9.155 -2.3489  1.5839 -0.5428
   22CHL1  H18B 1583   3.946   6.099   9.208  1.1117 -0.7144 -0.7564
   22CHL1  H18C 1584   4.015   5.966   9.300  1.8184  0.4754 -1.6337
   22CHL1   C12 1585   3.806   6.113   9.438  0.0797 -0.3624 -0.3986
   22CHL1  H12A 1586   3.820   6.214   9.394 -0.9895  0.9276  2.1334
   22CHL1  H12B 1587   3.709   6.113   9.492 -0.0564 -1.1343 -0.6424
   22CHL1   C11 1588   3.911   6.077   9.551  0.3626 -0.1078 -0.1308
   22CHL1  H11A 1589   4.011   6.069   9.503  0.7612 -1.1237  0.8430
   22CHL1  H11B 1590   3.905   6.159   9.627 -0.4396  0.2091 -0.5355
   22CHL1    C9 1591   3.877   5.942   9.613 -0.0680  0.3158  0.3339
   22CHL1    H9 1592   3.776   5.962   9.654  0.3898 -0.7344  2.0022
   22CHL1   C10 1593   3.968   5.902   9.725  0.2225  0.3233 -0.3737
   22CHL1   C19 1594   4.115   5.907   9.676  0.2982  0.3796  0.2273
   22CHL1  H19A 1595   4.193   5.871   9.747  0.2551 -0.4075 -0.1143
   22CHL1  H19B 1596   4.123   5.846   9.583 -0.7916  1.1386 -0.3740
   22CHL1  H19C 1597   4.140   6.010   9.645 -0.0428  0.7895  1.2988
   22CHL1    C1 1598   3.939   5.995   9.848 -0.5763 -0.5416 -0.2033
   22CHL1   H1A 1599   3.954   6.102   9.821 -0.6919 -0.8425 -1.4798
   22CHL1   H1B 1600   3.832   5.990   9.877 -0.5266  0.6587  0.2187
   22CHL1    C2 1601   4.020   5.970   9.969  0.6137  0.1794  0.1323
   22CHL1   H2A 1602   3.986   6.038  10.050  3.3804  0.4760  1.1086
   22CHL1   H2B 1603   4.130   5.983   9.955  0.6024  0.4823  0.3322
   22CHL1   C20 1604   3.681   6.114   9.120  0.3925  0.4213  0.6016
   22CHL1   H20 1605   3.739   6.203   9.153  0.3983  1.0357 -1.0126
   22CHL1   C21 1606   3.538   6.163   9.112 -0.1113 -0.4309 -0.0085
   22CHL1  H21A 1607   3.469   6.081   9.081  1.5985 -2.1445  0.6208
   22CHL1  H21B 1608   3.526   6.254   9.050 -1.2432 -0.4444  0.1750
   22CHL1  H21C 1609   3.510   6.188   9.216 -1.3384  0.2353 -0.4899
   22CHL1   C22 1610   3.732   6.071   8.985 -0.5064  0.4304 -0.2448
   22CHL1  H22A 1611   3.839   6.041   8.987 -1.3867 -2.9792 -1.3258
   22CHL1  H22B 1612   3.671   5.984   8.954  1.8169 -2.2178  2.2523
   22CHL1   C23 1613   3.730   6.181   8.882 -0.0301 -0.3002 -0.5418
   22CHL1  H23A 1614   3.625   6.207   8.858 -0.4330 -1.1683  0.2376
   22CHL1  H23B 1615   3.783   6.275   8.909  2.0079 -1.5537 -0.0431
   22CHL1   C24 1616   3.788   6.136   8.741 -0.1660 -0.1590 -0.1739
   22CHL1  H24A 1617   3.869   6.063   8.766  0.3345 -0.1183 -1.5746
   22CHL1  H24B 1618   3.720   6.081   8.672 -0.2864 -2.7230  1.9118
   22CHL1   C25 1619   3.849   6.246   8.652  0.0725  0.3109 -0.7187
   22CHL1   H25 1620   3.921   6.311   8.707  1.9532  0.1201 -2.8797
   22CHL1   C26 1621   3.923   6.198   8.530  0.6002  0.5445  0.7184
   22CHL1  H26A 1622   3.994   6.277   8.495  1.2196 -0.1186  0.4648
   22CHL1  H26B 1623   3.993   6.116   8.558  0.1973  0.3487  1.1452
   22CHL1  H26C 1624   3.863   6.168   8.441 -0.9952  0.9424  1.6476
   22CHL1   C27 1625   3.735   6.343   8.612  0.0014 -0.0969  0.0871
   22CHL1  H27A 1626   3.763   6.425   8.543  1.6158 -0.9287 -0.2671
   22CHL1  H27B 1627   3.670   6.273   8.556  1.2839 -2.0145  0.9586
   22CHL1  H27C 1628   3.685   6.380   8.704 -1.3043  1.0826 -1.0874
   23CHL1    C3 1629   1.028   0.358  10.217  0.0371  0.6898  0.2598
   23CHL1    H3 1630   0.940   0.423  10.198  2.1236  3.1446 -1.3116
   23CHL1    O3 1631   1.034   0.353  10.360 -0.1203 -0.3503 -0.2330
   23CHL1   H3' 1632   1.067   0.264  10.372  0.8456 -0.3041 -2.2919
   23CHL1    C4 1633   1.016   0.215  10.158  0.2288  0.6758  0.4748
   23CHL1   H4A 1634   1.104   0.155  10.190  1.7584  1.7837 -1.5104
   23CHL1   H4B 1635   0.925   0.183  10.212  0.2496  0.0235  0.1260
   23CHL1    C5 1636   1.003   0.216  10.007  0.1226 -0.2816  0.4550
   23CHL1    C6 1637   0.897   0.157   9.943 -0.4183  0.4272 -0.5973
   23CHL1    H6 1638   0.825   0.105  10.008  0.3852 -0.1962 -0.1978
   23CHL1    C7 1639   0.887   0.139   9.793  0.0927  0.7557  0.2871
   23CHL1   H7A 1640   0.877   0.031   9.770 -0.3202  0.9440 -0.4441
   23CHL1   H7B 1641   0.798   0.193   9.752  0.5061  0.8348 -0.5284
   23CHL1    C8 1642   1.015   0.193   9.721  0.1915 -0.0799 -0.8045
   23CHL1    H8 1643   1.088   0.110   9.727  1.5555  0.8441 -3.6808
   23CHL1   C14 1644   0.983   0.215   9.579  0.4141  0.4317 -0.0456
   23CHL1   H14 1645   0.911   0.299   9.566  0.2052  0.4138  0.9807
   23CHL1   C15 1646   0.908   0.107   9.496 -0.4538 -0.0984  0.1634
   23CHL1  H15A 1647   0.957   0.011   9.525  1.8316  0.8121 -0.5792
   23CHL1  H15B 1648   0.803   0.087   9.524  0.0927 -0.5970  1.9047
   23CHL1   C16 1649   0.940   0.137   9.352  0.0053  0.1124  0.4029
   23CHL1  H16A 1650   0.980   0.053   9.290 -2.1342 -0.7710  0.1650
   23CHL1  H16B 1651   0.855   0.179   9.295  0.1197  0.3185  0.3822
   23CHL1   C17 1652   1.023   0.265   9.362 -1.3725 -0.4296  0.4260
   23CHL1   H17 1653   0.957   0.355   9.364  1.2003  1.5057  1.4774
   23CHL1   C13 1654   1.096   0.273   9.494 -0.6931 -0.2611  0.5376
   23CHL1   C18 1655   1.211   0.163   9.485 -0.1356 -0.4086 -0.2714
   23CHL1  H18A 1656   1.177   0.065   9.445  1.2406 -0.6686 -0.8295
   23CHL1  H18B 1657   1.293   0.194   9.417 -1.0184  0.0708 -1.1351
   23CHL1  H18C 1658   1.258   0.144   9.584 -0.9082 -0.4101  0.1039
   23CHL1   C12 1659   1.157   0.401   9.562  0.7402 -0.3557 -0.0404
   23CHL1  H12A 1660   1.249   0.440   9.513  0.6239 -1.4884 -1.1555
   23CHL1  H12B 1661   1.076   0.475   9.547  0.7383 -0.4207 -0.3519
   23CHL1   C11 1662   1.190   0.375   9.704  0.0256 -0.0158  0.4163
   23CHL1  H11A 1663   1.277   0.307   9.712 -0.5340 -0.5436  2.3753
   23CHL1  H11B 1664   1.221   0.471   9.750  1.1052  0.0555 -0.4445
   23CHL1    C9 1665   1.073   0.315   9.791 -0.2406 -0.1853  0.2238
   23CHL1    H9 1666   0.989   0.388   9.790  1.1628  1.5240 -2.7379
   23CHL1   C10 1667   1.117   0.295   9.936  0.4132 -0.3259 -0.1450
   23CHL1   C19 1668   1.244   0.204   9.945  0.4963 -0.0362 -0.2491
   23CHL1  H19A 1669   1.328   0.276   9.937  0.4953  0.0015  0.0758
   23CHL1  H19B 1670   1.263   0.153  10.042  1.7972 -0.5131 -0.7518
   23CHL1  H19C 1671   1.247   0.134   9.859  0.0546  1.0264 -1.1482
   23CHL1    C1 1672   1.148   0.430  10.009 -0.5552 -0.6672 -0.0473
   23CHL1   H1A 1673   1.239   0.474   9.964  0.2379 -0.7155  1.4924
   23CHL1   H1B 1674   1.068   0.500   9.976  0.2983 -0.6073 -2.0995
   23CHL1    C2 1675   1.156   0.415  10.162 -0.4446  0.0591 -0.0822
   23CHL1   H2A 1676   1.178   0.510  10.216 -1.1234  0.3220 -0.2528
   23CHL1   H2B 1677   1.240   0.346  10.182  1.3490  1.3448 -2.7543
   23CHL1   C20 1678   1.110   0.283   9.230 -0.7525  0.2991  0.0810
   23CHL1   H20 1679   1.182   0.199   9.233  2.0870  2.5275 -2.3175
   23CHL1   C21 1680   1.186   0.415   9.228 -0.1490 -0.3416 -0.6413
   23CHL1  H21A 1681   1.122   0.498   9.191 -0.6512  0.2809  1.5386
   23CHL1  H21B 1682   1.269   0.410   9.154  1.1716  0.4280  0.7410
   23CHL1  H21C 1683   1.223   0.452   9.326  1.4495  0.3848 -1.5008
   23CHL1   C22 1684   1.039   0.268   9.091  0.4182 -0.1783  0.9331
   23CHL1  H22A 1685   0.993   0.167   9.085  0.3314 -0.0565 -0.6774
   23CHL1  H22B 1686   0.962   0.347   9.100 -0.9159 -1.6279  2.7274
   23CHL1   C23 1687   1.133   0.273   8.969  0.4254 -0.0933 -0.2116
   23CHL1  H23A 1688   1.179   0.373   8.955  2.0784 -0.4297  2.5688
   23CHL1  H23B 1689   1.215   0.198   8.976  0.6105 -0.0996 -2.0927
   23CHL1   C24 1690   1.071   0.247   8.833 -0.4729 -0.4321 -0.5501
   23CHL1  H24A 1691   1.048   0.138   8.833  1.1589 -0.8019  1.3068
   23CHL1  H24B 1692   0.981   0.309   8.814 -0.0977  0.3191  0.1021
   23CHL1   C25 1693   1.162   0.259   8.715 -0.8776  0.6334  0.3577
   23CHL1   H25 1694   1.264   0.240   8.755 -0.5518 -0.0705 -0.7902
   23CHL1   C26 1695   1.141   0.176   8.590  0.4283  0.4060  0.3224
   23CHL1  H26A 1696   1.177   0.073   8.608 -1.4534 -0.5963 -1.4530
   23CHL1  H26B 1697   1.036   0.181   8.554  0.5165  1.1860  0.1690
   23CHL1  H26C 1698   1.216   0.202   8.512 -0.2558 -1.5527 -1.0297
   23CHL1   C27 1699   1.163   0.408   8.666 -0.3978 -0.1190 -0.1649
   23CHL1  H27A 1700   1.059   0.445   8.657 -0.8137 -1.3750 -0.6215
   23CHL1  H27B 1701   1.229   0.475   8.726  1.4748  0.3762 -2.6771
   23CHL1  H27C 1702   1.219   0.410   8.569 -0.9216 -1.1867 -0.4906
   24CHL1    C3 1703   2.180   1.369  10.138 -0.1859 -0.2783  0.5047
   24CHL1    H3 1704   2.278   1.329  10.102 -0.6345 -1.4927  0.5922
   24CHL1    O3 1705   2.187   1.377  10.281  0.2081 -0.2247 -0.3026
   24CHL1   H3' 1706   2.094   1.383  10.304 -0.1717 -1.2189 -1.4871
   24CHL1    C4 1707   2.166   1.506  10.074 -0.0506  0.4282 -0.7695
   24CHL1   H4A 1708   2.079   1.558  10.120  1.1991  1.3002  0.6552
   24CHL1   H4B 1709   2.260   1.558  10.100  0.3944 -1.2775  1.2503
   24CHL1    C5 1710   2.152   1.499   9.922  0.3479  0.0976  0.1071
   24CHL1    C6 1711   2.238   1.567   9.841 -0.7460 -1.1988  0.2098
   24CHL1    H6 1712   2.316   1.629   9.888 -1.3867 -0.2914  0.0887
   24CHL1    C7 1713   2.223   1.565   9.690 -0.3449  0.3920  0.2124
   24CHL1   H7A 1714   2.231   1.667   9.648 -2.5707  0.9483  1.0367
   24CHL1   H7B 1715   2.302   1.494   9.657 -1.3288 -0.8463  0.4598
   24CHL1    C8 1716   2.094   1.500   9.634 -0.1374  0.0877 -0.7297
   24CHL1    H8 1717   2.015   1.574   9.659  1.0028  1.3665 -0.7963
   24CHL1   C14 1718   2.111   1.468   9.484  0.1240 -0.3588 -0.6870
   24CHL1   H14 1719   2.196   1.396   9.480 -0.7167 -1.4414  0.6176
   24CHL1   C15 1720   2.144   1.590   9.397 -0.1738 -0.5751  0.2313
   24CHL1  H15A 1721   2.084   1.679   9.424  0.3554  1.0194 -3.6531
   24CHL1  H15B 1722   2.248   1.625   9.411 -1.2230  3.5301 -1.5301
   24CHL1   C16 1723   2.110   1.548   9.256 -0.0202  0.5646 -0.4931
   24CHL1  H16A 1724   2.038   1.619   9.210  0.1512  0.0410 -1.5960
   24CHL1  H16B 1725   2.200   1.546   9.191 -0.4233 -2.0543 -1.0376
   24CHL1   C17 1726   2.042   1.410   9.283 -0.0528 -0.0407  1.3136
   24CHL1   H17 1727   2.124   1.337   9.296  0.6963  0.2487 -1.3063
   24CHL1   C13 1728   1.993   1.408   9.428 -0.5960  0.0321  0.6510
   24CHL1   C18 1729   1.860   1.494   9.435  0.1617  0.4286 -0.2011
   24CHL1  H18A 1730   1.773   1.434   9.400  1.3387 -3.4701  3.1214
   24CHL1  H18B 1731   1.839   1.516   9.542  0.6160  0.7426 -0.1772
   24CHL1  H18C 1732   1.870   1.584   9.371 -1.1432 -0.8869 -2.3121
   24CHL1   C12 1733   1.958   1.270   9.492  0.5592 -0.3520  0.8047
   24CHL1  H12A 1734   1.866   1.223   9.451  0.8716 -0.4592  0.2254
   24CHL1  H12B 1735   2.043   1.204   9.465  0.0745 -0.1694 -1.2183
   24CHL1   C11 1736   1.937   1.294   9.647  0.0243  0.3993  0.4194
   24CHL1  H11A 1737   1.843   1.351   9.664  1.8251  3.2830  1.1174
   24CHL1  H11B 1738   1.919   1.198   9.700  0.2519 -0.1053 -0.3922
   24CHL1    C9 1739   2.060   1.374   9.714  0.3439  1.2292 -0.4224
   24CHL1    H9 1740   2.146   1.305   9.704  0.2542  1.6565 -5.3581
   24CHL1   C10 1741   2.043   1.402   9.865  0.8434  0.0232  0.3272
   24CHL1   C19 1742   1.909   1.473   9.898  0.0134  0.1214 -0.1033
   24CHL1  H19A 1743   1.906   1.571   9.845  0.2818 -0.6681 -1.5791
   24CHL1  H19B 1744   1.818   1.414   9.876 -1.8971  2.6281  0.8047
   24CHL1  H19C 1745   1.906   1.490  10.008  1.2114  1.9328 -0.3165
   24CHL1    C1 1746   2.053   1.267   9.940  0.1874 -0.7865 -0.6219
   24CHL1   H1A 1747   1.960   1.208   9.927  0.5460 -1.6811  0.7158
   24CHL1   H1B 1748   2.132   1.203   9.897  0.2524  0.2866 -2.1305
   24CHL1    C2 1749   2.072   1.273  10.096 -0.6457 -1.0930  0.4398
   24CHL1   H2A 1750   2.085   1.167  10.127 -1.1696 -0.4522  2.9898
   24CHL1   H2B 1751   1.974   1.309  10.135 -0.7191 -1.8624  0.9761
   24CHL1   C20 1752   1.955   1.351   9.171  0.5511 -0.2829  0.8737
   24CHL1   H20 1753   1.874   1.288   9.214 -0.1258  0.1070  0.1769
   24CHL1   C21 1754   2.045   1.248   9.087  0.1635 -0.0232 -0.4159
   24CHL1  H21A 1755   2.071   1.166   9.158  1.0705  1.5672  1.1218
   24CHL1  H21B 1756   2.136   1.299   9.051  0.6747  1.6041  2.9846
   24CHL1  H21C 1757   1.985   1.197   9.009  0.8013 -0.1709 -0.8111
   24CHL1   C22 1758   1.900   1.465   9.087  0.0429  0.5302  0.2860
   24CHL1  H22A 1759   1.838   1.533   9.150  0.7333  2.0768 -0.6696
   24CHL1  H22B 1760   1.983   1.520   9.038 -0.5400 -0.2660 -1.6151
   24CHL1   C23 1761   1.820   1.403   8.967 -0.7721  0.3643 -0.8427
   24CHL1  H23A 1762   1.882   1.337   8.903  1.7200  2.0714 -0.2528
   24CHL1  H23B 1763   1.732   1.354   9.013  0.4833 -0.8843  0.2927
   24CHL1   C24 1764   1.768   1.501   8.867 -0.1945 -0.0672 -0.0896
   24CHL1  H24A 1765   1.690   1.455   8.802  1.1176 -3.4015  0.5891
   24CHL1  H24B 1766   1.714   1.572   8.934 -1.3591  0.3493 -1.4513
   24CHL1   C25 1767   1.875   1.574   8.780 -0.6852  1.4550  0.4273
   24CHL1   H25 1768   1.950   1.607   8.855  0.7046 -1.1806  0.2631
   24CHL1   C26 1769   1.958   1.485   8.683 -0.5344  0.0956  0.2574
   24CHL1  H26A 1770   2.009   1.409   8.745 -1.8389  0.4197  1.7573
   24CHL1  H26B 1771   1.890   1.438   8.607  0.6323  0.1725 -0.8470
   24CHL1  H26C 1772   2.028   1.551   8.628  0.6295 -0.5709  0.9206
   24CHL1   C27 1773   1.822   1.690   8.703  0.2796 -0.3230  0.2303
   24CHL1  H27A 1774   1.899   1.735   8.637 -1.0061 -0.0775 -1.1172
   24CHL1  H27B 1775   1.738   1.658   8.637 -3.4344  1.4193  3.8326
   24CHL1  H27C 1776   1.788   1.757   8.785  3.3385  0.3096  1.0452
   25CHL1    C3 1777   3.739   2.993  10.403 -0.6120 -0.3678  0.1066
   25CHL1    H3 1778   3.746   3.101  10.377 -1.9650  0.3423  2.4559
   25CHL1    O3 1779   3.726   2.981  10.541 -0.5927 -0.5336  0.0078
   25CHL1   H3' 1780   3.739   2.887  10.559 -1.6699 -0.4083  1.6020
   25CHL1    C4 1781   3.621   2.931  10.323 -0.9719 -0.2268 -0.0772
   25CHL1   H4A 1782   3.600   2.826  10.352  2.3297 -0.9368 -0.0734
   25CHL1   H4B 1783   3.534   2.991  10.357 -0.1267  0.8937  0.1141
   25CHL1    C5 1784   3.628   2.940  10.174 -0.2770 -0.0209 -0.3343
   25CHL1    C6 1785   3.538   3.016  10.113 -0.2680  0.2426  0.0080
   25CHL1    H6 1786   3.461   3.065  10.175  1.8531  2.2053  1.1441
   25CHL1    C7 1787   3.530   3.027   9.965  0.2926  0.2761 -0.0747
   25CHL1   H7A 1788   3.426   3.000   9.935 -0.0351  1.8521 -0.3671
   25CHL1   H7B 1789   3.559   3.129   9.934  2.6803 -1.4671 -4.0402
   25CHL1    C8 1790   3.631   2.926   9.892  0.6763  0.0168  0.3596
   25CHL1    H8 1791   3.575   2.831   9.906 -1.3718  1.2260  0.5053
   25CHL1   C14 1792   3.641   2.959   9.743  0.1405  0.9394  0.4902
   25CHL1   H14 1793   3.693   3.055   9.726 -0.1941  0.7588 -1.6377
   25CHL1   C15 1794   3.514   2.964   9.658 -0.3938  0.0451 -0.3510
   25CHL1  H15A 1795   3.461   2.873   9.692 -1.7028  0.6443 -0.7671
   25CHL1  H15B 1796   3.450   3.054   9.670  2.2070  1.8991  0.1210
   25CHL1   C16 1797   3.568   2.950   9.516  0.2471  0.7957  0.1627
   25CHL1  H16A 1798   3.525   2.859   9.468 -0.2615  2.0804 -1.8910
   25CHL1  H16B 1799   3.545   3.034   9.446 -0.9173  0.1455 -0.2514
   25CHL1   C17 1800   3.721   2.916   9.532  0.2826 -0.5033  0.1527
   25CHL1   H17 1801   3.771   3.015   9.530  0.1401 -0.4184  0.6511
   25CHL1   C13 1802   3.736   2.863   9.672 -0.0501  0.2503  0.7877
   25CHL1   C18 1803   3.687   2.710   9.667  0.7209  1.0283  0.8816
   25CHL1  H18A 1804   3.763   2.639   9.627  0.9136  1.7788 -0.0998
   25CHL1  H18B 1805   3.647   2.670   9.762 -0.5278 -0.1635 -0.1127
   25CHL1  H18C 1806   3.603   2.693   9.595  2.4245 -0.4866 -0.8241
   25CHL1   C12 1807   3.870   2.882   9.744 -0.6884 -0.2205  0.2385
   25CHL1  H12A 1808   3.954   2.837   9.688 -1.5418  1.3216 -2.3325
   25CHL1  H12B 1809   3.887   2.991   9.752 -0.3431 -0.3002  0.5922
   25CHL1   C11 1810   3.868   2.830   9.890  0.0893 -0.6821 -0.2361
   25CHL1  H11A 1811   3.834   2.724   9.886 -1.5474 -0.2000  0.5674
   25CHL1  H11B 1812   3.968   2.835   9.937  0.1616 -2.3718 -0.1844
   25CHL1    C9 1813   3.768   2.920   9.965  0.3765 -0.2799  0.2586
   25CHL1    H9 1814   3.818   3.019   9.961 -3.1700  1.5947  1.0317
   25CHL1   C10 1815   3.744   2.873  10.118  0.1983  0.1418 -0.3342
   25CHL1   C19 1816   3.724   2.722  10.133  0.5951  0.1855  0.2029
   25CHL1  H19A 1817   3.820   2.682  10.095 -0.1329 -1.8184  0.3915
   25CHL1  H19B 1818   3.690   2.680  10.230  2.9662 -1.4643  0.3701
   25CHL1  H19C 1819   3.642   2.695  10.063 -1.4412 -1.4048  3.1063
   25CHL1    C1 1820   3.875   2.926  10.198  0.2854  0.0134  0.4047
   25CHL1   H1A 1821   3.962   2.872  10.155  0.1780 -1.1932  1.6886
   25CHL1   H1B 1822   3.889   3.033  10.171  1.0111 -0.1361  0.1696
   25CHL1    C2 1823   3.861   2.923  10.353 -0.5201  0.0576 -0.5190
   25CHL1   H2A 1824   3.955   2.966  10.393 -0.9591  0.2640  0.3113
   25CHL1   H2B 1825   3.855   2.815  10.376 -0.1163 -0.5225 -2.9863
   25CHL1   C20 1826   3.778   2.834   9.415 -0.4019 -0.1237  0.3477
   25CHL1   H20 1827   3.724   2.737   9.412 -1.8444  0.5828  2.6230
   25CHL1   C21 1828   3.926   2.818   9.432 -0.2603 -0.2791 -0.6066
   25CHL1  H21A 1829   3.950   2.732   9.499 -0.5093  1.3136  1.5706
   25CHL1  H21B 1830   3.968   2.915   9.466  0.0159 -0.6719  0.1940
   25CHL1  H21C 1831   3.987   2.801   9.341 -0.0355 -0.5352 -0.4098
   25CHL1   C22 1832   3.750   2.902   9.280  0.7618 -0.2497  0.0937
   25CHL1  H22A 1833   3.640   2.908   9.267  0.8808  0.2435 -0.6861
   25CHL1  H22B 1834   3.792   3.005   9.275  1.7165 -0.7167 -2.0633
   25CHL1   C23 1835   3.819   2.831   9.165 -0.5637 -0.1621  0.0648
   25CHL1  H23A 1836   3.926   2.858   9.155 -0.9450  0.6377 -2.3131
   25CHL1  H23B 1837   3.787   2.725   9.169 -1.7176 -0.0770 -4.4545
   25CHL1   C24 1838   3.759   2.866   9.025  0.6084 -0.6737  0.0006
   25CHL1  H24A 1839   3.653   2.836   9.036  0.9188 -1.8567 -0.1826
   25CHL1  H24B 1840   3.778   2.974   9.007 -0.5306 -0.6087 -0.8181
   25CHL1   C25 1841   3.816   2.796   8.904  0.1148  0.1167  0.3250
   25CHL1   H25 1842   3.830   2.696   8.949  2.9389  0.2837 -0.1135
   25CHL1   C26 1843   3.725   2.787   8.782  0.1111  0.5534  0.5717
   25CHL1  H26A 1844   3.640   2.721   8.809 -1.0472  1.9803  0.4870
   25CHL1  H26B 1845   3.699   2.886   8.738  0.9210  0.1630 -0.8299
   25CHL1  H26C 1846   3.776   2.735   8.698 -1.1882 -1.5557  1.0719
   25CHL1   C27 1847   3.958   2.851   8.871  0.2403  0.1566 -0.9892
   25CHL1  H27A 1848   4.023   2.789   8.805  0.9555  0.6610 -0.7635
   25CHL1  H27B 1849   3.942   2.949   8.821  0.3680  1.0278  0.6506
   25CHL1  H27C 1850   4.002   2.870   8.971 -0.6419 -2.1068 -0.1496
   26CHL1    C3 1851   4.564   6.205  10.135 -0.4944  0.4097 -0.1094
   26CHL1    H3 1852   4.494   6.126  10.169 -0.0190 -0.8847 -2.0779
   26CHL1    O3 1853   4.607   6.294  10.234 -0.2855 -0.3605 -0.0077
   26CHL1   H3' 1854   4.644   6.369  10.187 -1.2969 -0.7096 -1.4033
   26CHL1    C4 1855   4.686   6.127  10.073  0.2021 -0.1359 -0.4218
   26CHL1   H4A 1856   4.766   6.202  10.054  2.5281 -2.8387 -1.5501
   26CHL1   H4B 1857   4.730   6.062  10.152 -1.5206  2.5451  2.9436
   26CHL1    C5 1858   4.644   6.062   9.941 -0.1352  0.5760 -0.2263
   26CHL1    C6 1859   4.671   5.933   9.929  0.4764  0.1364  0.1891
   26CHL1    H6 1860   4.716   5.881  10.014  0.3571  0.3034  0.3558
   26CHL1    C7 1861   4.633   5.850   9.807 -0.4475 -0.8608 -0.0542
   26CHL1   H7A 1862   4.716   5.782   9.777  0.5938  0.4735 -0.2252
   26CHL1   H7B 1863   4.543   5.793   9.839 -0.2868 -0.7446  0.6052
   26CHL1    C8 1864   4.586   5.946   9.688 -0.3584  0.1319  0.0917
   26CHL1    H8 1865   4.675   6.001   9.651 -0.0223 -0.8278 -0.5293
   26CHL1   C14 1866   4.526   5.872   9.573  0.0752  0.5951  0.0912
   26CHL1   H14 1867   4.430   5.833   9.615 -0.3082  2.5786  1.1332
   26CHL1   C15 1868   4.593   5.744   9.525  0.4615 -0.5466 -0.4200
   26CHL1  H15A 1869   4.700   5.764   9.503  0.8356 -1.6776  0.2984
   26CHL1  H15B 1870   4.576   5.649   9.581 -0.5469  0.0891  0.3762
   26CHL1   C16 1871   4.528   5.723   9.386 -0.2253 -0.4030  0.0486
   26CHL1  H16A 1872   4.611   5.727   9.312  0.5277  1.8889  0.9803
   26CHL1  H16B 1873   4.456   5.639   9.391 -0.2419 -0.3968 -0.0898
   26CHL1   C17 1874   4.431   5.842   9.360 -0.0177 -0.6363 -0.5525
   26CHL1   H17 1875   4.326   5.830   9.392 -0.5552  2.8914 -0.8370
   26CHL1   C13 1876   4.488   5.954   9.448  0.1209 -0.1601 -0.2955
   26CHL1   C18 1877   4.622   6.005   9.396  1.3117  0.6269 -0.0639
   26CHL1  H18A 1878   4.592   6.082   9.322  0.1183 -0.6967 -0.9712
   26CHL1  H18B 1879   4.671   6.067   9.475  0.0310  0.1618  1.1249
   26CHL1  H18C 1880   4.689   5.926   9.356  1.4627  0.7181  0.0049
   26CHL1   C12 1881   4.391   6.063   9.492 -0.7951  0.5709  0.1006
   26CHL1  H12A 1882   4.366   6.137   9.414 -1.4121 -0.3469 -0.5889
   26CHL1  H12B 1883   4.301   6.011   9.530 -0.9902 -0.7298 -2.0489
   26CHL1   C11 1884   4.457   6.141   9.609 -0.7620  0.2697 -0.0799
   26CHL1  H11A 1885   4.535   6.206   9.564  0.4425 -1.5067 -0.5698
   26CHL1  H11B 1886   4.376   6.211   9.643 -0.3570  0.4544  0.5153
   26CHL1    C9 1887   4.497   6.058   9.730  0.6726 -0.6101 -0.1519
   26CHL1    H9 1888   4.405   6.010   9.770  0.1778  0.2578 -0.2424
   26CHL1   C10 1889   4.568   6.149   9.833 -0.2790  0.8465 -0.4026
   26CHL1   C19 1890   4.674   6.248   9.764  0.2476 -0.2581 -0.4883
   26CHL1  H19A 1891   4.748   6.193   9.702  1.9848  2.0328 -0.5434
   26CHL1  H19B 1892   4.627   6.328   9.702 -2.8677  0.4954  2.6817
   26CHL1  H19C 1893   4.723   6.308   9.844 -0.6159 -1.1707  0.7406
   26CHL1    C1 1894   4.451   6.226   9.902 -0.5239  0.6589  0.0795
   26CHL1   H1A 1895   4.400   6.303   9.840 -2.7982 -0.9994 -0.1561
   26CHL1   H1B 1896   4.367   6.159   9.931 -1.7587  1.1217 -2.3453
   26CHL1    C2 1897   4.489   6.294  10.031 -0.5999 -0.7328 -0.6556
   26CHL1   H2A 1898   4.392   6.331  10.070  0.0243  1.9099 -1.5163
   26CHL1   H2B 1899   4.559   6.379  10.016 -0.6976 -0.9114 -2.2223
   26CHL1   C20 1900   4.415   5.872   9.211  0.5367  0.2241 -0.1223
   26CHL1   H20 1901   4.516   5.896   9.170 -0.6275  1.5313 -2.3594
   26CHL1   C21 1902   4.321   5.990   9.186  0.1080  0.3115  0.7813
   26CHL1  H21A 1903   4.234   5.977   9.253  1.2507 -1.3746  1.9754
   26CHL1  H21B 1904   4.278   5.983   9.083  0.0971  2.2653  0.6444
   26CHL1  H21C 1905   4.369   6.089   9.198 -0.5448  0.8350 -0.7866
   26CHL1   C22 1906   4.358   5.754   9.124 -0.1380  0.2041 -0.8841
   26CHL1  H22A 1907   4.420   5.666   9.152  0.5919  1.0945  0.3406
   26CHL1  H22B 1908   4.251   5.739   9.150  0.1238  1.8396  1.2845
   26CHL1   C23 1909   4.376   5.773   8.973  0.5537 -0.0173 -0.5682
   26CHL1  H23A 1910   4.323   5.697   8.912  0.3664 -0.4822  0.1695
   26CHL1  H23B 1911   4.327   5.866   8.936 -0.1810 -1.2454 -2.8109
   26CHL1   C24 1912   4.526   5.769   8.932 -0.9794 -0.3182 -0.1019
   26CHL1  H24A 1913   4.584   5.834   9.001 -1.3518 -0.7583  0.6437
   26CHL1  H24B 1914   4.576   5.672   8.954 -1.7023 -0.7708 -0.4637
   26CHL1   C25 1915   4.558   5.811   8.792 -0.2305 -0.1119  0.7425
   26CHL1   H25 1916   4.503   5.907   8.781  0.2379  0.5676  4.0364
   26CHL1   C26 1917   4.705   5.843   8.768 -0.1387 -0.2934 -0.6239
   26CHL1  H26A 1918   4.774   5.768   8.810 -0.5448  0.3290  1.1954
   26CHL1  H26B 1919   4.726   5.866   8.661  1.8588  1.9690  0.2141
   26CHL1  H26C 1920   4.740   5.931   8.827 -2.9840  0.1991  0.4094
   26CHL1   C27 1921   4.495   5.714   8.688  0.3592  0.0342  0.8877
   26CHL1  H27A 1922   4.563   5.700   8.601 -0.3782 -2.2187  0.6293
   26CHL1  H27B 1923   4.464   5.619   8.737 -1.1886  2.6404  5.2152
   26CHL1  H27C 1924   4.398   5.757   8.655 -1.2485 -0.6830  4.4778
   27CHL1    C3 1925   4.318   3.161  10.253  0.2228 -0.4998 -0.0680
   27CHL1    H3 1926   4.268   3.256  10.225  0.1825 -0.7338 -0.8131
   27CHL1    O3 1927   4.295   3.130  10.395 -0.1110 -0.0749  0.5225
   27CHL1   H3' 1928   4.281   3.036  10.410  0.9573  0.2525  4.1442
   27CHL1    C4 1929   4.244   3.053  10.169  0.3251 -0.8557  0.5890
   27CHL1   H4A 1930   4.287   2.957  10.204 -0.3442 -1.0925  0.7702
   27CHL1   H4B 1931   4.135   3.043  10.190 -0.0352 -0.3302 -0.9394
   27CHL1    C5 1932   4.267   3.068  10.017 -0.3846  0.1970 -0.2926
   27CHL1    C6 1933   4.164   3.090   9.930 -0.7780  0.0763  0.1549
   27CHL1    H6 1934   4.061   3.090   9.968 -0.8265  1.8689  0.0438
   27CHL1    C7 1935   4.188   3.108   9.785 -0.5475  0.1407  0.2611
   27CHL1   H7A 1936   4.114   3.045   9.732  0.0555 -0.4619  0.1215
   27CHL1   H7B 1937   4.157   3.208   9.749  1.6966 -0.1685 -2.7394
   27CHL1    C8 1938   4.327   3.063   9.741 -0.4719  0.3391 -0.1138
   27CHL1    H8 1939   4.331   2.952   9.737  0.4637  0.2407  2.5185
   27CHL1   C14 1940   4.349   3.104   9.596  0.7967  0.3401 -0.0464
   27CHL1   H14 1941   4.361   3.215   9.590 -1.1605  0.6840  1.9500
   27CHL1   C15 1942   4.234   3.078   9.497  0.2554  0.2206 -0.7142
   27CHL1  H15A 1943   4.171   2.989   9.520  2.3533 -1.0472  0.2482
   27CHL1  H15B 1944   4.174   3.172   9.491 -0.1259 -0.0764 -1.6387
   27CHL1   C16 1945   4.307   3.055   9.358 -0.4387  0.8588 -0.5660
   27CHL1  H16A 1946   4.280   2.953   9.321  1.3382  0.9510 -2.1781
   27CHL1  H16B 1947   4.264   3.123   9.281  2.8551 -1.1419 -4.3453
   27CHL1   C17 1948   4.464   3.077   9.387  0.1958 -0.0484  0.4391
   27CHL1   H17 1949   4.479   3.186   9.373  0.5932 -0.2483 -0.7514
   27CHL1   C13 1950   4.483   3.050   9.537 -0.6841  0.1193  0.8984
   27CHL1   C18 1951   4.490   2.896   9.546  0.5104  0.1757 -0.2486
   27CHL1  H18A 1952   4.509   2.861   9.649 -1.2246  1.3177  0.4800
   27CHL1  H18B 1953   4.404   2.840   9.503 -0.4064  0.6885  0.9078
   27CHL1  H18C 1954   4.571   2.848   9.487  0.0090 -2.5368  1.2003
   27CHL1   C12 1955   4.596   3.118   9.619  0.0687  0.1148  0.0259
   27CHL1  H12A 1956   4.699   3.085   9.593  0.9015  2.0654  0.7979
   27CHL1  H12B 1957   4.590   3.229   9.609  0.0920  0.1759  0.7073
   27CHL1   C11 1958   4.587   3.089   9.773  0.0323  0.3849  0.9940
   27CHL1  H11A 1959   4.602   2.980   9.789  2.3632  0.4975 -0.1511
   27CHL1  H11B 1960   4.661   3.152   9.825 -1.1602  1.6005  1.2458
   27CHL1    C9 1961   4.442   3.118   9.821 -0.0378  0.8160 -0.2932
   27CHL1    H9 1962   4.424   3.227   9.818 -0.8539  0.8112  2.9378
   27CHL1   C10 1963   4.414   3.076   9.971  0.1312  0.3211 -0.4533
   27CHL1   C19 1964   4.471   2.932   9.999 -0.4763 -0.1188 -0.5885
   27CHL1  H19A 1965   4.580   2.936   9.984 -0.3551 -0.7963  0.0833
   27CHL1  H19B 1966   4.454   2.883  10.097  1.3199  1.5593  0.5838
   27CHL1  H19C 1967   4.435   2.863   9.919  2.2186 -0.3058 -1.6656
   27CHL1    C1 1968   4.483   3.179  10.068 -0.4460 -0.0755  0.0407
   27CHL1   H1A 1969   4.588   3.193  10.033  0.9050 -3.2774  2.5496
   27CHL1   H1B 1970   4.427   3.272  10.047 -0.8244  0.0822  1.7182
   27CHL1    C2 1971   4.469   3.155  10.218 -0.2515 -0.0706  0.5157
   27CHL1   H2A 1972   4.510   3.243  10.273 -1.8090  0.2394  1.2396
   27CHL1   H2B 1973   4.517   3.068  10.267  0.3129  0.4727  0.9351
   27CHL1   C20 1974   4.550   3.011   9.283  0.5520  0.2880  0.6742
   27CHL1   H20 1975   4.537   2.901   9.283 -1.3657  0.4409 -2.9280
   27CHL1   C21 1976   4.698   3.051   9.305  0.3974  0.5689  0.0280
   27CHL1  H21A 1977   4.739   3.154   9.304  2.0940 -0.0797  1.4539
   27CHL1  H21B 1978   4.760   2.998   9.229  0.8044 -0.7534  1.2616
   27CHL1  H21C 1979   4.739   3.013   9.401  0.3648 -3.0377 -1.3034
   27CHL1   C22 1980   4.500   3.048   9.134 -0.0501 -0.3952 -0.4455
   27CHL1  H22A 1981   4.408   2.989   9.120 -1.5429  1.1621  2.2603
   27CHL1  H22B 1982   4.490   3.158   9.122 -0.0828 -0.4667 -1.0852
   27CHL1   C23 1983   4.595   3.013   9.024  0.3701 -0.0536  0.0804
   27CHL1  H23A 1984   4.681   3.084   9.031  0.6832 -0.5428  1.3290
   27CHL1  H23B 1985   4.635   2.910   9.033 -3.0550 -1.5574 -1.0782
   27CHL1   C24 1986   4.541   3.024   8.881 -0.0722  0.9922  0.1317
   27CHL1  H24A 1987   4.451   2.959   8.875  0.1115  0.8002 -0.6943
   27CHL1  H24B 1988   4.513   3.130   8.861 -1.0316  0.8350  0.6329
   27CHL1   C25 1989   4.633   2.977   8.766 -0.7514  0.3564 -0.4280
   27CHL1   H25 1990   4.634   2.866   8.775  0.1108  0.0931 -3.3953
   27CHL1   C26 1991   4.571   3.019   8.631 -0.4990  0.4149  0.3210
   27CHL1  H26A 1992   4.462   3.000   8.641 -1.2374  3.0534 -2.2004
   27CHL1  H26B 1993   4.589   3.126   8.606  1.2635  0.2387  0.8077
   27CHL1  H26C 1994   4.597   2.960   8.541  0.4228  3.4971 -1.5070
   27CHL1   C27 1995   4.785   3.028   8.786  0.0133  0.2320  0.3788
   27CHL1  H27A 1996   4.854   2.970   8.722 -0.7732 -0.0810 -0.1974
   27CHL1  H27B 1997   4.800   3.135   8.758  2.2244 -0.5652 -1.6285
   27CHL1  H27C 1998   4.819   3.016   8.891  0.7871 -3.2457 -0.2169
   28CHL1    C3 1999   3.021   1.504  10.189  0.0509  0.6789  0.3185
   28CHL1    H3 2000   2.916   1.534  10.170 -0.7588 -2.1079  0.1609
   28CHL1    O3 2001   3.053   1.512  10.328 -0.6320 -0.5150  0.4412
   28CHL1   H3' 2002   3.145   1.486  10.331 -0.1748  1.1672  1.0910
   28CHL1    C4 2003   3.042   1.359  10.135  0.0352 -0.1231  0.6506
   28CHL1   H4A 2004   3.144   1.328  10.166  0.5092  1.7726  1.0507
   28CHL1   H4B 2005   2.975   1.286  10.186  1.8683 -1.1406  1.6740
   28CHL1    C5 2006   3.032   1.346   9.986 -0.7024 -0.3975  0.3100
   28CHL1    C6 2007   2.949   1.254   9.930 -0.8637  0.1010  0.1542
   28CHL1    H6 2008   2.886   1.193   9.997  1.6389  1.3641  3.8296
   28CHL1    C7 2009   2.946   1.214   9.786 -0.2965 -1.2464  0.7217
   28CHL1   H7A 2010   2.970   1.105   9.786 -2.3758 -1.7211  0.4600
   28CHL1   H7B 2011   2.856   1.238   9.726 -0.1718  1.1326  1.4414
   28CHL1    C8 2012   3.060   1.287   9.708 -0.3010 -0.2701 -0.0590
   28CHL1    H8 2013   3.153   1.227   9.721 -0.8764 -1.0548  0.5548
   28CHL1   C14 2014   3.020   1.280   9.559 -0.5242  0.3556  0.6423
   28CHL1   H14 2015   2.929   1.343   9.550 -1.3069 -1.0135 -1.3813
   28CHL1   C15 2016   2.995   1.138   9.504 -0.0704  0.3054  0.4216
   28CHL1  H15A 2017   3.074   1.067   9.534 -0.3115 -0.4808 -0.7834
   28CHL1  H15B 2018   2.893   1.104   9.532 -1.0710  0.4780 -2.7804
   28CHL1   C16 2019   3.007   1.172   9.346 -0.1483  0.4752 -0.1718
   28CHL1  H16A 2020   3.081   1.094   9.313  0.6103  0.9416  0.4178
   28CHL1  H16B 2021   2.911   1.168   9.291  0.1337  0.9135 -0.7010
   28CHL1   C17 2022   3.059   1.318   9.334 -0.2096 -0.1490  0.7061
   28CHL1   H17 2023   2.967   1.380   9.332 -1.2241 -1.4122  5.0845
   28CHL1   C13 2024   3.124   1.357   9.466  0.1518  0.2199 -0.9782
   28CHL1   C18 2025   3.261   1.290   9.469  0.1396  0.1489 -0.3550
   28CHL1  H18A 2026   3.337   1.349   9.415  0.0334  2.7762  2.2406
   28CHL1  H18B 2027   3.307   1.281   9.570 -0.8043 -4.3570 -0.1900
   28CHL1  H18C 2028   3.261   1.182   9.442  1.8725 -0.5164  2.0820
   28CHL1   C12 2029   3.130   1.506   9.513  0.2828  0.9293  0.1847
   28CHL1  H12A 2030   3.203   1.554   9.445  2.2718 -1.2028  0.7588
   28CHL1  H12B 2031   3.035   1.563   9.506 -0.6645 -0.6097  0.1913
   28CHL1   C11 2032   3.189   1.510   9.656  0.2760  0.6513 -0.3252
   28CHL1  H11A 2033   3.294   1.474   9.653  0.1516  0.0341  1.8917
   28CHL1  H11B 2034   3.196   1.616   9.687 -2.2750  0.7114  0.1432
   28CHL1    C9 2035   3.095   1.426   9.755 -0.4091 -0.3639  0.7575
   28CHL1    H9 2036   2.999   1.481   9.748  1.3663  2.8051  0.3040
   28CHL1   C10 2037   3.122   1.436   9.907 -0.3528 -0.3447 -0.4982
   28CHL1   C19 2038   3.273   1.401   9.930  0.2807  0.0717 -0.2853
   28CHL1  H19A 2039   3.337   1.472   9.873  1.9819  0.1107  1.5981
   28CHL1  H19B 2040   3.296   1.419  10.037  1.1723  4.3842 -1.0917
   28CHL1  H19C 2041   3.295   1.296   9.901  1.7516  0.3089 -0.0634
   28CHL1    C1 2042   3.090   1.575   9.954  0.2226 -0.1533 -0.4689
   28CHL1   H1A 2043   3.157   1.651   9.907 -0.2824  0.2903 -0.4875
   28CHL1   H1B 2044   2.993   1.622   9.927 -0.0144 -0.2221  0.2571
   28CHL1    C2 2045   3.109   1.595  10.107 -0.1501  0.4205  0.1878
   28CHL1   H2A 2046   3.084   1.701  10.126 -0.4184  0.5698 -0.9578
   28CHL1   H2B 2047   3.213   1.572  10.139  0.0338  1.1640  0.1187
   28CHL1   C20 2048   3.131   1.348   9.204  0.0612  0.3276  0.1334
   28CHL1   H20 2049   3.239   1.367   9.220  0.2894 -0.2848 -0.6314
   28CHL1   C21 2050   3.062   1.464   9.131 -0.1088 -0.2611 -0.0274
   28CHL1  H21A 2051   2.963   1.432   9.092 -0.1078 -3.0024  2.0332
   28CHL1  H21B 2052   3.132   1.508   9.056 -0.0677  2.6436  1.6560
   28CHL1  H21C 2053   3.037   1.542   9.206  1.0942  1.6294 -1.5449
   28CHL1   C22 2054   3.136   1.228   9.109 -0.2521  0.2778 -0.4114
   28CHL1  H22A 2055   3.181   1.136   9.152  0.7692  0.1072 -1.8121
   28CHL1  H22B 2056   3.034   1.189   9.089 -0.2655 -0.1156  0.4050
   28CHL1   C23 2057   3.193   1.251   8.970 -0.8498  0.3720  0.0712
   28CHL1  H23A 2058   3.116   1.299   8.907 -1.2959  2.3730  2.0785
   28CHL1  H23B 2059   3.293   1.300   8.964 -0.4944 -0.2893  0.5096
   28CHL1   C24 2060   3.231   1.117   8.898  0.1094  0.6031  0.3935
   28CHL1  H24A 2061   3.324   1.081   8.947 -0.4212  0.5039  1.3573
   28CHL1  H24B 2062   3.146   1.052   8.929  0.9255  0.1353  1.6876
   28CHL1   C25 2063   3.230   1.133   8.746  0.6558  0.0429 -0.4406
   28CHL1   H25 2064   3.133   1.178   8.716  1.9378  1.7591 -2.1464
   28CHL1   C26 2065   3.340   1.230   8.687  0.6393  0.8362 -0.8341
   28CHL1  H26A 2066   3.446   1.201   8.706 -0.2228 -1.1631  1.1048
   28CHL1  H26B 2067   3.311   1.227   8.579  0.0866  1.9914 -0.7233
   28CHL1  H26C 2068   3.333   1.335   8.722 -0.7313  0.0475  1.3312
   28CHL1   C27 2069   3.231   0.998   8.673  0.3110 -0.1413  0.0779
   28CHL1  H27A 2070   3.325   0.948   8.705  1.0255  0.7542 -0.5858
   28CHL1  H27B 2071   3.146   0.938   8.709 -0.3881  0.3778 -0.6983
   28CHL1  H27C 2072   3.238   1.019   8.564  1.2876  1.3733  0.4101
   29CHL1    C3 2073   4.767   6.146   6.496  0.7792 -0.3974  0.1781
   29CHL1    H3 2074   4.797   6.253   6.501 -3.2845  0.8279  0.2194
   29CHL1    O3 2075   4.765   6.103   6.357  0.0047 -0.2178 -0.6818
   29CHL1   H3' 2076   4.705   6.028   6.358  0.7549 -0.8296 -0.6942
   29CHL1    C4 2077   4.870   6.057   6.576 -0.1344 -0.0632 -0.5461
   29CHL1   H4A 2078   4.827   5.955   6.567  0.0724 -0.2342  0.3692
   29CHL1   H4B 2079   4.959   6.071   6.512 -0.4675 -2.8328 -1.6711
   29CHL1    C5 2080   4.872   6.109   6.719 -0.7123 -0.3218  0.2786
   29CHL1    C6 2081   4.995   6.151   6.763  0.8989 -0.2885 -0.3296
   29CHL1    H6 2082   5.083   6.137   6.698  1.4523 -1.8204  0.7175
   29CHL1    C7 2083   5.017   6.217   6.900 -0.5509 -0.2358 -0.0139
   29CHL1   H7A 2084   5.111   6.183   6.947 -1.4933  0.1295  2.1861
   29CHL1   H7B 2085   5.012   6.328   6.899 -1.9334 -0.2552  1.9966
   29CHL1    C8 2086   4.897   6.169   6.993 -0.2828  0.1372  0.1472
   29CHL1    H8 2087   4.909   6.060   7.011  1.4953  0.3938  0.5596
   29CHL1   C14 2088   4.898   6.249   7.118  0.7379 -0.3459 -0.8571
   29CHL1   H14 2089   4.866   6.354   7.100  0.8959 -0.5036 -2.0358
   29CHL1   C15 2090   5.031   6.256   7.188 -0.2686 -0.3367  0.2890
   29CHL1  H15A 2091   5.059   6.149   7.202  5.1238  0.4028 -3.4050
   29CHL1  H15B 2092   5.111   6.311   7.135  0.8072 -1.7414  0.4002
   29CHL1   C16 2093   5.003   6.321   7.318 -0.1723 -0.1115 -0.4084
   29CHL1  H16A 2094   5.046   6.260   7.401 -0.3299  0.6087  0.2152
   29CHL1  H16B 2095   5.047   6.419   7.346  0.0334 -0.9067  2.1910
   29CHL1   C17 2096   4.845   6.309   7.344  0.3513  0.9774  0.1094
   29CHL1   H17 2097   4.803   6.410   7.324  0.4420  1.2206  1.0880
   29CHL1   C13 2098   4.796   6.215   7.229  0.1450 -0.9244 -0.7045
   29CHL1   C18 2099   4.814   6.074   7.286  0.6531  0.4060  0.8299
   29CHL1  H18A 2100   4.726   6.036   7.343 -0.8597  0.7830 -1.2002
   29CHL1  H18B 2101   4.835   6.003   7.203 -1.3128 -0.9437  1.4499
   29CHL1  H18C 2102   4.898   6.076   7.359  1.5593 -0.3128 -0.1714
   29CHL1   C12 2103   4.655   6.229   7.161 -0.0200  0.1930 -0.7417
   29CHL1  H12A 2104   4.577   6.189   7.229  0.0193 -2.2563 -2.0964
   29CHL1  H12B 2105   4.627   6.333   7.133 -0.0475 -0.2530 -2.4164
   29CHL1   C11 2106   4.650   6.142   7.025  0.0727  0.1369  0.0517
   29CHL1  H11A 2107   4.656   6.037   7.062  0.9773 -0.1193 -0.8159
   29CHL1  H11B 2108   4.549   6.144   6.977 -0.3706  0.1713  0.9686
   29CHL1    C9 2109   4.759   6.188   6.924 -0.5838 -0.4578  0.4161
   29CHL1    H9 2110   4.754   6.295   6.896 -0.2114 -0.4201  0.4964
   29CHL1   C10 2111   4.740   6.106   6.793  0.6478 -0.3832  0.9867
   29CHL1   C19 2112   4.712   5.949   6.822  0.0656 -0.7446  0.0562
   29CHL1  H19A 2113   4.738   5.889   6.732 -1.7297 -1.5292  0.0416
   29CHL1  H19B 2114   4.779   5.918   6.905 -0.0653  0.7643  0.7407
   29CHL1  H19C 2115   4.609   5.929   6.858 -0.8757  2.8472 -0.4873
   29CHL1    C1 2116   4.628   6.165   6.701 -0.2166  0.4322 -0.5245
   29CHL1   H1A 2117   4.533   6.122   6.739 -1.0384  1.5121 -1.3434
   29CHL1   H1B 2118   4.627   6.275   6.714 -1.4014  0.3009  0.5637
   29CHL1    C2 2119   4.629   6.134   6.551 -0.0363 -0.1674  0.0438
   29CHL1   H2A 2120   4.557   6.204   6.503 -1.1124 -1.7405 -0.6916
   29CHL1   H2B 2121   4.600   6.028   6.533  1.1749 -0.5635  0.3888
   29CHL1   C20 2122   4.803   6.296   7.491 -0.0977 -0.5315  0.2294
   29CHL1   H20 2123   4.836   6.197   7.527 -0.6793 -1.3929 -1.5392
   29CHL1   C21 2124   4.647   6.289   7.501  0.3159 -0.0772  0.0445
   29CHL1  H21A 2125   4.589   6.380   7.476  0.9837  0.1967 -0.5032
   29CHL1  H21B 2126   4.625   6.274   7.609 -2.8852  0.6480 -0.4513
   29CHL1  H21C 2127   4.612   6.200   7.444  2.4301  0.6868 -2.5452
   29CHL1   C22 2128   4.853   6.404   7.582 -0.2854 -0.3872  0.4416
   29CHL1  H22A 2129   4.920   6.470   7.524 -0.6267  0.7465  1.3121
   29CHL1  H22B 2130   4.762   6.466   7.593  0.0785  0.3098 -0.4602
   29CHL1   C23 2131   4.912   6.375   7.728  0.2896 -0.3187 -0.3951
   29CHL1  H23A 2132   4.831   6.322   7.784 -1.7264  2.2096 -0.8104
   29CHL1  H23B 2133   4.999   6.307   7.728  0.8262  0.3642 -1.1772
   29CHL1   C24 2134   4.936   6.503   7.816  0.5856 -0.3877  0.1527
   29CHL1  H24A 2135   5.016   6.564   7.768 -1.0614  0.2297 -1.8810
   29CHL1  H24B 2136   4.841   6.560   7.817  0.8421  0.1256  3.6937
   29CHL1   C25 2137   4.981   6.498   7.962 -0.1802 -0.2434 -0.4340
   29CHL1   H25 2138   4.899   6.439   8.008 -1.5322 -0.1844 -2.7188
   29CHL1   C26 2139   5.122   6.428   7.982 -0.4095 -0.8783  0.1789
   29CHL1  H26A 2140   5.201   6.494   7.941  0.9043 -1.3738  1.8705
   29CHL1  H26B 2141   5.154   6.387   8.080  2.6893  1.0688  0.0456
   29CHL1  H26C 2142   5.124   6.336   7.920  0.0912 -1.5117  1.1317
   29CHL1   C27 2143   4.977   6.633   8.032 -0.0830 -0.1421  0.1836
   29CHL1  H27A 2144   4.874   6.661   8.062 -0.7312 -0.5538 -1.5901
   29CHL1  H27B 2145   5.036   6.633   8.127  0.1688 -1.3974  0.0418
   29CHL1  H27C 2146   5.015   6.712   7.964  0.0070 -0.5560 -0.2540
   30CHL1    C3 2147   3.197   4.551   7.150  0.1005 -0.1471  0.3054
   30CHL1    H3 2148   3.306   4.532   7.164  0.0086 -0.0457  1.2493
   30CHL1    O3 2149   3.174   4.524   7.014 -0.1885 -0.6126 -0.1877
   30CHL1   H3' 2150   3.210   4.595   6.960  2.9202 -2.0996 -0.1628
   30CHL1    C4 2151   3.121   4.455   7.239  0.0207  0.0983  0.6113
   30CHL1   H4A 2152   3.015   4.459   7.208  0.6313 -2.0363 -1.9037
   30CHL1   H4B 2153   3.159   4.352   7.219  0.2818  0.4356 -0.6566
   30CHL1    C5 2154   3.144   4.480   7.393 -0.3261 -0.1729 -0.6573
   30CHL1    C6 2155   3.207   4.380   7.461 -0.5164  0.0392  0.2997
   30CHL1    H6 2156   3.225   4.283   7.411 -1.5535 -1.2248  2.2930
   30CHL1    C7 2157   3.213   4.378   7.614 -0.2158 -0.3053 -0.5398
   30CHL1   H7A 2158   3.159   4.294   7.662 -1.9567  0.7708 -0.5595
   30CHL1   H7B 2159   3.317   4.378   7.653 -0.2926  1.6481 -0.2700
   30CHL1    C8 2160   3.143   4.505   7.673  0.2978 -0.3525 -1.5438
   30CHL1    H8 2161   3.036   4.494   7.700  0.4728 -0.7438 -0.9981
   30CHL1   C14 2162   3.202   4.543   7.804 -0.1585 -0.1454 -0.3478
   30CHL1   H14 2163   3.311   4.546   7.781  0.4608 -1.4021  2.2939
   30CHL1   C15 2164   3.187   4.436   7.915  0.3179 -0.0055  0.4303
   30CHL1  H15A 2165   3.086   4.389   7.911 -0.3240  1.4672 -1.9121
   30CHL1  H15B 2166   3.247   4.342   7.916  2.1996  1.1888  1.2819
   30CHL1   C16 2167   3.225   4.510   8.040 -0.2801 -0.3026 -0.3796
   30CHL1  H16A 2168   3.162   4.481   8.127 -0.0652  0.6404  0.0999
   30CHL1  H16B 2169   3.326   4.486   8.080 -0.9168 -0.4627  1.1560
   30CHL1   C17 2170   3.227   4.665   7.996  0.5797 -0.0244 -0.4190
   30CHL1   H17 2171   3.334   4.674   7.967 -0.0179 -2.2994 -3.7250
   30CHL1   C13 2172   3.160   4.674   7.862  0.8671 -0.5708 -0.4642
   30CHL1   C18 2173   3.000   4.691   7.892 -0.1086 -0.0684  0.3394
   30CHL1  H18A 2174   2.964   4.626   7.974  1.0631  0.7487  1.5140
   30CHL1  H18B 2175   2.994   4.796   7.926  0.1241 -0.1641  0.6740
   30CHL1  H18C 2176   2.946   4.672   7.796  1.0820  1.1850 -0.5968
   30CHL1   C12 2177   3.200   4.796   7.772 -0.0642 -0.1677 -0.5056
   30CHL1  H12A 2178   3.168   4.891   7.819 -1.1959  0.0957 -1.7761
   30CHL1  H12B 2179   3.311   4.797   7.765  0.0456  0.8520  1.1562
   30CHL1   C11 2180   3.132   4.782   7.635 -0.5482 -0.1094 -0.4677
   30CHL1  H11A 2181   3.022   4.793   7.647 -0.1561  0.1735  3.6856
   30CHL1  H11B 2182   3.167   4.868   7.575 -1.8374  0.8211  0.0928
   30CHL1    C9 2183   3.160   4.638   7.576  0.0727  0.7913  0.1993
   30CHL1    H9 2184   3.270   4.637   7.561  0.3010  3.3097  1.3710
   30CHL1   C10 2185   3.105   4.615   7.434 -0.3124  0.8200 -0.7982
   30CHL1   C19 2186   2.946   4.629   7.443 -0.3576  0.2849  0.1394
   30CHL1  H19A 2187   2.910   4.573   7.532 -0.0409  0.3042  0.2789
   30CHL1  H19B 2188   2.925   4.735   7.468  0.2213  0.3454  0.3762
   30CHL1  H19C 2189   2.888   4.594   7.355  0.7162  0.0797 -0.4992
   30CHL1    C1 2190   3.172   4.718   7.333 -0.3228  0.3019 -0.5820
   30CHL1   H1A 2191   3.136   4.819   7.363 -2.1306 -0.6201  0.4340
   30CHL1   H1B 2192   3.282   4.715   7.349 -0.0192 -0.2161 -2.5996
   30CHL1    C2 2193   3.153   4.693   7.189 -0.3172  0.2815  0.1170
   30CHL1   H2A 2194   3.207   4.768   7.126 -0.2701 -0.0087 -0.1901
   30CHL1   H2B 2195   3.046   4.710   7.167 -0.7841 -2.3136  0.1824
   30CHL1   C20 2196   3.182   4.754   8.115  0.6670 -0.1665 -0.5692
   30CHL1   H20 2197   3.115   4.833   8.077 -1.4901 -1.6682 -0.0211
   30CHL1   C21 2198   3.312   4.828   8.155  0.4509  0.4866  0.1073
   30CHL1  H21A 2199   3.300   4.902   8.236 -2.2196 -1.6597  1.7688
   30CHL1  H21B 2200   3.356   4.872   8.063 -0.0285 -0.0728 -0.3971
   30CHL1  H21C 2201   3.388   4.751   8.182  0.9572  0.9858  0.1068
   30CHL1   C22 2202   3.122   4.685   8.238  0.0892 -0.4663  0.2060
   30CHL1  H22A 2203   3.039   4.631   8.188 -0.8381 -0.0583  1.3071
   30CHL1  H22B 2204   3.193   4.610   8.279 -2.1482 -1.2032  2.9130
   30CHL1   C23 2205   3.056   4.775   8.341 -0.3928  0.6523  0.1538
   30CHL1  H23A 2206   3.120   4.861   8.370  0.7559  0.0291 -0.5303
   30CHL1  H23B 2207   2.964   4.820   8.298 -0.8129 -1.4219 -1.1837
   30CHL1   C24 2208   3.035   4.695   8.472  0.4625  0.0307  0.3222
   30CHL1  H24A 2209   2.956   4.620   8.455  0.8135 -0.1703 -0.4455
   30CHL1  H24B 2210   3.128   4.638   8.494  0.5695  0.0493 -0.0835
   30CHL1   C25 2211   3.005   4.785   8.598 -0.0365  0.5926  0.7782
   30CHL1   H25 2212   3.078   4.869   8.601 -1.7829  2.1411  1.1193
   30CHL1   C26 2213   2.856   4.844   8.597  0.2136 -0.3849  0.3713
   30CHL1  H26A 2214   2.788   4.765   8.557  3.6248 -3.3678  0.2504
   30CHL1  H26B 2215   2.827   4.889   8.694  1.0632  0.2217  0.3491
   30CHL1  H26C 2216   2.855   4.921   8.517 -0.6695 -1.5124 -0.7219
   30CHL1   C27 2217   3.012   4.706   8.729 -0.0757  0.0733 -0.4654
   30CHL1  H27A 2218   2.942   4.620   8.723  1.1455 -0.8712 -1.1464
   30CHL1  H27B 2219   3.114   4.673   8.755 -1.1029 -2.0222  1.1305
   30CHL1  H27C 2220   2.968   4.763   8.814  1.6783 -0.0433  0.5427
   31CHL1    C3 2221   2.215   6.264   6.776  0.5913 -0.1132  0.3997
   31CHL1    H3 2222   2.181   6.370   6.780  0.3273 -0.1197 -1.4895
   31CHL1    O3 2223   2.197   6.234   6.643  0.3071 -0.3176 -0.1938
   31CHL1   H3' 2224   2.115   6.185   6.640  1.0009 -1.5211  0.1321
   31CHL1    C4 2225   2.360   6.242   6.809  0.2371 -0.2390 -0.4752
   31CHL1   H4A 2226   2.376   6.135   6.784  2.3173  0.4533 -2.2865
   31CHL1   H4B 2227   2.432   6.292   6.741 -0.2327  0.4274 -0.4819
   31CHL1    C5 2228   2.386   6.269   6.961  0.2490 -0.2581  0.5129
   31CHL1    C6 2229   2.484   6.349   6.995 -0.0133  0.0837  0.9072
   31CHL1    H6 2230   2.552   6.395   6.922 -1.8563  0.9280 -0.3002
   31CHL1    C7 2231   2.514   6.381   7.140 -0.4244  0.2346  0.0858
   31CHL1   H7A 2232   2.625   6.384   7.152 -0.2531 -1.0318 -1.1182
   31CHL1   H7B 2233   2.472   6.483   7.155 -1.5737 -0.2573  0.2200
   31CHL1    C8 2234   2.459   6.290   7.237 -0.1822  0.0411  0.1967
   31CHL1    H8 2235   2.518   6.196   7.238  0.3714  0.3609 -1.0405
   31CHL1   C14 2236   2.463   6.343   7.376 -0.4487  0.2534 -0.2831
   31CHL1   H14 2237   2.390   6.426   7.386  0.2758  0.8252  0.4069
   31CHL1   C15 2238   2.590   6.412   7.425  0.4541 -0.1932  0.1051
   31CHL1  H15A 2239   2.681   6.355   7.396  1.1166  0.4679  0.8869
   31CHL1  H15B 2240   2.591   6.516   7.387  0.9045  0.1662  1.0841
   31CHL1   C16 2241   2.565   6.424   7.569 -0.2541  0.1345 -0.2607
   31CHL1  H16A 2242   2.650   6.383   7.628 -0.6326 -0.3066 -0.0211
   31CHL1  H16B 2243   2.550   6.529   7.603 -2.7010  0.7385 -3.0016
   31CHL1   C17 2244   2.437   6.349   7.612 -0.3245 -0.9294 -0.8357
   31CHL1   H17 2245   2.362   6.430   7.603  0.2448 -0.3798 -0.6373
   31CHL1   C13 2246   2.412   6.257   7.497 -0.5178  0.1596 -0.4351
   31CHL1   C18 2247   2.509   6.133   7.504  0.3010  0.4861 -0.1054
   31CHL1  H18A 2248   2.480   6.067   7.588  2.6456 -0.6468 -0.1407
   31CHL1  H18B 2249   2.500   6.068   7.415  1.1404  0.4194 -0.1503
   31CHL1  H18C 2250   2.610   6.178   7.518  1.5004 -2.1762  0.0817
   31CHL1   C12 2251   2.266   6.210   7.459 -0.5141 -0.9838  1.2295
   31CHL1  H12A 2252   2.244   6.125   7.528 -0.7505 -1.9137  0.0208
   31CHL1  H12B 2253   2.193   6.292   7.472  1.3332  0.6690  1.5390
   31CHL1   C11 2254   2.260   6.149   7.317  0.2991 -0.4017 -0.5700
   31CHL1  H11A 2255   2.301   6.046   7.311  0.6921 -0.2755 -0.0685
   31CHL1  H11B 2256   2.153   6.129   7.298  0.6339 -1.2571 -1.5920
   31CHL1    C9 2257   2.313   6.250   7.204  0.9649 -0.5959 -0.0427
   31CHL1    H9 2258   2.249   6.335   7.236 -0.8765 -1.4091 -1.4084
   31CHL1   C10 2259   2.290   6.198   7.065  0.1781 -0.4346 -0.0376
   31CHL1   C19 2260   2.325   6.045   7.052 -0.3506  0.1142 -0.1774
   31CHL1  H19A 2261   2.430   6.022   7.082  0.2523  1.5875 -1.1065
   31CHL1  H19B 2262   2.251   5.987   7.112  0.0286  0.5285  0.7116
   31CHL1  H19C 2263   2.314   6.005   6.949  1.0420  0.2789 -0.3994
   31CHL1    C1 2264   2.143   6.213   7.020  0.0299  0.0065 -0.3120
   31CHL1   H1A 2265   2.076   6.145   7.076 -0.2883 -1.3000 -2.2424
   31CHL1   H1B 2266   2.116   6.317   7.046 -0.4943  0.1444 -1.4125
   31CHL1    C2 2267   2.112   6.185   6.866 -0.8284 -0.5466  0.5732
   31CHL1   H2A 2268   2.013   6.222   6.831  0.1398  3.7341  2.0647
   31CHL1   H2B 2269   2.119   6.076   6.848 -0.7506 -0.7877  2.0007
   31CHL1   C20 2270   2.433   6.292   7.754 -0.4124  0.1568 -0.1677
   31CHL1   H20 2271   2.514   6.215   7.754  2.3198  2.9017 -1.2750
   31CHL1   C21 2272   2.302   6.220   7.794 -0.0093 -0.2285  0.3180
   31CHL1  H21A 2273   2.285   6.123   7.743 -1.8494  0.7602 -0.9849
   31CHL1  H21B 2274   2.215   6.286   7.771  0.3692  0.4980  0.9253
   31CHL1  H21C 2275   2.298   6.203   7.904 -0.4146  1.4808  0.5819
   31CHL1   C22 2276   2.480   6.390   7.875  0.0686  0.0173 -0.2730
   31CHL1  H22A 2277   2.460   6.341   7.972 -2.4337 -1.1495 -1.3172
   31CHL1  H22B 2278   2.591   6.391   7.870  0.1004 -0.0024  0.3811
   31CHL1   C23 2279   2.411   6.525   7.877  0.1684 -0.9506 -0.1873
   31CHL1  H23A 2280   2.387   6.559   7.774 -0.9665  2.5497  1.1562
   31CHL1  H23B 2281   2.325   6.529   7.947 -0.4972  0.4023 -1.0681
   31CHL1   C24 2282   2.513   6.628   7.929 -0.0941  0.7698 -0.3029
   31CHL1  H24A 2283   2.543   6.607   8.033 -0.0563 -1.8466 -0.8031
   31CHL1  H24B 2284   2.610   6.618   7.876  1.2729  2.7989  1.7868
   31CHL1   C25 2285   2.481   6.777   7.918  0.2555 -0.0070 -0.1668
   31CHL1   H25 2286   2.456   6.788   7.810 -1.5329 -0.3131  0.1876
   31CHL1   C26 2287   2.352   6.831   7.984  0.7307 -0.7253 -0.0411
   31CHL1  H26A 2288   2.263   6.786   7.934  0.9195  0.2024 -1.2500
   31CHL1  H26B 2289   2.348   6.805   8.091  0.9161  1.7015  0.5888
   31CHL1  H26C 2290   2.347   6.941   7.964  0.7782 -0.4914  1.2356
   31CHL1   C27 2291   2.603   6.865   7.944 -0.1864 -0.2061  0.7154
   31CHL1  H27A 2292   2.613   6.864   8.055 -3.1646 -1.5431  1.0014
   31CHL1  H27B 2293   2.590   6.970   7.909 -0.0967 -0.2147  0.6578
   31CHL1  H27C 2294   2.687   6.814   7.892 -1.0423 -1.3724  0.4753
   32CHL1    C3 2295   3.644   4.786   7.114  0.2908 -0.1420 -0.2277
   32CHL1    H3 2296   3.741   4.733   7.121 -0.0439 -1.0839 -2.4603
   32CHL1    O3 2297   3.605   4.798   6.979  0.4149  0.0778  0.7213
   32CHL1   H3' 2298   3.599   4.894   6.983  1.6630  0.1362  1.5504
   32CHL1    C4 2299   3.528   4.722   7.189 -0.1363  0.4031  0.3329
   32CHL1   H4A 2300   3.439   4.786   7.170 -0.3142  1.2436  3.6880
   32CHL1   H4B 2301   3.510   4.623   7.142 -1.5539  0.1272  1.4189
   32CHL1    C5 2302   3.558   4.707   7.339  0.4375  0.2261  0.9777
   32CHL1    C6 2303   3.549   4.595   7.405  0.8929  0.3177 -0.1973
   32CHL1    H6 2304   3.534   4.501   7.351  0.3732  0.5248 -0.4123
   32CHL1    C7 2305   3.575   4.589   7.554  0.5652  0.0751  0.1544
   32CHL1   H7A 2306   3.496   4.532   7.608  0.3449  2.1983  2.1694
   32CHL1   H7B 2307   3.669   4.532   7.572  1.2517  0.9241 -0.6715
   32CHL1    C8 2308   3.603   4.720   7.631 -0.3755  0.2400 -0.5121
   32CHL1    H8 2309   3.506   4.763   7.664  1.7462  4.0822  1.0308
   32CHL1   C14 2310   3.688   4.705   7.756 -0.0206  0.4815 -0.2276
   32CHL1   H14 2311   3.785   4.665   7.718 -1.2233 -0.3712 -2.5171
   32CHL1   C15 2312   3.633   4.602   7.858 -0.3024  0.3312 -0.1288
   32CHL1  H15A 2313   3.523   4.610   7.876 -0.3622 -1.3049  0.3169
   32CHL1  H15B 2314   3.656   4.496   7.835 -2.8881 -0.8986  2.5570
   32CHL1   C16 2315   3.691   4.640   7.995  0.3532 -0.3223  0.7734
   32CHL1  H16A 2316   3.609   4.657   8.069 -0.0483 -1.5383  0.6193
   32CHL1  H16B 2317   3.740   4.550   8.036  1.2293 -0.7935 -1.2603
   32CHL1   C17 2318   3.776   4.773   7.966  0.2538  0.2542 -0.6613
   32CHL1   H17 2319   3.872   4.731   7.927  0.5894  0.0108  0.4167
   32CHL1   C13 2320   3.717   4.833   7.839  0.0438 -0.0821 -0.2223
   32CHL1   C18 2321   3.594   4.906   7.889  0.4890 -0.2256  0.0924
   32CHL1  H18A 2322   3.546   4.944   7.797 -0.1127  0.4325  0.6699
   32CHL1  H18B 2323   3.528   4.832   7.940  0.1514  1.9916  3.0085
   32CHL1  H18C 2324   3.609   4.993   7.956 -1.0170  0.7318 -0.8056
   32CHL1   C12 2325   3.795   4.930   7.749  0.9287 -1.1965  0.4911
   32CHL1  H12A 2326   3.814   5.028   7.798  1.0479 -0.0638 -1.7570
   32CHL1  H12B 2327   3.892   4.884   7.721  0.7846 -1.3286  0.2094
   32CHL1   C11 2328   3.725   4.951   7.611  0.7232 -0.0641  0.2378
   32CHL1  H11A 2329   3.640   5.021   7.624  0.4492 -0.4090  0.3113
   32CHL1  H11B 2330   3.797   5.003   7.545  2.5586 -1.1216  1.3458
   32CHL1    C9 2331   3.682   4.819   7.540 -0.1451  0.8675  0.0194
   32CHL1    H9 2332   3.778   4.770   7.515 -0.4460  0.3802 -0.1905
   32CHL1   C10 2333   3.608   4.838   7.404 -0.0356  0.6000  0.3324
   32CHL1   C19 2334   3.486   4.930   7.432 -0.6239 -0.8060  0.4191
   32CHL1  H19A 2335   3.419   4.893   7.512  0.9922 -1.3389  1.5510
   32CHL1  H19B 2336   3.520   5.031   7.462  0.9865 -0.2520 -3.0247
   32CHL1  H19C 2337   3.419   4.949   7.345 -1.6099 -0.6815  1.1950
   32CHL1    C1 2338   3.703   4.928   7.312  0.4050  0.7766 -0.1413
   32CHL1   H1A 2339   3.696   5.035   7.343  1.6979  0.6998  0.4370
   32CHL1   H1B 2340   3.807   4.895   7.330  0.2260 -0.5655 -1.5491
   32CHL1    C2 2341   3.676   4.931   7.170  0.5362  0.8246 -0.5041
   32CHL1   H2A 2342   3.759   4.973   7.109  1.4798 -0.4894 -0.1522
   32CHL1   H2B 2343   3.583   4.991   7.156 -0.0782 -0.3303 -1.5250
   32CHL1   C20 2344   3.793   4.860   8.092 -0.4827 -0.9872  0.1055
   32CHL1   H20 2345   3.708   4.930   8.109  0.4999  0.8052 -2.1193
   32CHL1   C21 2346   3.918   4.943   8.063 -0.0266  0.2866 -0.0295
   32CHL1  H21A 2347   3.988   4.875   8.010 -0.7986 -1.7541  1.5483
   32CHL1  H21B 2348   3.969   4.977   8.156 -0.1127 -0.8937  0.4486
   32CHL1  H21C 2349   3.901   5.036   8.005 -2.3192  1.5525  2.5478
   32CHL1   C22 2350   3.821   4.780   8.225 -0.0139  0.1437 -0.3176
   32CHL1  H22A 2351   3.759   4.687   8.228 -0.2762  0.2960 -0.9421
   32CHL1  H22B 2352   3.926   4.748   8.213 -0.0604 -0.1707  0.0719
   32CHL1   C23 2353   3.807   4.868   8.353  0.0586 -1.1443 -0.2523
   32CHL1  H23A 2354   3.889   4.942   8.345 -0.8986 -0.1832 -1.4496
   32CHL1  H23B 2355   3.709   4.921   8.345  1.1587  0.7555 -1.7219
   32CHL1   C24 2356   3.811   4.785   8.480  0.1012  0.5903  0.2886
   32CHL1  H24A 2357   3.725   4.716   8.480 -0.2743  1.0021  2.6377
   32CHL1  H24B 2358   3.903   4.722   8.483 -0.3886 -0.1091  0.7308
   32CHL1   C25 2359   3.806   4.863   8.610 -0.4726  0.4112 -0.3155
   32CHL1   H25 2360   3.719   4.932   8.615 -0.5841  0.2669 -0.2480
   32CHL1   C26 2361   3.769   4.775   8.730 -0.5346 -0.1517  0.8296
   32CHL1  H26A 2362   3.678   4.717   8.704  0.0535  0.4012 -2.5987
   32CHL1  H26B 2363   3.848   4.700   8.755  0.8630  0.8256 -0.5951
   32CHL1  H26C 2364   3.745   4.837   8.819 -0.0179  0.9784  0.1844
   32CHL1   C27 2365   3.929   4.943   8.631  0.5537 -0.2540 -0.1636
   32CHL1  H27A 2366   3.923   5.017   8.713 -1.1026  0.1759 -0.6496
   32CHL1  H27B 2367   4.012   4.872   8.653  0.2083 -1.4269 -2.4729
   32CHL1  H27C 2368   3.963   5.000   8.542 -0.1978 -0.4478 -0.5806
   33CHL1    C3 2369   4.393   4.878   6.801  0.3819 -0.1731  0.0036
   33CHL1    H3 2370   4.356   4.774   6.787 -1.6215  0.9159 -3.2779
   33CHL1    O3 2371   4.404   4.928   6.670  0.0304 -0.3122 -0.2637
   33CHL1   H3' 2372   4.441   5.016   6.672 -2.7143  0.8974 -1.2602
   33CHL1    C4 2373   4.278   4.968   6.865  1.0207 -1.3299  0.6026
   33CHL1   H4A 2374   4.306   5.072   6.838 -5.0495  0.5473  0.9023
   33CHL1   H4B 2375   4.186   4.945   6.808  1.5424 -3.2906  0.4883
   33CHL1    C5 2376   4.267   4.950   7.020 -0.1712  0.0133 -0.6425
   33CHL1    C6 2377   4.155   4.921   7.081  0.4644 -0.3560 -0.3623
   33CHL1    H6 2378   4.059   4.928   7.028  1.9606 -1.1348 -3.2758
   33CHL1    C7 2379   4.133   4.895   7.232 -0.0491 -0.6010 -0.1015
   33CHL1   H7A 2380   4.041   4.941   7.273  1.1729  1.4569  0.4002
   33CHL1   H7B 2381   4.139   4.787   7.257  1.1470  0.0454  2.6211
   33CHL1    C8 2382   4.257   4.951   7.309  0.2999 -0.0489 -0.2116
   33CHL1    H8 2383   4.254   5.062   7.307  2.3492  0.0636  0.6003
   33CHL1   C14 2384   4.260   4.902   7.451  0.2434 -0.0580  0.6505
   33CHL1   H14 2385   4.267   4.792   7.438 -2.6156 -0.1475 -0.3773
   33CHL1   C15 2386   4.131   4.922   7.539 -0.9843 -0.4425  0.0857
   33CHL1  H15A 2387   4.103   5.029   7.531 -0.2961 -0.1764  1.0714
   33CHL1  H15B 2388   4.051   4.860   7.493 -0.1360 -1.7350  0.3146
   33CHL1   C16 2389   4.183   4.890   7.682  0.4001  0.0001  0.5223
   33CHL1  H16A 2390   4.151   4.983   7.735  0.4508 -0.1466  0.8097
   33CHL1  H16B 2391   4.139   4.798   7.725 -1.3195  0.7722  0.4589
   33CHL1   C17 2392   4.337   4.882   7.681 -0.7534  0.2778 -0.0811
   33CHL1   H17 2393   4.358   4.773   7.676 -0.2897  0.1699  3.1730
   33CHL1   C13 2394   4.375   4.947   7.540  0.0081  0.3563 -0.4961
   33CHL1   C18 2395   4.383   5.098   7.563 -0.3733 -0.2398 -0.2134
   33CHL1  H18A 2396   4.476   5.126   7.616 -0.7059 -2.1654  1.4372
   33CHL1  H18B 2397   4.392   5.153   7.467  1.2333  3.1881  1.8038
   33CHL1  H18C 2398   4.298   5.147   7.615 -0.4956 -0.1096 -0.5291
   33CHL1   C12 2399   4.510   4.897   7.477  0.5306 -0.6839 -0.7127
   33CHL1  H12A 2400   4.588   4.955   7.530 -1.4671  0.9288  0.5670
   33CHL1  H12B 2401   4.518   4.787   7.491 -1.6329 -0.8618 -0.6946
   33CHL1   C11 2402   4.518   4.931   7.327  0.3318 -0.7323 -0.0438
   33CHL1  H11A 2403   4.518   5.042   7.322  0.0968 -0.8384 -2.7536
   33CHL1  H11B 2404   4.606   4.886   7.277  0.6927  0.7494 -0.7595
   33CHL1    C9 2405   4.388   4.907   7.246 -0.2619  0.1462  0.8400
   33CHL1    H9 2406   4.379   4.796   7.240 -1.5361  0.1861  1.7470
   33CHL1   C10 2407   4.398   4.955   7.094  0.9092 -0.0429 -0.2337
   33CHL1   C19 2408   4.446   5.106   7.084  0.1436  0.0058 -0.3163
   33CHL1  H19A 2409   4.429   5.157   6.987  2.5636  0.8623 -0.3391
   33CHL1  H19B 2410   4.401   5.166   7.166  1.5988  0.5289  0.1140
   33CHL1  H19C 2411   4.554   5.109   7.110 -0.0933 -1.6869  0.9478
   33CHL1    C1 2412   4.506   4.857   7.020 -0.4542  0.1080 -0.1017
   33CHL1   H1A 2413   4.602   4.869   7.074 -1.6831  0.9979  1.9425
   33CHL1   H1B 2414   4.482   4.748   7.013  2.0039 -0.3671 -1.8792
   33CHL1    C2 2415   4.528   4.887   6.871  0.8137 -0.2217 -0.1618
   33CHL1   H2A 2416   4.600   4.815   6.826  1.6865  1.3629 -1.3228
   33CHL1   H2B 2417   4.575   4.983   6.845 -0.6008  0.4537 -0.2936
   33CHL1   C20 2418   4.395   4.928   7.817  0.6388 -0.5440 -0.1817
   33CHL1   H20 2419   4.386   5.038   7.813 -0.7380 -0.6907 -1.7718
   33CHL1   C21 2420   4.543   4.894   7.814  0.5147  0.1928  0.6639
   33CHL1  H21A 2421   4.562   4.789   7.782 -0.5464  0.5697 -1.2555
   33CHL1  H21B 2422   4.585   4.922   7.913 -0.5538  1.5905  0.7208
   33CHL1  H21C 2423   4.591   4.956   7.735 -0.3375 -1.2233 -1.0156
   33CHL1   C22 2424   4.318   4.871   7.942 -0.1438 -0.4674  0.1710
   33CHL1  H22A 2425   4.228   4.936   7.956 -0.6750 -0.8386 -1.3803
   33CHL1  H22B 2426   4.283   4.767   7.927 -0.6956 -0.4218  1.0944
   33CHL1   C23 2427   4.392   4.873   8.080 -0.4076 -0.0836  0.6489
   33CHL1  H23A 2428   4.489   4.818   8.072 -0.6866 -0.5490  0.4269
   33CHL1  H23B 2429   4.424   4.977   8.101 -1.5622  0.5157 -0.4801
   33CHL1   C24 2430   4.309   4.814   8.194 -0.3082  0.0902  0.1587
   33CHL1  H24A 2431   4.201   4.824   8.169 -0.0660 -0.2372 -1.0751
   33CHL1  H24B 2432   4.321   4.704   8.203  1.7606  0.4878  2.5453
   33CHL1   C25 2433   4.321   4.873   8.335  0.2200  0.2251  0.1521
   33CHL1   H25 2434   4.316   4.983   8.317 -3.1253  0.0978 -0.0072
   33CHL1   C26 2435   4.208   4.851   8.426 -0.2367 -0.0704  0.5821
   33CHL1  H26A 2436   4.113   4.867   8.372  0.4145  0.1423 -0.5062
   33CHL1  H26B 2437   4.203   4.750   8.473 -3.4098  0.7870  2.2812
   33CHL1  H26C 2438   4.211   4.928   8.506 -0.5159  1.4474 -0.8470
   33CHL1   C27 2439   4.449   4.837   8.398 -0.3809 -0.7583 -0.4387
   33CHL1  H27A 2440   4.436   4.737   8.443 -0.0857  0.4198  2.3673
   33CHL1  H27B 2441   4.529   4.833   8.320 -1.7311  3.0466 -2.1633
   33CHL1  H27C 2442   4.483   4.923   8.460 -1.5401  0.0536 -0.9190
   34CHL1    C3 2443   5.510   3.540   7.012  0.2228  0.2620 -0.3787
   34CHL1    H3 2444   5.616   3.559   7.040  0.1505 -0.3036  0.2845
   34CHL1    O3 2445   5.504   3.566   6.874 -0.9409 -0.5914  0.4356
   34CHL1   H3' 2446   5.586   3.528   6.844 -0.2599  1.0863  0.1274
   34CHL1    C4 2447   5.470   3.401   7.052 -0.5582  0.2179  0.2481
   34CHL1   H4A 2448   5.362   3.396   7.026 -0.2919  1.5917 -1.2487
   34CHL1   H4B 2449   5.522   3.315   7.004 -2.3950 -0.6918 -0.1453
   34CHL1    C5 2450   5.487   3.387   7.201 -0.7924  0.2520 -0.3385
   34CHL1    C6 2451   5.579   3.305   7.255  1.0605  0.0269  0.3012
   34CHL1    H6 2452   5.639   3.238   7.191 -1.6757 -0.9091 -1.3550
   34CHL1    C7 2453   5.600   3.280   7.403  0.0466 -0.3216  0.2836
   34CHL1   H7A 2454   5.614   3.173   7.430 -0.2412 -0.3599  0.2864
   34CHL1   H7B 2455   5.693   3.337   7.421 -0.3450  1.6406 -3.3832
   34CHL1    C8 2456   5.480   3.324   7.483  0.5075 -0.1158  0.0036
   34CHL1    H8 2457   5.400   3.252   7.454  3.4703 -2.9203 -1.5638
   34CHL1   C14 2458   5.511   3.331   7.630  0.1438  0.4278 -0.5045
   34CHL1   H14 2459   5.584   3.413   7.646 -0.5917  0.8229  0.8447
   34CHL1   C15 2460   5.591   3.206   7.694 -0.1999  0.1712 -0.4787
   34CHL1  H15A 2461   5.540   3.118   7.649 -1.6253  0.5739  0.3077
   34CHL1  H15B 2462   5.700   3.194   7.675  0.1649 -1.5729  2.3839
   34CHL1   C16 2463   5.558   3.223   7.842  0.0002  0.1609 -0.0832
   34CHL1  H16A 2464   5.533   3.125   7.887 -0.0975  0.2141 -0.0228
   34CHL1  H16B 2465   5.655   3.252   7.886 -0.1619  0.2111  0.2424
   34CHL1   C17 2466   5.456   3.335   7.855  0.3982  1.1497 -0.2305
   34CHL1   H17 2467   5.528   3.417   7.872  1.4572  0.2607 -0.4192
   34CHL1   C13 2468   5.395   3.361   7.713  0.3836  0.6227  0.2097
   34CHL1   C18 2469   5.284   3.254   7.684 -0.1395  0.7033 -0.1288
   34CHL1  H18A 2470   5.206   3.263   7.762 -0.7541 -1.5523 -0.4716
   34CHL1  H18B 2471   5.237   3.252   7.583 -0.1350 -2.1318 -0.1133
   34CHL1  H18C 2472   5.332   3.155   7.700  1.2460  1.0308 -2.0483
   34CHL1   C12 2473   5.347   3.498   7.680 -0.4780 -0.7188 -0.1719
   34CHL1  H12A 2474   5.262   3.538   7.741 -0.4714 -2.7595  1.2458
   34CHL1  H12B 2475   5.434   3.560   7.709  0.4941 -2.0530 -0.2327
   34CHL1   C11 2476   5.319   3.520   7.532 -0.0029 -0.7884  0.0053
   34CHL1  H11A 2477   5.224   3.464   7.516 -0.5330 -0.3749  1.5843
   34CHL1  H11B 2478   5.299   3.626   7.506 -0.5583  0.0999  3.7433
   34CHL1    C9 2479   5.429   3.461   7.442 -0.6341 -0.0273 -0.5007
   34CHL1    H9 2480   5.521   3.523   7.452 -0.0281 -1.0422  0.4452
   34CHL1   C10 2481   5.390   3.476   7.286 -0.3544  0.1320 -0.1214
   34CHL1   C19 2482   5.246   3.424   7.257 -0.0150  0.5365  0.2524
   34CHL1  H19A 2483   5.212   3.403   7.153 -1.1549  1.4624  0.4163
   34CHL1  H19B 2484   5.226   3.334   7.319 -1.2449  0.3120 -0.4485
   34CHL1  H19C 2485   5.165   3.489   7.297 -0.7519 -0.9916  1.3090
   34CHL1    C1 2486   5.420   3.622   7.245  0.8611 -0.2106  0.1661
   34CHL1   H1A 2487   5.340   3.689   7.282 -0.7776 -1.5842 -0.8342
   34CHL1   H1B 2488   5.521   3.661   7.271  0.1093  1.5852  0.4658
   34CHL1    C2 2489   5.413   3.641   7.087  0.2784  0.5672  0.2081
   34CHL1   H2A 2490   5.444   3.746   7.067  0.3073  0.1764 -1.9038
   34CHL1   H2B 2491   5.311   3.621   7.050  0.5290 -0.6270  0.1549
   34CHL1   C20 2492   5.362   3.311   7.976  0.0051  0.7851  0.4141
   34CHL1   H20 2493   5.309   3.215   7.958  1.0175  0.4901 -1.0419
   34CHL1   C21 2494   5.257   3.424   7.986  0.2414 -0.3041  0.5592
   34CHL1  H21A 2495   5.313   3.520   7.985 -1.3452  0.6387 -0.8926
   34CHL1  H21B 2496   5.185   3.418   8.071  1.2508  3.0033  1.7339
   34CHL1  H21C 2497   5.196   3.417   7.894  1.2021 -0.5226 -0.0619
   34CHL1   C22 2498   5.438   3.289   8.110  0.5154 -0.6185  0.5389
   34CHL1  H22A 2499   5.365   3.289   8.194 -0.0677  1.0485  0.0652
   34CHL1  H22B 2500   5.504   3.200   8.107  1.5851  0.0100  3.2277
   34CHL1   C23 2501   5.539   3.393   8.153  0.0579 -0.0816 -0.1795
   34CHL1  H23A 2502   5.615   3.415   8.075  0.7819  1.3932  0.9236
   34CHL1  H23B 2503   5.486   3.490   8.165  0.3935  0.1553 -0.5910
   34CHL1   C24 2504   5.615   3.359   8.288 -0.2833 -0.5510 -0.3375
   34CHL1  H24A 2505   5.541   3.303   8.350  1.0290 -2.8969 -0.8416
   34CHL1  H24B 2506   5.693   3.289   8.251 -0.4043 -0.8307 -0.0655
   34CHL1   C25 2507   5.677   3.483   8.352 -0.4865  0.7931 -0.3438
   34CHL1   H25 2508   5.730   3.544   8.276  1.6896 -1.4650 -0.7062
   34CHL1   C26 2509   5.562   3.562   8.435  0.0882 -0.0137 -0.0404
   34CHL1  H26A 2510   5.617   3.648   8.479  1.7016 -0.8726 -0.3426
   34CHL1  H26B 2511   5.479   3.610   8.380 -0.7382  0.0113  1.2203
   34CHL1  H26C 2512   5.532   3.485   8.509  1.0200 -1.1213 -0.7884
   34CHL1   C27 2513   5.781   3.428   8.451 -0.4422 -0.5361  0.1032
   34CHL1  H27A 2514   5.842   3.354   8.394 -1.1676 -1.2702  0.2760
   34CHL1  H27B 2515   5.835   3.515   8.495 -0.9492 -1.0568  1.7928
   34CHL1  H27C 2516   5.725   3.379   8.533 -0.5748 -0.7689 -0.1258
   35CHL1    C3 2517   2.207   4.525   7.236  0.1428  0.0292  0.0620
   35CHL1    H3 2518   2.112   4.511   7.292 -0.6120  0.2577 -1.1369
   35CHL1    O3 2519   2.192   4.496   7.100 -0.3831 -0.1996 -0.4747
   35CHL1   H3' 2520   2.152   4.409   7.105 -2.3298  0.7499  1.5651
   35CHL1    C4 2521   2.254   4.672   7.245  0.3356  0.0245 -0.1416
   35CHL1   H4A 2522   2.336   4.698   7.175 -0.7249 -0.6281 -1.6482
   35CHL1   H4B 2523   2.170   4.732   7.203 -1.2327 -2.6024 -0.8931
   35CHL1    C5 2524   2.294   4.723   7.379  0.0573  0.4438 -0.4792
   35CHL1    C6 2525   2.231   4.824   7.437  0.1659  0.2146 -0.2749
   35CHL1    H6 2526   2.165   4.895   7.386  0.8508  0.5163 -0.7479
   35CHL1    C7 2527   2.274   4.873   7.568 -0.0480  0.2503 -0.4178
   35CHL1   H7A 2528   2.272   4.984   7.574 -2.0251  0.2716 -1.2500
   35CHL1   H7B 2529   2.187   4.841   7.629 -0.3496 -2.2075 -2.0442
   35CHL1    C8 2530   2.412   4.814   7.621 -0.3368  0.1289 -0.0985
   35CHL1    H8 2531   2.490   4.869   7.564  0.0616 -0.2980  0.0298
   35CHL1   C14 2532   2.426   4.840   7.771  0.1026  0.1003  0.4254
   35CHL1   H14 2533   2.350   4.780   7.825  1.3395 -0.7061  1.3242
   35CHL1   C15 2534   2.420   4.983   7.820 -0.1642 -0.3758 -0.4005
   35CHL1  H15A 2535   2.482   5.049   7.755  0.0532  1.6362  1.7787
   35CHL1  H15B 2536   2.317   5.025   7.821  0.6836  1.7852 -1.0554
   35CHL1   C16 2537   2.489   4.976   7.963  0.0265 -0.2598  0.3963
   35CHL1  H16A 2538   2.574   5.049   7.967 -0.1142 -0.1206  0.9452
   35CHL1  H16B 2539   2.430   5.014   8.050  1.6203 -2.8380  2.7049
   35CHL1   C17 2540   2.535   4.825   7.980 -0.1865  0.2532  0.2853
   35CHL1   H17 2541   2.452   4.771   8.029  0.8751 -1.2190  0.5036
   35CHL1   C13 2542   2.554   4.771   7.832 -0.6516  0.3577 -0.6254
   35CHL1   C18 2543   2.685   4.836   7.778 -0.1073  0.3014 -0.5397
   35CHL1  H18A 2544   2.681   4.947   7.783  1.0708  0.2781  1.6231
   35CHL1  H18B 2545   2.777   4.813   7.837 -1.5643 -1.8724  0.9949
   35CHL1  H18C 2546   2.698   4.813   7.670  0.3425 -3.2552  0.2038
   35CHL1   C12 2547   2.546   4.617   7.812 -0.8723 -0.2281 -0.2427
   35CHL1  H12A 2548   2.643   4.574   7.844 -0.1811  2.1252  0.9224
   35CHL1  H12B 2549   2.459   4.568   7.862  0.3115  0.1199  2.2068
   35CHL1   C11 2550   2.536   4.594   7.659  0.2038  0.3874  0.6897
   35CHL1  H11A 2551   2.631   4.635   7.618  1.0938 -2.1253  0.1917
   35CHL1  H11B 2552   2.537   4.487   7.631 -0.2766  0.3504  0.8031
   35CHL1    C9 2553   2.417   4.664   7.596  0.1977  1.6001 -0.5747
   35CHL1    H9 2554   2.326   4.625   7.645  1.2546  0.3455  0.4263
   35CHL1   C10 2555   2.395   4.624   7.447 -0.3919  0.4200 -0.3171
   35CHL1   C19 2556   2.532   4.632   7.369  0.1479  0.0291 -0.6777
   35CHL1  H19A 2557   2.531   4.617   7.259  2.5367 -0.5119 -0.6571
   35CHL1  H19B 2558   2.587   4.725   7.392  0.5997  0.0956 -1.9696
   35CHL1  H19C 2559   2.595   4.553   7.415  1.8827  2.1844  0.7208
   35CHL1    C1 2560   2.349   4.475   7.436 -0.2102  0.9697 -0.5765
   35CHL1   H1A 2561   2.427   4.412   7.485  0.6695  2.1231 -0.4671
   35CHL1   H1B 2562   2.252   4.469   7.491  0.1164  3.7887  0.3585
   35CHL1    C2 2563   2.309   4.429   7.287  0.2266  0.1319  0.4442
   35CHL1   H2A 2564   2.269   4.325   7.296  1.4348 -0.1739  2.7406
   35CHL1   H2B 2565   2.395   4.431   7.218 -2.1627  2.2144 -2.6035
   35CHL1   C20 2566   2.661   4.818   8.077  0.6066  0.4971  0.6489
   35CHL1   H20 2567   2.748   4.872   8.034  0.9186  1.2168  2.1797
   35CHL1   C21 2568   2.686   4.669   8.109  0.2885 -0.5527 -0.6083
   35CHL1  H21A 2569   2.734   4.609   8.029 -0.7525 -2.5779  0.2467
   35CHL1  H21B 2570   2.598   4.611   8.145 -0.7470  0.8633 -0.8170
   35CHL1  H21C 2571   2.759   4.669   8.193  0.7021 -0.3466 -0.9707
   35CHL1   C22 2572   2.635   4.901   8.207 -0.4162 -0.2337 -0.6715
   35CHL1  H22A 2573   2.723   4.882   8.272  0.2529  1.1932 -1.1338
   35CHL1  H22B 2574   2.627   5.011   8.188  1.1112  0.2193  1.2181
   35CHL1   C23 2575   2.511   4.860   8.295 -0.4928 -0.4353  0.0525
   35CHL1  H23A 2576   2.412   4.853   8.244  0.3193  2.8633 -2.1448
   35CHL1  H23B 2577   2.534   4.763   8.342  2.8669  1.4336  2.4450
   35CHL1   C24 2578   2.497   4.948   8.416 -0.6193  0.4680  0.0199
   35CHL1  H24A 2579   2.596   4.958   8.467 -1.8476  4.0615  1.8624
   35CHL1  H24B 2580   2.465   5.049   8.383  1.1242  1.5120  1.4118
   35CHL1   C25 2581   2.395   4.896   8.515  0.3566  0.7613 -0.2227
   35CHL1   H25 2582   2.310   4.862   8.453  1.4205 -2.3761 -0.0793
   35CHL1   C26 2583   2.447   4.778   8.608 -0.2856  0.2261  0.1306
   35CHL1  H26A 2584   2.495   4.698   8.548  0.1942 -0.3634  1.2851
   35CHL1  H26B 2585   2.524   4.823   8.674  1.7097  0.4165 -2.2554
   35CHL1  H26C 2586   2.356   4.745   8.662 -2.8238  2.9925 -2.2679
   35CHL1   C27 2587   2.333   5.015   8.591  0.7332 -0.0090 -0.7674
   35CHL1  H27A 2588   2.270   4.973   8.672  0.2537 -0.7867 -1.5426
   35CHL1  H27B 2589   2.268   5.077   8.526 -2.0839 -1.9460  0.1185
   35CHL1  H27C 2590   2.412   5.080   8.634 -0.1492 -0.3246  1.4188
   36CHL1    C3 2591   2.375   3.617   7.109  0.0967 -0.4816 -0.6005
   36CHL1    H3 2592   2.466   3.596   7.169  1.5406  0.0067 -2.5629
   36CHL1    O3 2593   2.381   3.536   6.996  0.2418 -0.0023  0.4150
   36CHL1   H3' 2594   2.299   3.555   6.951  1.0691  1.0338 -0.7207
   36CHL1    C4 2595   2.253   3.585   7.192 -0.6821 -0.2960 -0.7074
   36CHL1   H4A 2596   2.168   3.589   7.121  0.3553 -1.5182 -2.0431
   36CHL1   H4B 2597   2.251   3.479   7.227 -2.3261  0.7740  2.6496
   36CHL1    C5 2598   2.247   3.671   7.316 -0.5875 -0.0131 -0.0337
   36CHL1    C6 2599   2.251   3.607   7.434  0.2339  0.3408  0.9313
   36CHL1    H6 2600   2.251   3.497   7.432  2.7267  0.3058 -0.4416
   36CHL1    C7 2601   2.263   3.682   7.570  0.4092 -0.4634 -0.1775
   36CHL1   H7A 2602   2.203   3.625   7.644  0.0704 -0.8387 -0.7307
   36CHL1   H7B 2603   2.370   3.685   7.599  0.0261  0.0938  1.2011
   36CHL1    C8 2604   2.214   3.824   7.543 -0.7359 -0.4088  0.2772
   36CHL1    H8 2605   2.103   3.816   7.544 -0.8257  0.8698  1.6091
   36CHL1   C14 2606   2.252   3.916   7.674  0.2484 -0.4355  0.3676
   36CHL1   H14 2607   2.362   3.922   7.666  0.3245 -0.5726  1.3094
   36CHL1   C15 2608   2.199   3.863   7.810 -1.2948 -0.0506  0.2559
   36CHL1  H15A 2609   2.093   3.833   7.798 -0.8824 -1.4953  0.1683
   36CHL1  H15B 2610   2.262   3.780   7.848  1.1569  0.7657 -1.8986
   36CHL1   C16 2611   2.213   3.991   7.904  0.2205  0.0769 -0.0785
   36CHL1  H16A 2612   2.122   3.998   7.967 -1.3050 -0.9713 -2.1237
   36CHL1  H16B 2613   2.304   3.965   7.963  0.4235 -2.9349 -1.6303
   36CHL1   C17 2614   2.225   4.115   7.806 -0.1450 -0.3061  0.0309
   36CHL1   H17 2615   2.333   4.140   7.801 -0.6321  1.9131  0.1180
   36CHL1   C13 2616   2.198   4.060   7.665 -0.7159 -0.0232 -0.7804
   36CHL1   C18 2617   2.047   4.052   7.665 -0.5912  0.4178  0.3057
   36CHL1  H18A 2618   1.997   4.011   7.755 -0.9987 -1.1003 -0.6019
   36CHL1  H18B 2619   1.994   4.147   7.643  0.2878  0.4521 -1.8081
   36CHL1  H18C 2620   2.020   3.995   7.574  0.5477  0.3926 -0.0225
   36CHL1   C12 2621   2.255   4.132   7.543  0.5101 -0.2352 -0.3571
   36CHL1  H12A 2622   2.208   4.231   7.526 -0.0922 -0.4411  0.0933
   36CHL1  H12B 2623   2.362   4.147   7.568  0.3730  0.3387 -0.0980
   36CHL1   C11 2624   2.239   4.050   7.410 -0.1403  0.6287  0.0410
   36CHL1  H11A 2625   2.130   4.061   7.395 -0.5324 -0.0023  2.2257
   36CHL1  H11B 2626   2.300   4.102   7.332 -0.0845 -0.0684 -0.3872
   36CHL1    C9 2627   2.271   3.899   7.417 -0.5206 -0.0606 -0.0163
   36CHL1    H9 2628   2.375   3.888   7.454  0.1217 -0.6032 -1.9535
   36CHL1   C10 2629   2.244   3.824   7.286 -0.0297 -0.0073  0.6423
   36CHL1   C19 2630   2.112   3.866   7.228 -0.8486 -0.5197  0.1225
   36CHL1  H19A 2631   2.114   3.973   7.200  0.0400 -0.0599  1.8753
   36CHL1  H19B 2632   2.089   3.806   7.137 -2.3522  2.7498 -1.7374
   36CHL1  H19C 2633   2.023   3.853   7.294 -1.1799  0.8910 -0.0315
   36CHL1    C1 2634   2.359   3.862   7.190 -0.1257  0.4491  0.5317
   36CHL1   H1A 2635   2.351   3.967   7.155  1.1809  0.3006 -0.2536
   36CHL1   H1B 2636   2.452   3.845   7.247 -0.4550 -0.3748  0.8324
   36CHL1    C2 2637   2.362   3.766   7.067  0.0623 -0.2513  0.3286
   36CHL1   H2A 2638   2.448   3.791   7.001  0.5335  2.5905  1.9165
   36CHL1   H2B 2639   2.273   3.786   7.005  0.9015 -0.7526 -1.0550
   36CHL1   C20 2640   2.152   4.246   7.859 -0.8484  0.2580  0.0456
   36CHL1   H20 2641   2.043   4.222   7.861 -0.5269 -1.7632 -3.0107
   36CHL1   C21 2642   2.165   4.363   7.755 -0.1620 -0.2270 -0.3962
   36CHL1  H21A 2643   2.124   4.336   7.656 -3.0672  0.6595  0.5134
   36CHL1  H21B 2644   2.273   4.388   7.746  0.6882 -2.6567  2.0459
   36CHL1  H21C 2645   2.124   4.457   7.797 -0.4299  0.2149 -1.6435
   36CHL1   C22 2646   2.196   4.292   8.004 -0.0317 -0.1367 -0.6170
   36CHL1  H22A 2647   2.142   4.380   8.044  0.1546  0.0794 -0.8332
   36CHL1  H22B 2648   2.172   4.211   8.076  0.5669 -0.5757 -0.8982
   36CHL1   C23 2649   2.346   4.323   8.018 -0.7579 -0.1326  0.4143
   36CHL1  H23A 2650   2.401   4.228   8.006 -0.5046  0.1440 -0.6180
   36CHL1  H23B 2651   2.395   4.393   7.947 -1.0907  0.0940  0.4049
   36CHL1   C24 2652   2.391   4.401   8.152 -1.2107 -0.1347  0.3722
   36CHL1  H24A 2653   2.502   4.405   8.155 -1.1818  0.7646 -1.4457
   36CHL1  H24B 2654   2.348   4.503   8.154  0.7345  0.6971  1.4244
   36CHL1   C25 2655   2.333   4.349   8.280  0.9433  0.9177 -0.0736
   36CHL1   H25 2656   2.222   4.354   8.277  0.9091  0.9451  0.9998
   36CHL1   C26 2657   2.353   4.200   8.298  0.6587 -0.9131 -0.4473
   36CHL1  H26A 2658   2.306   4.169   8.393  0.9403  1.3893  0.4764
   36CHL1  H26B 2659   2.306   4.139   8.218  2.3048 -1.0949 -1.2988
   36CHL1  H26C 2660   2.463   4.182   8.298  0.9908  0.9709  0.5194
   36CHL1   C27 2661   2.388   4.426   8.401 -0.3232 -0.2785 -0.5236
   36CHL1  H27A 2662   2.334   4.400   8.495  1.3427 -1.5671  0.1121
   36CHL1  H27B 2663   2.498   4.417   8.416 -0.6312  1.9500  3.9967
   36CHL1  H27C 2664   2.356   4.528   8.373  0.8079 -0.2922 -1.9287
   37CHL1    C3 2665   5.443   5.769   6.863  0.5864  0.3768 -0.3491
   37CHL1    H3 2666   5.541   5.819   6.849  0.2061  1.2775  0.1040
   37CHL1    O3 2667   5.404   5.693   6.752  0.1424  0.7682 -0.3139
   37CHL1   H3' 2668   5.353   5.756   6.700  1.1229  1.4184 -0.5007
   37CHL1    C4 2669   5.441   5.674   6.981 -0.7709 -1.5553 -0.1238
   37CHL1   H4A 2670   5.338   5.634   6.978 -1.9576  1.2842  1.2654
   37CHL1   H4B 2671   5.501   5.581   6.966  1.2020 -0.5249  1.1629
   37CHL1    C5 2672   5.476   5.746   7.110  0.1571 -0.9937  0.5336
   37CHL1    C6 2673   5.585   5.717   7.183 -0.4752 -0.3121 -0.3594
   37CHL1    H6 2674   5.651   5.637   7.146 -0.7570 -0.5995 -0.2488
   37CHL1    C7 2675   5.614   5.782   7.319  0.4378 -0.7280  0.4504
   37CHL1   H7A 2676   5.621   5.692   7.384  3.3949 -1.1743 -0.3746
   37CHL1   H7B 2677   5.710   5.837   7.313  1.5753 -2.4916  1.7805
   37CHL1    C8 2678   5.493   5.863   7.370  0.1661 -0.0727  0.0009
   37CHL1    H8 2679   5.416   5.791   7.406 -0.0469 -0.3029 -0.8891
   37CHL1   C14 2680   5.529   5.959   7.476  0.7152 -0.0047  0.0874
   37CHL1   H14 2681   5.605   6.028   7.433 -1.3784  1.1670 -1.7993
   37CHL1   C15 2682   5.596   5.887   7.597  0.3206  0.8982 -0.3447
   37CHL1  H15A 2683   5.544   5.789   7.602 -0.9111  1.6176  1.2121
   37CHL1  H15B 2684   5.700   5.874   7.559  0.0146 -0.2950 -0.8162
   37CHL1   C16 2685   5.578   5.976   7.720 -0.2032  0.3707  0.0384
   37CHL1  H16A 2686   5.509   5.930   7.794  0.5363  1.4043  1.3941
   37CHL1  H16B 2687   5.671   6.002   7.775 -0.8168  2.4169  0.1403
   37CHL1   C17 2688   5.495   6.095   7.666 -0.3096  0.0631  0.5965
   37CHL1   H17 2689   5.570   6.166   7.625 -0.1878 -0.3873  0.0367
   37CHL1   C13 2690   5.420   6.048   7.538  0.0714  0.7638  0.5441
   37CHL1   C18 2691   5.302   5.956   7.583  0.4623  0.4931  0.6070
   37CHL1  H18A 2692   5.241   6.015   7.656  1.3984  1.6065  0.5195
   37CHL1  H18B 2693   5.250   5.913   7.496  0.9497 -0.5414  0.8211
   37CHL1  H18C 2694   5.340   5.878   7.652 -1.5088 -0.8204  0.2297
   37CHL1   C12 2695   5.379   6.149   7.430  0.1480  0.5320 -0.1927
   37CHL1  H12A 2696   5.302   6.221   7.465 -0.8759  0.1019 -1.5270
   37CHL1  H12B 2697   5.466   6.209   7.395  0.3420  0.8056  0.7228
   37CHL1   C11 2698   5.332   6.070   7.299 -0.4283  0.4537 -0.8898
   37CHL1  H11A 2699   5.227   6.044   7.323  0.5472 -1.6636  1.2587
   37CHL1  H11B 2700   5.332   6.151   7.222 -0.5946 -0.0823 -1.4615
   37CHL1    C9 2701   5.420   5.942   7.257 -0.9295  0.4070 -0.0134
   37CHL1    H9 2702   5.498   6.005   7.207 -1.8525 -0.6567 -2.9199
   37CHL1   C10 2703   5.370   5.856   7.144  0.5874  0.2368 -0.7298
   37CHL1   C19 2704   5.237   5.790   7.184 -0.4525 -0.9495 -0.0576
   37CHL1  H19A 2705   5.172   5.869   7.227  0.2025 -0.1363 -0.5754
   37CHL1  H19B 2706   5.178   5.761   7.094 -0.2184  0.6589 -0.7345
   37CHL1  H19C 2707   5.238   5.700   7.250 -2.7398 -1.1017 -0.1837
   37CHL1    C1 2708   5.339   5.950   7.015 -0.3484  1.0590  0.0175
   37CHL1   H1A 2709   5.246   6.008   7.032 -0.1451  0.9970  1.4448
   37CHL1   H1B 2710   5.424   6.021   7.012 -0.2883  1.0115  0.5700
   37CHL1    C2 2711   5.336   5.876   6.884  0.1369 -0.1078  0.0194
   37CHL1   H2A 2712   5.333   5.953   6.804  0.9799  0.7674  0.8103
   37CHL1   H2B 2713   5.236   5.829   6.876  0.8167 -1.2046 -3.0321
   37CHL1   C20 2714   5.427   6.177   7.780  0.8163  0.0592 -0.1080
   37CHL1   H20 2715   5.368   6.119   7.854  1.9512 -1.4009 -0.3204
   37CHL1   C21 2716   5.339   6.296   7.726 -0.3455 -0.2011  0.3520
   37CHL1  H21A 2717   5.387   6.362   7.650 -2.9328 -0.7807 -1.8619
   37CHL1  H21B 2718   5.308   6.371   7.802 -1.5790 -2.8270  2.4932
   37CHL1  H21C 2719   5.258   6.249   7.666  0.6991 -3.3205  1.3172
   37CHL1   C22 2720   5.540   6.236   7.870  0.8004 -0.0981  0.2085
   37CHL1  H22A 2721   5.629   6.170   7.870  0.7229 -0.2022  0.0425
   37CHL1  H22B 2722   5.566   6.337   7.832  3.9687 -1.4423 -1.4097
   37CHL1   C23 2723   5.506   6.252   8.021 -0.2452  0.0026  0.2360
   37CHL1  H23A 2724   5.405   6.295   8.038  0.4993  2.6733 -1.6526
   37CHL1  H23B 2725   5.502   6.150   8.064  1.4179  0.3044  1.1475
   37CHL1   C24 2726   5.598   6.353   8.094 -0.0336 -0.3053 -0.2179
   37CHL1  H24A 2727   5.700   6.313   8.076 -0.5308  0.1150 -4.4394
   37CHL1  H24B 2728   5.589   6.454   8.048 -0.2558  0.2240  0.9670
   37CHL1   C25 2729   5.574   6.357   8.240 -0.3765  0.4702  0.7323
   37CHL1   H25 2730   5.567   6.250   8.270 -0.2484  0.3915  0.4812
   37CHL1   C26 2731   5.700   6.410   8.321  0.1107 -0.0893  0.2817
   37CHL1  H26A 2732   5.715   6.520   8.310 -2.4652  0.5331  2.3747
   37CHL1  H26B 2733   5.675   6.388   8.427 -1.8483 -2.5442 -0.6431
   37CHL1  H26C 2734   5.794   6.355   8.298 -1.6504 -1.3981 -4.2924
   37CHL1   C27 2735   5.444   6.427   8.276 -0.1403 -0.0867 -0.9475
   37CHL1  H27A 2736   5.357   6.381   8.224 -1.8768 -0.4720  2.2026
   37CHL1  H27B 2737   5.434   6.411   8.385  0.3334 -3.8792 -1.3963
   37CHL1  H27C 2738   5.458   6.536   8.263 -0.6247  0.1475  0.5098
   38CHL1    C3 2739   1.846   6.621   6.804 -0.2685 -0.4720 -0.1611
   38CHL1    H3 2740   1.861   6.730   6.819  0.9172 -0.9901  2.6724
   38CHL1    O3 2741   1.857   6.605   6.663  0.5685 -0.2250 -0.3129
   38CHL1   H3' 2742   1.876   6.512   6.652  0.2737 -0.6578  2.5174
   38CHL1    C4 2743   1.967   6.543   6.867  0.3697  0.0128  0.1080
   38CHL1   H4A 2744   1.943   6.435   6.858  1.6200 -0.0883 -2.5330
   38CHL1   H4B 2745   2.060   6.572   6.813 -0.8066  1.1573 -1.3722
   38CHL1    C5 2746   1.967   6.580   7.014  0.4130 -0.3584 -0.4628
   38CHL1    C6 2747   2.070   6.635   7.074  0.6328  0.4453 -0.0006
   38CHL1    H6 2748   2.160   6.648   7.012  1.3151  0.1610  0.9151
   38CHL1    C7 2749   2.084   6.638   7.226 -1.0451 -0.3054 -0.6326
   38CHL1   H7A 2750   2.180   6.583   7.238 -0.0274  1.7135  0.5382
   38CHL1   H7B 2751   2.097   6.741   7.266 -2.3043 -0.3550 -0.0846
   38CHL1    C8 2752   1.974   6.558   7.306  0.3081  0.4593 -0.0390
   38CHL1    H8 2753   1.996   6.450   7.291  0.0759  0.5289 -0.8913
   38CHL1   C14 2754   1.974   6.595   7.454 -0.4954 -0.1858 -0.8827
   38CHL1   H14 2755   1.942   6.702   7.460 -2.2119 -0.7566  0.3219
   38CHL1   C15 2756   2.103   6.588   7.539 -0.3177 -0.2806 -0.3631
   38CHL1  H15A 2757   2.152   6.490   7.519 -0.3308 -0.5927  1.0787
   38CHL1  H15B 2758   2.174   6.672   7.520 -0.0748 -0.7528 -1.5727
   38CHL1   C16 2759   2.052   6.577   7.686 -0.0719 -0.5914  0.2116
   38CHL1  H16A 2760   2.078   6.474   7.718  1.1609 -0.1017  0.8079
   38CHL1  H16B 2761   2.107   6.648   7.752  0.9467  0.7635 -2.0277
   38CHL1   C17 2762   1.896   6.576   7.680  0.2135  0.5572 -0.0310
   38CHL1   H17 2763   1.869   6.684   7.679 -3.1327 -0.2284 -1.4166
   38CHL1   C13 2764   1.861   6.529   7.536 -0.1025  0.2647  0.4082
   38CHL1   C18 2765   1.879   6.376   7.526  0.0405 -0.3031  0.3240
   38CHL1  H18A 2766   1.796   6.331   7.584 -0.7940 -0.6923 -1.1376
   38CHL1  H18B 2767   1.888   6.338   7.422 -1.3494 -1.1678  0.5136
   38CHL1  H18C 2768   1.973   6.349   7.580  0.3343  0.5379  0.2456
   38CHL1   C12 2769   1.727   6.586   7.477  0.3095 -0.3901 -0.4974
   38CHL1  H12A 2770   1.632   6.545   7.518  0.1739  1.2494  0.8544
   38CHL1  H12B 2771   1.721   6.696   7.486  0.7176 -0.4653  0.8537
   38CHL1   C11 2772   1.719   6.542   7.329 -0.7147  0.1979  0.2857
   38CHL1  H11A 2773   1.723   6.431   7.340 -0.8514 -0.0633 -2.1289
   38CHL1  H11B 2774   1.619   6.577   7.297 -0.1778 -0.0179 -1.6518
   38CHL1    C9 2775   1.838   6.586   7.240  0.2345 -0.1713 -0.8929
   38CHL1    H9 2776   1.828   6.697   7.240  0.3499 -0.1538  0.7903
   38CHL1   C10 2777   1.841   6.532   7.089  0.0081 -0.1556  0.0485
   38CHL1   C19 2778   1.809   6.383   7.089 -0.2843 -0.8775 -0.2211
   38CHL1  H19A 2779   1.798   6.342   6.987 -0.8044 -1.4452  0.0631
   38CHL1  H19B 2780   1.864   6.330   7.169 -1.1597  0.6086  1.4151
   38CHL1  H19C 2781   1.706   6.367   7.128 -1.3979 -1.2410 -3.1577
   38CHL1    C1 2782   1.717   6.604   7.014 -0.3071 -0.0421 -0.1985
   38CHL1   H1A 2783   1.625   6.568   7.065 -0.7360 -1.4490 -1.9467
   38CHL1   H1B 2784   1.736   6.713   7.029  0.9906 -0.0802 -1.4452
   38CHL1    C2 2785   1.715   6.581   6.862  0.2955 -0.4337 -0.0169
   38CHL1   H2A 2786   1.629   6.625   6.809  0.7181 -1.0021 -1.1882
   38CHL1   H2B 2787   1.708   6.472   6.843 -0.3063 -0.5307  0.7557
   38CHL1   C20 2788   1.827   6.512   7.799 -0.1675 -0.2244 -0.8119
   38CHL1   H20 2789   1.826   6.401   7.793  1.5403 -0.3700  1.0253
   38CHL1   C21 2790   1.682   6.566   7.797 -0.0313  0.8579 -0.4812
   38CHL1  H21A 2791   1.687   6.675   7.774 -0.8842  0.9203 -0.3681
   38CHL1  H21B 2792   1.631   6.553   7.895  0.7362  1.2300 -0.0273
   38CHL1  H21C 2793   1.619   6.517   7.720 -0.8115  3.4957 -1.5734
   38CHL1   C22 2794   1.894   6.536   7.934 -0.1934  0.2657  0.2430
   38CHL1  H22A 2795   1.823   6.495   8.009 -2.1358  2.0231 -0.5912
   38CHL1  H22B 2796   1.992   6.484   7.930  0.5095  1.5734  0.2026
   38CHL1   C23 2797   1.911   6.683   7.979 -0.0339  0.6445 -0.7556
   38CHL1  H23A 2798   1.968   6.741   7.903  3.7292  1.7801  2.7962
   38CHL1  H23B 2799   1.808   6.724   7.986  0.0557  1.2671 -2.6890
   38CHL1   C24 2800   1.978   6.704   8.115  0.3203  0.0645 -0.3044
   38CHL1  H24A 2801   1.933   6.638   8.192  1.3996 -0.3000  0.0213
   38CHL1  H24B 2802   2.085   6.692   8.088  0.0049  0.2407 -1.6960
   38CHL1   C25 2803   1.950   6.845   8.170  0.6216 -0.5400  0.8611
   38CHL1   H25 2804   1.964   6.906   8.078  0.9977 -1.5297  0.2606
   38CHL1   C26 2805   1.808   6.859   8.229 -0.4752 -0.4267  0.2158
   38CHL1  H26A 2806   1.792   6.968   8.240  1.4871 -0.2587  1.5826
   38CHL1  H26B 2807   1.722   6.819   8.170 -0.7109  0.1165  0.1946
   38CHL1  H26C 2808   1.792   6.806   8.325  0.6339 -1.5834 -0.2149
   38CHL1   C27 2809   2.054   6.888   8.273  0.1099 -0.1271  0.4499
   38CHL1  H27A 2810   2.151   6.918   8.229  0.5892 -0.8339  1.0186
   38CHL1  H27B 2811   2.016   6.969   8.339  0.3904 -1.1886  1.9374
   38CHL1  H27C 2812   2.064   6.804   8.345 -1.1500  0.1402  0.9476
   39CHL1    C3 2813   1.924   5.878   7.029 -0.1225  0.3472  0.0073
   39CHL1    H3 2814   1.974   5.976   7.038 -0.8177  0.7419 -0.3893
   39CHL1    O3 2815   1.887   5.857   6.892 -0.1713  0.3711 -0.1087
   39CHL1   H3' 2816   1.951   5.807   6.840 -0.8253  0.4310 -0.9684
   39CHL1    C4 2817   2.008   5.761   7.080  0.1305  0.1703 -0.3894
   39CHL1   H4A 2818   1.962   5.668   7.040 -0.4997  0.3763 -0.1470
   39CHL1   H4B 2819   2.105   5.773   7.027  0.8179  2.3848  1.3025
   39CHL1    C5 2820   2.028   5.770   7.229  0.0743  0.1571  0.0330
   39CHL1    C6 2821   2.155   5.770   7.286  0.0385  0.3013 -0.1501
   39CHL1    H6 2822   2.248   5.765   7.228  0.2455  1.1507  0.1115
   39CHL1    C7 2823   2.172   5.780   7.433 -0.3067  0.1162  0.3238
   39CHL1   H7A 2824   2.261   5.719   7.462  1.0888  0.7956 -2.3715
   39CHL1   H7B 2825   2.215   5.881   7.448  1.0908 -0.4277  0.1585
   39CHL1    C8 2826   2.048   5.770   7.532 -0.1895 -0.1595 -0.0761
   39CHL1    H8 2827   2.023   5.662   7.533 -0.1995 -0.1775 -1.4455
   39CHL1   C14 2828   2.086   5.826   7.666  0.7509  0.8673  0.0352
   39CHL1   H14 2829   2.140   5.921   7.646  0.7769  0.2901 -2.8165
   39CHL1   C15 2830   2.203   5.754   7.746 -0.1328 -0.2280 -0.1040
   39CHL1  H15A 2831   2.188   5.645   7.759 -0.2665 -0.2102 -0.1160
   39CHL1  H15B 2832   2.304   5.778   7.707 -0.3168  2.8026  1.1144
   39CHL1   C16 2833   2.194   5.833   7.878  0.0358  0.3646 -0.4783
   39CHL1  H16A 2834   2.201   5.765   7.966  1.7127  1.0879 -0.0196
   39CHL1  H16B 2835   2.282   5.901   7.887  1.9237 -2.0084 -0.3477
   39CHL1   C17 2836   2.061   5.925   7.876 -0.1390  0.3842 -0.7175
   39CHL1   H17 2837   2.092   6.026   7.840 -3.0993  2.1980  1.5990
   39CHL1   C13 2838   1.977   5.857   7.761  0.1215 -0.0377 -0.2041
   39CHL1   C18 2839   1.908   5.724   7.813  0.0415  0.1408  0.5351
   39CHL1  H18A 2840   1.991   5.663   7.854  0.4470  0.7232  0.5830
   39CHL1  H18B 2841   1.836   5.740   7.896 -0.4275  3.0598 -0.3581
   39CHL1  H18C 2842   1.867   5.665   7.728  0.8623  2.5597 -1.6281
   39CHL1   C12 2843   1.875   5.949   7.683 -0.4050  0.2044  0.4550
   39CHL1  H12A 2844   1.789   5.975   7.748 -1.2618 -0.4720 -0.4087
   39CHL1  H12B 2845   1.923   6.046   7.659 -0.6265  0.2464  0.1865
   39CHL1   C11 2846   1.826   5.877   7.561  0.3754 -0.2322  0.4215
   39CHL1  H11A 2847   1.781   5.777   7.578 -0.7849  0.4773  1.5901
   39CHL1  H11B 2848   1.743   5.931   7.511  0.0996 -1.2563 -0.2367
   39CHL1    C9 2849   1.938   5.853   7.461 -1.1343  0.3017 -0.3386
   39CHL1    H9 2850   1.988   5.951   7.448 -1.5059  0.4104 -0.9381
   39CHL1   C10 2851   1.904   5.802   7.318  0.0665 -0.0615 -0.2714
   39CHL1   C19 2852   1.831   5.675   7.340 -0.1509  0.3095 -0.1302
   39CHL1  H19A 2853   1.891   5.610   7.407  0.1102  3.0307  2.3556
   39CHL1  H19B 2854   1.727   5.688   7.376 -0.1805  0.8659 -0.4077
   39CHL1  H19C 2855   1.826   5.611   7.249  2.8263 -0.4988  0.2288
   39CHL1    C1 2856   1.818   5.907   7.258  0.2130 -0.0454  0.5643
   39CHL1   H1A 2857   1.719   5.893   7.308 -1.0431  0.6716 -1.6480
   39CHL1   H1B 2858   1.840   6.012   7.287  0.2822  0.3542 -0.9449
   39CHL1    C2 2859   1.791   5.882   7.106  0.4805  0.2105 -0.3203
   39CHL1   H2A 2860   1.730   5.969   7.075  1.6373  0.0823 -3.0939
   39CHL1   H2B 2861   1.745   5.782   7.088 -0.8771  0.3166  2.3172
   39CHL1   C20 2862   2.003   5.945   8.012 -0.0023 -1.2441  0.2465
   39CHL1   H20 2863   1.971   5.842   8.040 -1.6244 -0.2002  2.3522
   39CHL1   C21 2864   1.878   6.023   7.997  0.7439  0.3523 -0.2118
   39CHL1  H21A 2865   1.798   5.962   7.951 -0.0195  0.1537  1.3406
   39CHL1  H21B 2866   1.885   6.121   7.945  1.7136  1.2534  1.5601
   39CHL1  H21C 2867   1.839   6.031   8.101 -2.6666 -1.5194 -1.2731
   39CHL1   C22 2868   2.103   6.002   8.120 -0.0076 -0.2847 -0.8546
   39CHL1  H22A 2869   2.209   5.973   8.099  0.4145  0.1433  0.6599
   39CHL1  H22B 2870   2.082   6.111   8.119 -0.8415 -0.4106  1.5906
   39CHL1   C23 2871   2.086   5.945   8.260  0.0028  0.2613 -0.1545
   39CHL1  H23A 2872   2.139   6.003   8.338 -1.7278  0.5290  0.8523
   39CHL1  H23B 2873   1.979   5.957   8.289 -0.7340 -1.2488 -2.1278
   39CHL1   C24 2874   2.148   5.801   8.283  0.2012 -0.1363  0.4278
   39CHL1  H24A 2875   2.110   5.724   8.213  2.9080 -1.8489  0.7804
   39CHL1  H24B 2876   2.259   5.809   8.273  0.1640 -0.7323 -0.5883
   39CHL1   C25 2877   2.118   5.741   8.424 -0.1526 -0.2511  0.3118
   39CHL1   H25 2878   2.149   5.635   8.423 -1.3398 -0.6916  3.3084
   39CHL1   C26 2879   2.217   5.788   8.531  0.2667 -0.6540 -0.1117
   39CHL1  H26A 2880   2.196   5.717   8.614 -1.2156 -0.6335 -0.4701
   39CHL1  H26B 2881   2.322   5.791   8.494  0.0439 -0.9634 -0.7563
   39CHL1  H26C 2882   2.177   5.889   8.554  0.9021  0.2528 -2.8547
   39CHL1   C27 2883   1.968   5.759   8.472 -0.4383 -0.0476 -0.3952
   39CHL1  H27A 2884   1.927   5.862   8.467  2.4146  1.0967 -0.6920
   39CHL1  H27B 2885   1.904   5.689   8.414 -1.1603  0.0077  0.3267
   39CHL1  H27C 2886   1.965   5.723   8.577  4.5603  1.2159  0.2946
   40CHL1    C3 2887   4.769   4.515   6.954  0.3564 -0.8153  0.1131
   40CHL1    H3 2888   4.764   4.623   6.930  0.5124 -0.5722  1.1433
   40CHL1    O3 2889   4.723   4.441   6.843 -0.0407 -0.3672  0.5341
   40CHL1   H3' 2890   4.723   4.347   6.861  0.5379 -0.6996 -1.1554
   40CHL1    C4 2891   4.917   4.483   6.990  0.4540  0.1154 -0.6243
   40CHL1   H4A 2892   4.937   4.374   6.998  0.1092  0.0134 -1.1623
   40CHL1   H4B 2893   4.978   4.511   6.902  0.5609 -1.4071 -1.0557
   40CHL1    C5 2894   4.956   4.561   7.110  0.5687  0.0463  0.1467
   40CHL1    C6 2895   5.073   4.629   7.115  0.4181  0.0431 -0.2116
   40CHL1    H6 2896   5.130   4.629   7.021  2.8649 -0.6849  1.2136
   40CHL1    C7 2897   5.115   4.717   7.234 -0.1524  0.2867 -0.0035
   40CHL1   H7A 2898   5.218   4.711   7.273 -0.5894 -2.7525  0.8041
   40CHL1   H7B 2899   5.092   4.825   7.217  1.9920  0.8022  0.3105
   40CHL1    C8 2900   5.045   4.671   7.365  0.0920 -0.0503 -0.0174
   40CHL1    H8 2901   5.082   4.568   7.385 -0.3941 -0.2062  0.0667
   40CHL1   C14 2902   5.078   4.761   7.482  0.6971  0.6031 -0.1812
   40CHL1   H14 2903   5.042   4.861   7.451 -0.5512 -0.5133 -2.4484
   40CHL1   C15 2904   5.226   4.783   7.517 -0.7822 -1.2820  0.6180
   40CHL1  H15A 2905   5.283   4.688   7.523  0.0520 -0.8817 -0.8915
   40CHL1  H15B 2906   5.280   4.847   7.445 -3.2615  0.2963  0.0863
   40CHL1   C16 2907   5.220   4.855   7.650  0.7268 -0.5200  0.5440
   40CHL1  H16A 2908   5.277   4.801   7.729  1.9456 -0.3461 -0.2040
   40CHL1  H16B 2909   5.253   4.959   7.630 -0.3985 -0.3585 -0.5587
   40CHL1   C17 2910   5.066   4.852   7.704 -0.6622  0.2429 -0.2325
   40CHL1   H17 2911   5.013   4.945   7.675 -1.1668 -0.3079 -1.0801
   40CHL1   C13 2912   5.006   4.735   7.616  0.2262 -0.3070 -0.3782
   40CHL1   C18 2913   5.052   4.597   7.676 -0.4277  0.9069  0.5563
   40CHL1  H18A 2914   5.035   4.511   7.607  1.7987 -0.8683  2.1476
   40CHL1  H18B 2915   5.156   4.591   7.714 -0.2395 -1.9085 -0.3153
   40CHL1  H18C 2916   4.984   4.592   7.763 -1.7754  2.5620 -0.3596
   40CHL1   C12 2917   4.851   4.737   7.594 -0.3016 -0.0529 -0.1006
   40CHL1  H12A 2918   4.783   4.717   7.680 -2.3928  1.3154 -1.3712
   40CHL1  H12B 2919   4.822   4.833   7.546  2.6132  1.4226  0.9495
   40CHL1   C11 2920   4.815   4.639   7.483  0.4865 -0.3678 -0.4339
   40CHL1  H11A 2921   4.838   4.542   7.532 -1.7853  0.1063  1.6570
   40CHL1  H11B 2922   4.704   4.648   7.474  0.6691  2.2518 -0.3034
   40CHL1    C9 2923   4.894   4.659   7.346  0.1249 -0.5400 -0.8682
   40CHL1    H9 2924   4.861   4.757   7.305 -0.1381 -0.8739 -1.4597
   40CHL1   C10 2925   4.857   4.559   7.236 -0.6428 -0.1975  0.0696
   40CHL1   C19 2926   4.869   4.421   7.291  0.0921 -0.2828 -0.0154
   40CHL1  H19A 2927   4.966   4.401   7.341  0.8453  0.1486 -1.2997
   40CHL1  H19B 2928   4.792   4.407   7.370  0.1161 -0.5916 -0.0442
   40CHL1  H19C 2929   4.846   4.336   7.223 -1.7637  1.6225 -1.8326
   40CHL1    C1 2930   4.708   4.587   7.189 -0.7290 -1.2783  0.3012
   40CHL1   H1A 2931   4.632   4.565   7.267 -0.7801  0.5045  0.7535
   40CHL1   H1B 2932   4.700   4.690   7.149  2.9193 -1.0019  0.0689
   40CHL1    C2 2933   4.669   4.491   7.072 -0.1290  0.4727 -0.3084
   40CHL1   H2A 2934   4.567   4.513   7.032 -0.1747  0.7694 -0.0298
   40CHL1   H2B 2935   4.664   4.385   7.105  1.7215  0.7587  0.9764
   40CHL1   C20 2936   5.053   4.854   7.863  0.4041  0.3154  0.3345
   40CHL1   H20 2937   5.110   4.769   7.907  0.1981  0.5229  1.0103
   40CHL1   C21 2938   4.903   4.836   7.895 -0.1739  0.0997  0.0583
   40CHL1  H21A 2939   4.878   4.870   7.998 -1.5004 -2.3552  0.5796
   40CHL1  H21B 2940   4.870   4.730   7.884 -4.4582  1.0738  2.3087
   40CHL1  H21C 2941   4.841   4.897   7.825  1.0613  0.3770 -0.8071
   40CHL1   C22 2942   5.106   4.988   7.918 -0.1498 -0.3759 -0.7329
   40CHL1  H22A 2943   5.214   4.987   7.893 -0.1105 -2.6457 -0.6434
   40CHL1  H22B 2944   5.064   5.072   7.858 -0.6107 -0.6259 -0.7650
   40CHL1   C23 2945   5.090   5.022   8.061  0.8058  0.0872 -0.4919
   40CHL1  H23A 2946   4.985   5.052   8.085  0.1524 -0.9585 -1.9756
   40CHL1  H23B 2947   5.108   4.931   8.121  1.0003  1.4973  1.6404
   40CHL1   C24 2948   5.187   5.138   8.100  0.1249  0.0632 -0.2051
   40CHL1  H24A 2949   5.292   5.101   8.098 -0.4384 -1.5661 -0.2004
   40CHL1  H24B 2950   5.188   5.222   8.028  0.3141 -2.4492 -3.2317
   40CHL1   C25 2951   5.173   5.193   8.248  0.0835  0.5248 -0.2653
   40CHL1   H25 2952   5.195   5.113   8.322 -1.7089  0.9970  0.7936
   40CHL1   C26 2953   5.279   5.302   8.262  0.1661  0.4339 -0.5236
   40CHL1  H26A 2954   5.281   5.346   8.364  1.7453 -2.0197  0.5582
   40CHL1  H26B 2955   5.382   5.262   8.248  0.9823  2.7129 -1.1832
   40CHL1  H26C 2956   5.275   5.392   8.197  0.1793 -0.3668 -1.6494
   40CHL1   C27 2957   5.028   5.243   8.281  0.5939 -0.5140 -0.1224
   40CHL1  H27A 2958   4.953   5.165   8.258 -1.4838  1.9129 -1.9047
   40CHL1  H27B 2959   5.025   5.267   8.390  1.5673 -0.1664 -0.1679
   40CHL1  H27C 2960   5.006   5.335   8.223  1.4850 -0.3504 -0.2088
   41CHL1    C3 2961   5.394   5.280   6.861  0.5707 -0.3188 -0.2932
   41CHL1    H3 2962   5.427   5.385   6.848  0.0131  0.2456  2.5625
   41CHL1    O3 2963   5.416   5.201   6.747 -0.3739 -0.2739  0.2220
   41CHL1   H3' 2964   5.364   5.246   6.680 -0.9649 -1.2641 -0.0011
   41CHL1    C4 2965   5.485   5.219   6.968 -0.7537 -0.2073  0.2755
   41CHL1   H4A 2966   5.464   5.110   6.967 -0.4140 -0.2724 -0.0158
   41CHL1   H4B 2967   5.588   5.222   6.927 -0.6827  0.7501  0.4997
   41CHL1    C5 2968   5.471   5.274   7.105  0.3411  0.4272 -0.1970
   41CHL1    C6 2969   5.570   5.326   7.179  0.2974 -0.6245  0.1183
   41CHL1    H6 2970   5.672   5.321   7.138 -0.1576  1.0831 -1.2630
   41CHL1    C7 2971   5.553   5.373   7.322  0.0053 -0.3727  0.4034
   41CHL1   H7A 2972   5.631   5.340   7.395  0.9636  0.0990 -0.4026
   41CHL1   H7B 2973   5.559   5.483   7.338 -1.0790 -0.7520  4.0946
   41CHL1    C8 2974   5.424   5.326   7.383  0.3763  0.2015  0.0831
   41CHL1    H8 2975   5.436   5.221   7.417  0.5342  0.5301  1.0423
   41CHL1   C14 2976   5.398   5.408   7.510  0.2076  0.7487 -0.1982
   41CHL1   H14 2977   5.391   5.513   7.473  0.7894  0.4931 -1.0421
   41CHL1   C15 2978   5.497   5.416   7.627  0.6522 -0.1781 -0.4270
   41CHL1  H15A 2979   5.515   5.319   7.677  0.0984 -0.1614 -0.2002
   41CHL1  H15B 2980   5.601   5.450   7.607  0.4990  2.9924  3.5465
   41CHL1   C16 2981   5.428   5.503   7.735 -0.3678 -0.0857 -0.1118
   41CHL1  H16A 2982   5.443   5.455   7.834 -0.0281 -1.1882 -0.6956
   41CHL1  H16B 2983   5.474   5.604   7.734  0.1922 -0.2926  2.0226
   41CHL1   C17 2984   5.276   5.500   7.695 -0.0640  0.5046  0.5986
   41CHL1   H17 2985   5.238   5.593   7.647 -0.9283 -1.2639 -2.3031
   41CHL1   C13 2986   5.262   5.393   7.579  0.5108 -0.4402  0.0119
   41CHL1   C18 2987   5.240   5.253   7.628 -0.2135 -0.0093 -0.0410
   41CHL1  H18A 2988   5.328   5.227   7.690 -0.9737  1.3309  1.6411
   41CHL1  H18B 2989   5.151   5.242   7.693  1.0749 -3.7126  1.2035
   41CHL1  H18C 2990   5.235   5.173   7.551  0.7528 -0.1429  0.0330
   41CHL1   C12 2991   5.155   5.417   7.472  0.2462  0.1656  0.1299
   41CHL1  H12A 2992   5.057   5.392   7.518 -0.8023  1.7217 -1.2143
   41CHL1  H12B 2993   5.156   5.524   7.443 -0.6785 -0.0016 -0.5430
   41CHL1   C11 2994   5.175   5.337   7.349 -1.2080 -0.6347  0.2656
   41CHL1  H11A 2995   5.165   5.229   7.376 -1.3172 -1.5653 -3.2170
   41CHL1  H11B 2996   5.097   5.371   7.278 -0.3539 -1.0176 -0.8851
   41CHL1    C9 2997   5.312   5.354   7.287 -0.1931 -0.4415 -0.1434
   41CHL1    H9 2998   5.318   5.462   7.264  3.1921 -0.6485 -0.5401
   41CHL1   C10 2999   5.326   5.274   7.151 -0.4621 -0.3338  0.4815
   41CHL1   C19 3000   5.279   5.123   7.182  0.6989 -0.1307 -0.1082
   41CHL1  H19A 3001   5.330   5.083   7.272  1.3109 -0.1467 -0.4649
   41CHL1  H19B 3002   5.168   5.125   7.193  0.6423 -0.9094 -0.4902
   41CHL1  H19C 3003   5.290   5.056   7.094  0.0667  2.6073 -2.3537
   41CHL1    C1 3004   5.230   5.340   7.047  0.4639 -0.1149  0.6632
   41CHL1   H1A 3005   5.124   5.335   7.082 -0.0228  1.7095 -0.4740
   41CHL1   H1B 3006   5.255   5.448   7.035  0.7447 -0.2402  0.0983
   41CHL1    C2 3007   5.247   5.278   6.907 -0.2684 -1.0390  1.0035
   41CHL1   H2A 3008   5.186   5.341   6.838 -1.4285 -0.0145  2.9004
   41CHL1   H2B 3009   5.206   5.174   6.911  0.9714 -1.6767 -1.8666
   41CHL1   C20 3010   5.181   5.484   7.816  0.3710  0.0898  0.2208
   41CHL1   H20 3011   5.188   5.382   7.859  1.3618 -0.9881 -2.4045
   41CHL1   C21 3012   5.036   5.523   7.778  0.5750  0.2875 -0.1576
   41CHL1  H21A 3013   4.992   5.466   7.694  3.3037 -1.1968 -0.6480
   41CHL1  H21B 3014   5.032   5.621   7.726 -1.1605 -0.0852 -0.7463
   41CHL1  H21C 3015   4.966   5.518   7.864  0.1443 -1.9892 -0.6290
   41CHL1   C22 3016   5.233   5.578   7.929  0.0574 -0.1991 -0.3385
   41CHL1  H22A 3017   5.171   5.568   8.021 -1.6114 -0.4437 -1.4759
   41CHL1  H22B 3018   5.339   5.558   7.958  0.5082  1.8337 -0.4951
   41CHL1   C23 3019   5.239   5.731   7.899  0.1061 -0.1871  0.4410
   41CHL1  H23A 3020   5.326   5.763   7.838  0.1614 -1.9852 -0.4559
   41CHL1  H23B 3021   5.149   5.751   7.837  1.4263  1.6511 -0.9613
   41CHL1   C24 3022   5.233   5.807   8.035 -0.7289  0.3924 -0.1581
   41CHL1  H24A 3023   5.139   5.771   8.083 -1.5441 -0.4686 -2.3351
   41CHL1  H24B 3024   5.327   5.782   8.089 -0.3887  0.7387 -0.5942
   41CHL1   C25 3025   5.237   5.954   8.036 -0.3094  0.5833 -0.3462
   41CHL1   H25 3026   5.333   5.984   7.988 -0.2862  0.6124 -0.2814
   41CHL1   C26 3027   5.114   6.010   7.963 -0.8483 -0.0549  0.1613
   41CHL1  H26A 3028   5.101   6.117   7.989 -2.3276 -0.2809  0.3811
   41CHL1  H26B 3029   5.111   5.989   7.854 -1.5023 -2.1724  0.5580
   41CHL1  H26C 3030   5.032   5.951   8.010  0.9169 -3.0247 -0.3774
   41CHL1   C27 3031   5.236   6.006   8.179 -0.8117 -0.2123 -0.6759
   41CHL1  H27A 3032   5.243   6.117   8.177  0.9806 -0.2760  0.7714
   41CHL1  H27B 3033   5.150   5.982   8.245  0.1901  0.1927  0.8067
   41CHL1  H27C 3034   5.335   5.972   8.218 -0.1082 -0.2854 -2.4656
   42CHL1    C3 3035   6.636   2.363   6.857  0.7908 -0.1371  0.0349
   42CHL1    H3 3036   6.743   2.376   6.881  1.1599  0.8373 -2.0685
   42CHL1    O3 3037   6.624   2.391   6.719 -0.1435 -0.2866  0.2259
   42CHL1   H3' 3038   6.532   2.371   6.697 -0.6757 -0.1270  2.1895
   42CHL1    C4 3039   6.588   2.222   6.890 -0.0750 -0.2075 -0.3945
   42CHL1   H4A 3040   6.480   2.210   6.868 -0.0767 -2.5978  0.7241
   42CHL1   H4B 3041   6.641   2.144   6.831 -0.5650 -0.5943 -0.3253
   42CHL1    C5 3042   6.606   2.191   7.034 -0.2538  0.4426  0.3739
   42CHL1    C6 3043   6.679   2.078   7.073  0.0390  0.5877 -0.5751
   42CHL1    H6 3044   6.732   2.017   6.999  0.4330 -0.6715  0.7210
   42CHL1    C7 3045   6.687   2.030   7.217  0.3124 -0.2749 -0.1687
   42CHL1   H7A 3046   6.655   1.923   7.221 -1.2854  0.2421  1.1824
   42CHL1   H7B 3047   6.789   2.036   7.259  0.3092 -2.2509  0.1984
   42CHL1    C8 3048   6.594   2.115   7.313 -0.3431 -0.2122 -1.0589
   42CHL1    H8 3049   6.492   2.072   7.307 -0.3455 -1.1325  3.6300
   42CHL1   C14 3050   6.647   2.104   7.458  0.9555 -0.3888  0.1328
   42CHL1   H14 3051   6.747   2.150   7.469  1.1605 -0.6030 -0.7791
   42CHL1   C15 3052   6.670   1.963   7.515  0.1328 -0.0831  0.6668
   42CHL1  H15A 3053   6.590   1.887   7.499 -0.1202  0.6643 -1.8178
   42CHL1  H15B 3054   6.758   1.913   7.470  0.5332 -1.0710  2.4827
   42CHL1   C16 3055   6.683   1.989   7.665  0.1845 -0.7847 -0.4666
   42CHL1  H16A 3056   6.619   1.918   7.722  1.2796 -0.5657  1.0702
   42CHL1  H16B 3057   6.785   1.967   7.703  0.4405  0.1357 -0.6243
   42CHL1   C17 3058   6.637   2.134   7.697  0.7591  0.1908  0.2354
   42CHL1   H17 3059   6.723   2.200   7.716 -0.0240  1.5568 -0.8905
   42CHL1   C13 3060   6.563   2.173   7.567 -0.0388 -0.3384 -0.0302
   42CHL1   C18 3061   6.419   2.110   7.567 -0.3986  0.0433 -0.1941
   42CHL1  H18A 3062   6.363   2.174   7.639 -0.6092  0.0866 -0.3963
   42CHL1  H18B 3063   6.374   2.118   7.466  1.8843 -1.9933 -1.4165
   42CHL1  H18C 3064   6.417   2.011   7.617 -0.8540 -0.7121 -1.6750
   42CHL1   C12 3065   6.567   2.324   7.520 -0.0706  0.4650  0.3465
   42CHL1  H12A 3066   6.518   2.387   7.597 -0.7123 -1.3525  1.4488
   42CHL1  H12B 3067   6.672   2.362   7.520 -0.3294  1.2964  3.3407
   42CHL1   C11 3068   6.507   2.347   7.383 -0.7034 -0.3566  0.3309
   42CHL1  H11A 3069   6.399   2.320   7.386 -1.7198  3.3534  0.1981
   42CHL1  H11B 3070   6.509   2.456   7.361  2.1178 -0.3083  0.6833
   42CHL1    C9 3071   6.590   2.265   7.280 -0.5572 -0.2494  0.2182
   42CHL1    H9 3072   6.696   2.298   7.290  0.0217 -1.7121 -0.9231
   42CHL1   C10 3073   6.543   2.291   7.133 -0.3975  0.3415 -0.3021
   42CHL1   C19 3074   6.388   2.283   7.123 -0.7901  0.4634 -0.3162
   42CHL1  H19A 3075   6.340   2.368   7.175 -0.2019  0.7923 -0.3031
   42CHL1  H19B 3076   6.345   2.281   7.021 -1.2857  0.1180 -0.1006
   42CHL1  H19C 3077   6.357   2.191   7.177 -0.9056  0.3728 -0.5348
   42CHL1    C1 3078   6.578   2.442   7.100  0.0975 -0.3284  0.1117
   42CHL1   H1A 3079   6.509   2.514   7.149 -0.4597 -0.2474 -0.7781
   42CHL1   H1B 3080   6.680   2.451   7.141  1.0058 -1.1220 -1.9083
   42CHL1    C2 3081   6.559   2.463   6.946  0.0869  0.8496  0.7526
   42CHL1   H2A 3082   6.596   2.565   6.920 -0.9913  1.0148 -0.1571
   42CHL1   H2B 3083   6.449   2.466   6.931  0.1574  1.9478  0.3766
   42CHL1   C20 3084   6.556   2.143   7.831  0.5421  0.1739  0.0048
   42CHL1   H20 3085   6.461   2.088   7.816  0.1920  0.5493  0.7849
   42CHL1   C21 3086   6.513   2.292   7.851 -0.9355 -0.6243 -0.2867
   42CHL1  H21A 3087   6.597   2.364   7.843 -0.4649 -1.0930  0.3607
   42CHL1  H21B 3088   6.466   2.305   7.951  2.8924  1.1803  1.3790
   42CHL1  H21C 3089   6.432   2.322   7.781  0.2742  0.9039 -1.0548
   42CHL1   C22 3090   6.627   2.091   7.960  0.1286 -0.2744 -0.1475
   42CHL1  H22A 3091   6.661   1.990   7.931  0.0245 -0.4073  0.1940
   42CHL1  H22B 3092   6.717   2.154   7.977 -0.1024 -0.3254  1.3655
   42CHL1   C23 3093   6.546   2.096   8.088  0.1379  0.5874 -0.0621
   42CHL1  H23A 3094   6.544   2.200   8.129  0.1087 -0.0025  1.4696
   42CHL1  H23B 3095   6.448   2.045   8.077  1.6127 -2.2032 -0.6687
   42CHL1   C24 3096   6.625   2.016   8.201  0.6968 -0.4086 -0.0534
   42CHL1  H24A 3097   6.617   1.906   8.184  1.6983 -0.7059  1.3171
   42CHL1  H24B 3098   6.732   2.046   8.198  0.3785  0.5990 -1.4227
   42CHL1   C25 3099   6.570   2.034   8.339 -0.0364 -0.5772 -0.0934
   42CHL1   H25 3100   6.600   2.136   8.373  1.4971 -0.9518 -0.2520
   42CHL1   C26 3101   6.416   2.027   8.346  0.0344 -0.0849 -0.1280
   42CHL1  H26A 3102   6.372   2.089   8.265 -0.4911 -0.1529  0.1032
   42CHL1  H26B 3103   6.376   1.926   8.320 -0.5092 -0.1726  1.0160
   42CHL1  H26C 3104   6.373   2.047   8.446 -3.5425 -3.5154 -0.8076
   42CHL1   C27 3105   6.628   1.929   8.443 -0.1617  0.1120  0.0960
   42CHL1  H27A 3106   6.638   1.830   8.394  0.4372  0.5765 -0.7409
   42CHL1  H27B 3107   6.559   1.923   8.530 -1.6403  1.7902 -0.9313
   42CHL1  H27C 3108   6.731   1.953   8.478  0.7041 -3.0325 -0.1624
   43CHL1    C3 3109   6.327   5.910   6.845  0.2135 -0.1040 -0.3952
   43CHL1    H3 3110   6.240   5.973   6.816 -0.0711  0.3268  1.3856
   43CHL1    O3 3111   6.385   5.870   6.722  0.2818 -0.0281 -0.6149
   43CHL1   H3' 3112   6.474   5.846   6.749 -0.1373 -0.2292  0.6115
   43CHL1    C4 3113   6.430   6.002   6.925  0.2835 -0.0145  0.1186
   43CHL1   H4A 3114   6.524   5.943   6.931  0.9275  0.7217 -2.1764
   43CHL1   H4B 3115   6.472   6.087   6.866  2.7251 -1.3092 -0.0317
   43CHL1    C5 3116   6.382   6.049   7.056  0.2090 -0.1020  0.4688
   43CHL1    C6 3117   6.376   6.180   7.095  0.7907 -0.4491 -0.1039
   43CHL1    H6 3118   6.403   6.257   7.023 -0.1859 -0.1272 -0.1302
   43CHL1    C7 3119   6.322   6.232   7.229  0.0787 -0.8458  0.0112
   43CHL1   H7A 3120   6.400   6.305   7.260  2.2799 -2.2747 -1.9898
   43CHL1   H7B 3121   6.223   6.283   7.230  0.9203  0.9569 -2.9326
   43CHL1    C8 3122   6.315   6.114   7.332 -0.0679  0.4306 -0.0982
   43CHL1    H8 3123   6.423   6.092   7.351 -0.4906 -2.2075 -0.5222
   43CHL1   C14 3124   6.241   6.162   7.450  0.6410 -0.1670 -0.1638
   43CHL1   H14 3125   6.141   6.188   7.409  0.1495 -0.4444  0.8419
   43CHL1   C15 3126   6.280   6.291   7.518 -0.2950 -0.0790 -0.1606
   43CHL1  H15A 3127   6.389   6.305   7.534 -0.4227 -0.6805  1.2517
   43CHL1  H15B 3128   6.252   6.385   7.466  3.4535  1.4530  0.4871
   43CHL1   C16 3129   6.223   6.283   7.661 -0.5721 -0.6244 -0.0287
   43CHL1  H16A 3130   6.311   6.293   7.729  0.7391  0.1315 -1.7966
   43CHL1  H16B 3131   6.157   6.367   7.693 -1.4733 -0.8209 -1.3420
   43CHL1   C17 3132   6.156   6.139   7.681 -0.2940 -0.0330 -0.3042
   43CHL1   H17 3133   6.050   6.150   7.649 -0.2127 -1.2313 -0.9841
   43CHL1   C13 3134   6.220   6.063   7.565  0.1075  0.6709 -0.3801
   43CHL1   C18 3135   6.363   6.022   7.614  0.9610  0.5406 -0.8142
   43CHL1  H18A 3136   6.342   5.922   7.658 -0.0087  0.8626 -0.5266
   43CHL1  H18B 3137   6.436   6.018   7.530  0.3043  1.2962 -1.4308
   43CHL1  H18C 3138   6.398   6.093   7.692  0.9860 -1.7285  1.3170
   43CHL1   C12 3139   6.140   5.945   7.509  0.1229 -0.4917  0.4870
   43CHL1  H12A 3140   6.132   5.863   7.583 -0.0211  0.6627  1.7634
   43CHL1  H12B 3141   6.040   5.978   7.475  1.2714  2.0321 -0.6362
   43CHL1   C11 3142   6.210   5.884   7.379  0.6134 -0.0854  0.3464
   43CHL1  H11A 3143   6.300   5.834   7.420 -0.0063 -1.6834 -0.2049
   43CHL1  H11B 3144   6.146   5.808   7.330  2.5874 -1.6208  0.0784
   43CHL1    C9 3145   6.243   5.992   7.273 -0.3519  0.2139  0.2577
   43CHL1    H9 3146   6.147   6.037   7.240 -0.2498  1.2667  1.3817
   43CHL1   C10 3147   6.316   5.942   7.142 -0.0141 -0.0058 -0.4966
   43CHL1   C19 3148   6.424   5.841   7.192 -0.3590 -0.2791 -0.0459
   43CHL1  H19A 3149   6.376   5.748   7.230  0.0468 -0.4036  0.1644
   43CHL1  H19B 3150   6.487   5.813   7.105 -1.1213 -1.8909 -0.0886
   43CHL1  H19C 3151   6.492   5.886   7.268 -2.2330  1.1210  0.8282
   43CHL1    C1 3152   6.210   5.854   7.063 -0.2415 -0.5521 -0.0222
   43CHL1   H1A 3153   6.188   5.765   7.125  0.5567 -1.1879 -0.6435
   43CHL1   H1B 3154   6.115   5.907   7.041 -1.2885 -2.0310  0.8705
   43CHL1    C2 3155   6.265   5.803   6.929  0.2889  0.0457 -1.1210
   43CHL1   H2A 3156   6.186   5.755   6.866  0.5635 -0.4137 -1.1179
   43CHL1   H2B 3157   6.343   5.725   6.946  1.1931  1.2217  0.1732
   43CHL1   C20 3158   6.153   6.078   7.820 -0.0799 -0.2613 -0.0110
   43CHL1   H20 3159   6.255   6.056   7.857 -1.0201 -1.6381  1.8765
   43CHL1   C21 3160   6.058   5.955   7.827 -0.3083 -0.3276 -0.3984
   43CHL1  H21A 3161   6.125   5.868   7.811  2.5736  1.6313  0.6997
   43CHL1  H21B 3162   5.982   5.960   7.746  0.8550 -2.2018 -1.6229
   43CHL1  H21C 3163   6.011   5.958   7.928  1.7758  0.0007  0.5795
   43CHL1   C22 3164   6.099   6.179   7.922  0.4065 -0.1683 -0.0830
   43CHL1  H22A 3165   6.111   6.286   7.896  0.6272 -0.1587  0.0665
   43CHL1  H22B 3166   5.988   6.165   7.923  0.1591  1.6298  2.4778
   43CHL1   C23 3167   6.152   6.165   8.068 -0.0564  0.1071 -0.0395
   43CHL1  H23A 3168   6.116   6.071   8.113  2.7550 -1.1042 -0.2021
   43CHL1  H23B 3169   6.263   6.159   8.059 -0.2097 -1.0324 -1.3542
   43CHL1   C24 3170   6.103   6.281   8.157 -0.1038 -0.3271  0.8794
   43CHL1  H24A 3171   6.132   6.381   8.117 -1.2533 -0.5941 -0.6743
   43CHL1  H24B 3172   5.993   6.270   8.169  0.0769 -1.9964  1.1183
   43CHL1   C25 3173   6.161   6.281   8.296 -0.1366 -0.0938 -0.3483
   43CHL1   H25 3174   6.270   6.267   8.281 -0.5080 -1.2844 -2.0710
   43CHL1   C26 3175   6.113   6.410   8.364 -0.0816  0.6248  0.7182
   43CHL1  H26A 3176   6.002   6.411   8.363 -0.1989 -2.6833  1.9459
   43CHL1  H26B 3177   6.150   6.411   8.469  2.5258  2.1773 -0.1678
   43CHL1  H26C 3178   6.161   6.491   8.305 -1.3135 -0.2467 -1.5552
   43CHL1   C27 3179   6.102   6.164   8.375  0.1532  0.2228  1.0923
   43CHL1  H27A 3180   5.997   6.183   8.408  0.1625  2.7091 -0.1399
   43CHL1  H27B 3181   6.106   6.067   8.321  1.9554  0.3491  1.0035
   43CHL1  H27C 3182   6.168   6.148   8.462  0.0341 -0.1133  1.1209
   44CHL1    C3 3183   6.562   4.448   6.769  0.2688  0.6611  0.4764
   44CHL1    H3 3184   6.454   4.426   6.762  0.5414 -0.5435 -0.0076
   44CHL1    O3 3185   6.614   4.439   6.640  0.5518 -0.4583 -0.5402
   44CHL1   H3' 3186   6.708   4.429   6.660  0.5444  0.0283 -0.2473
   44CHL1    C4 3187   6.584   4.587   6.822  0.0302 -0.2206  0.7244
   44CHL1   H4A 3188   6.684   4.621   6.785  0.4580 -2.2833 -0.1079
   44CHL1   H4B 3189   6.518   4.656   6.766  1.8397  0.1213 -1.0665
   44CHL1    C5 3190   6.568   4.599   6.971 -0.5319  0.2998 -0.1027
   44CHL1    C6 3191   6.488   4.693   7.026 -0.0429  0.0634  0.5873
   44CHL1    H6 3192   6.436   4.757   6.953  1.2953  0.5038  0.0216
   44CHL1    C7 3193   6.467   4.729   7.167  1.0659 -0.0639 -0.7814
   44CHL1   H7A 3194   6.461   4.839   7.179  0.7680 -0.2871  1.3920
   44CHL1   H7B 3195   6.377   4.674   7.204  0.2423  2.6106  1.3549
   44CHL1    C8 3196   6.593   4.667   7.250 -0.3242  0.3632 -0.2715
   44CHL1    H8 3197   6.688   4.723   7.238  3.3980 -5.3079  0.6145
   44CHL1   C14 3198   6.563   4.676   7.392 -0.4969 -0.2296  0.1714
   44CHL1   H14 3199   6.467   4.620   7.400 -0.1219 -0.7034  1.5630
   44CHL1   C15 3200   6.529   4.816   7.448  0.4913 -0.0820  0.2272
   44CHL1  H15A 3201   6.614   4.878   7.412  1.9127 -1.6697  0.7967
   44CHL1  H15B 3202   6.431   4.855   7.413  0.9222  0.6314 -0.1795
   44CHL1   C16 3203   6.537   4.786   7.603 -0.1702  0.6791 -0.3238
   44CHL1  H16A 3204   6.611   4.853   7.651 -0.4769 -0.3349  1.6429
   44CHL1  H16B 3205   6.436   4.807   7.645  0.1367 -0.2155  0.9057
   44CHL1   C17 3206   6.587   4.634   7.620 -0.6381 -0.3279  0.0464
   44CHL1   H17 3207   6.493   4.574   7.619 -1.0041  0.2272  0.8422
   44CHL1   C13 3208   6.662   4.603   7.488  0.0238  0.0974 -0.2571
   44CHL1   C18 3209   6.802   4.669   7.486  0.2101  0.2000  0.1994
   44CHL1  H18A 3210   6.846   4.668   7.384  1.1600  0.7717  0.6012
   44CHL1  H18B 3211   6.806   4.771   7.530  0.6546  0.1109  0.3701
   44CHL1  H18C 3212   6.877   4.604   7.535  0.3923  0.9511  0.9135
   44CHL1   C12 3213   6.673   4.455   7.446 -0.4990 -0.8913  0.5752
   44CHL1  H12A 3214   6.759   4.401   7.491 -0.0932 -0.4842  0.2962
   44CHL1  H12B 3215   6.578   4.410   7.483 -1.6490 -0.2261 -1.4847
   44CHL1   C11 3216   6.704   4.444   7.299 -0.2493  0.2085  0.6739
   44CHL1  H11A 3217   6.803   4.490   7.279 -1.4938  1.9253 -1.8797
   44CHL1  H11B 3218   6.710   4.338   7.268  1.7120  0.4230  0.2519
   44CHL1    C9 3219   6.612   4.526   7.208  0.2157 -0.2304  0.7250
   44CHL1    H9 3220   6.515   4.476   7.233 -0.9870  1.9116  0.4642
   44CHL1   C10 3221   6.643   4.500   7.059  0.2005  0.8991  0.5540
   44CHL1   C19 3222   6.800   4.522   7.038  0.8032 -0.0661 -0.2569
   44CHL1  H19A 3223   6.828   4.516   6.931 -1.5856 -1.7711 -0.8146
   44CHL1  H19B 3224   6.830   4.610   7.099 -2.3006 -0.8494  2.5740
   44CHL1  H19C 3225   6.853   4.435   7.080 -0.0696 -0.2545  0.4785
   44CHL1    C1 3226   6.597   4.353   7.011  0.4587 -0.3306 -0.2702
   44CHL1   H1A 3227   6.648   4.272   7.068 -2.6718 -0.8398  1.9576
   44CHL1   H1B 3228   6.490   4.344   7.041  0.1816  2.6765 -0.2473
   44CHL1    C2 3229   6.619   4.329   6.861  0.2769 -0.0469 -0.6580
   44CHL1   H2A 3230   6.598   4.226   6.826 -1.0608 -0.0280  0.0674
   44CHL1   H2B 3231   6.728   4.332   6.839  0.4558  2.1313  0.3456
   44CHL1   C20 3232   6.652   4.611   7.750 -0.2160 -0.1937  0.6796
   44CHL1   H20 3233   6.730   4.688   7.767  0.5320 -0.7125 -0.3723
   44CHL1   C21 3234   6.721   4.477   7.757  0.8365  0.3039  0.1995
   44CHL1  H21A 3235   6.767   4.460   7.857  1.4390 -1.4754 -0.3615
   44CHL1  H21B 3236   6.803   4.469   7.683  1.3518  0.1563  0.7744
   44CHL1  H21C 3237   6.650   4.392   7.760  1.7318 -0.4230  2.0151
   44CHL1   C22 3238   6.544   4.636   7.859  0.4328 -0.6408  0.1336
   44CHL1  H22A 3239   6.502   4.736   7.837  0.5962 -1.0807 -2.2914
   44CHL1  H22B 3240   6.463   4.559   7.866  1.1579 -1.2159  2.7331
   44CHL1   C23 3241   6.604   4.627   7.998  0.1120  0.2745  0.3867
   44CHL1  H23A 3242   6.647   4.527   8.021  2.3963  0.7978 -1.4461
   44CHL1  H23B 3243   6.681   4.708   7.999  0.1205  0.2632  1.4792
   44CHL1   C24 3244   6.497   4.655   8.107  0.3199 -0.2660  0.0997
   44CHL1  H24A 3245   6.428   4.734   8.071 -0.1477 -0.9811 -0.6105
   44CHL1  H24B 3246   6.427   4.569   8.116 -1.0090  0.7078 -0.7506
   44CHL1   C25 3247   6.548   4.705   8.246 -0.2311  0.0673  0.3437
   44CHL1   H25 3248   6.599   4.802   8.227 -0.3529 -0.1745 -1.3160
   44CHL1   C26 3249   6.437   4.729   8.356  0.2760  0.4736 -0.4250
   44CHL1  H26A 3250   6.388   4.638   8.396  0.4052  0.6397  0.1149
   44CHL1  H26B 3251   6.485   4.778   8.443 -3.6804 -2.0035  3.3332
   44CHL1  H26C 3252   6.353   4.791   8.315  0.2336  1.3892  1.0280
   44CHL1   C27 3253   6.657   4.608   8.299 -0.4084  0.3067  0.0747
   44CHL1  H27A 3254   6.631   4.502   8.316 -1.4207  0.6281  0.6039
   44CHL1  H27B 3255   6.755   4.613   8.247 -0.0621  0.2397  0.7207
   44CHL1  H27C 3256   6.668   4.638   8.405  0.0717  2.4727 -0.5569
   45CHL1    C3 3257   0.676   2.948   6.922  0.3013 -1.3852 -0.0622
   45CHL1    H3 3258   0.598   3.015   6.880  2.8297  0.0917 -2.5982
   45CHL1    O3 3259   0.774   2.914   6.817 -0.4397  0.5476 -0.4033
   45CHL1   H3' 3260   0.737   2.838   6.772 -1.9023  1.6142 -1.0400
   45CHL1    C4 3261   0.750   3.018   7.038  0.8290  0.1640  0.1750
   45CHL1   H4A 3262   0.829   2.949   7.078  0.5863 -0.3652 -0.2515
   45CHL1   H4B 3263   0.794   3.114   7.004 -0.5065  0.4458 -0.7761
   45CHL1    C5 3264   0.660   3.042   7.155 -0.6477 -0.3853 -0.2449
   45CHL1    C6 3265   0.646   3.173   7.197 -0.1070 -0.0162  0.1161
   45CHL1    H6 3266   0.697   3.257   7.148  1.4881 -0.6562  0.6419
   45CHL1    C7 3267   0.558   3.208   7.315  0.5433 -0.3844 -0.2452
   45CHL1   H7A 3268   0.598   3.278   7.392  0.2691  0.3270 -0.7451
   45CHL1   H7B 3269   0.456   3.246   7.294  1.1987 -0.2251 -3.4497
   45CHL1    C8 3270   0.531   3.072   7.401 -0.0867  0.2544 -0.1669
   45CHL1    H8 3271   0.625   3.031   7.444 -1.3231 -1.2237  1.1802
   45CHL1   C14 3272   0.441   3.105   7.517  0.1089 -0.4479  0.2016
   45CHL1   H14 3273   0.346   3.149   7.478  0.3311 -1.3848 -1.4483
   45CHL1   C15 3274   0.484   3.207   7.629 -0.8906  0.0394  0.3897
   45CHL1  H15A 3275   0.593   3.203   7.648 -0.5543 -2.3203 -1.7423
   45CHL1  H15B 3276   0.460   3.311   7.597 -2.0380 -0.7596 -1.4168
   45CHL1   C16 3277   0.406   3.174   7.750  0.0723  0.9264 -0.1582
   45CHL1  H16A 3278   0.483   3.150   7.827  1.5448 -0.5624 -2.0575
   45CHL1  H16B 3279   0.350   3.263   7.787 -0.6513  0.3562  0.1213
   45CHL1   C17 3280   0.312   3.054   7.714 -0.4684  0.4988 -0.5046
   45CHL1   H17 3281   0.220   3.093   7.666 -0.2943  1.6305  0.0799
   45CHL1   C13 3282   0.391   2.986   7.596 -0.2169 -0.0649 -0.1442
   45CHL1   C18 3283   0.516   2.910   7.650 -0.1340  0.1159 -0.0972
   45CHL1  H18A 3284   0.590   2.976   7.700 -2.0301  0.9257  1.7391
   45CHL1  H18B 3285   0.479   2.825   7.711  0.7727  0.1238  0.4661
   45CHL1  H18C 3286   0.575   2.862   7.569  1.6333  1.0744  0.5963
   45CHL1   C12 3287   0.304   2.905   7.499  0.3827  0.6975 -0.5325
   45CHL1  H12A 3288   0.262   2.812   7.543  0.0372  0.4098 -1.4605
   45CHL1  H12B 3289   0.219   2.972   7.471  0.8941  0.1081 -3.6803
   45CHL1   C11 3290   0.376   2.863   7.370 -0.3666  0.0564 -0.2170
   45CHL1  H11A 3291   0.435   2.770   7.389  1.2433  1.1936  0.4746
   45CHL1  H11B 3292   0.293   2.840   7.300 -0.0901  2.5155 -1.3910
   45CHL1    C9 3293   0.470   2.970   7.304 -0.2425  0.8181 -0.6741
   45CHL1    H9 3294   0.405   3.033   7.240  0.4883  1.7489 -0.5091
   45CHL1   C10 3295   0.580   2.919   7.207  0.6893  0.0851  0.1091
   45CHL1   C19 3296   0.669   2.818   7.284  0.0863 -0.1923 -0.4902
   45CHL1  H19A 3297   0.710   2.873   7.371 -2.1757  1.7605 -0.6110
   45CHL1  H19B 3298   0.620   2.729   7.329  2.0038 -0.4302  1.2045
   45CHL1  H19C 3299   0.751   2.777   7.220 -0.0872 -0.7689 -0.3483
   45CHL1    C1 3300   0.513   2.853   7.088  0.5942  0.1367  0.3497
   45CHL1   H1A 3301   0.474   2.753   7.116 -0.2860 -0.2932 -2.2833
   45CHL1   H1B 3302   0.428   2.909   7.045 -1.9022 -3.4803  0.4005
   45CHL1    C2 3303   0.606   2.821   6.966  0.2513  0.4683 -0.1622
   45CHL1   H2A 3304   0.547   2.783   6.879  0.6243 -1.8171  0.5379
   45CHL1   H2B 3305   0.686   2.749   6.992  0.4314  0.5399 -0.5159
   45CHL1   C20 3306   0.273   2.978   7.843  1.0726  0.4605  1.1896
   45CHL1   H20 3307   0.363   2.921   7.875  0.3604 -1.1001  0.4525
   45CHL1   C21 3308   0.150   2.896   7.811  0.1064 -0.5062 -0.4409
   45CHL1  H21A 3309   0.081   2.957   7.749 -0.7637 -0.3635  0.6516
   45CHL1  H21B 3310   0.095   2.854   7.898 -0.6295 -0.6917 -0.9937
   45CHL1  H21C 3311   0.182   2.814   7.743 -0.4375 -1.3633  0.3150
   45CHL1   C22 3312   0.246   3.077   7.960  0.4161  0.4020  0.5704
   45CHL1  H22A 3313   0.330   3.146   7.984 -0.4924  1.5150  0.5953
   45CHL1  H22B 3314   0.163   3.146   7.935 -1.1697 -1.8102 -0.4332
   45CHL1   C23 3315   0.212   3.000   8.087 -0.2302  0.2701 -0.7897
   45CHL1  H23A 3316   0.123   2.935   8.077  0.8762 -1.3507 -0.3982
   45CHL1  H23B 3317   0.299   2.935   8.112 -0.3288  1.0541  1.6905
   45CHL1   C24 3318   0.193   3.088   8.210 -0.4422  0.3846 -0.6536
   45CHL1  H24A 3319   0.278   3.159   8.211  1.1806 -1.5015 -0.9813
   45CHL1  H24B 3320   0.100   3.142   8.183 -0.5124 -0.2485 -1.7522
   45CHL1   C25 3321   0.169   3.013   8.343  0.6378  0.4919  0.0877
   45CHL1   H25 3322   0.093   2.932   8.332 -0.3042  1.0035  2.5586
   45CHL1   C26 3323   0.304   2.946   8.382  0.7341  0.6064 -0.2294
   45CHL1  H26A 3324   0.377   3.017   8.426 -3.0255  2.3840  3.3556
   45CHL1  H26B 3325   0.285   2.872   8.462 -0.9667 -0.7538 -1.8572
   45CHL1  H26C 3326   0.360   2.887   8.305  2.1743 -2.2456  2.8779
   45CHL1   C27 3327   0.130   3.104   8.450  0.4646 -0.1789  0.2890
   45CHL1  H27A 3328   0.030   3.151   8.443  0.0180 -1.1760 -0.1014
   45CHL1  H27B 3329   0.137   3.043   8.542 -1.5097 -1.0247 -0.0866
   45CHL1  H27C 3330   0.202   3.189   8.457  0.2624  0.2475 -2.2096
   46CHL1    C3 3331   0.884   4.287   7.089  0.0078 -0.5550  0.5158
   46CHL1    H3 3332   0.837   4.385   7.112  1.5297 -0.7294  4.8621
   46CHL1    O3 3333   0.916   4.271   6.945  0.2132 -0.2469 -0.1011
   46CHL1   H3' 3334   0.906   4.179   6.917  1.4627 -0.3319 -0.2579
   46CHL1    C4 3335   1.014   4.274   7.172 -0.0180  0.4100 -0.4162
   46CHL1   H4A 3336   1.066   4.182   7.135  0.1318  0.1446  0.4411
   46CHL1   H4B 3337   1.087   4.353   7.145  1.2723 -0.1062  1.4136
   46CHL1    C5 3338   1.006   4.261   7.319  0.2080 -0.8280 -0.0118
   46CHL1    C6 3339   1.076   4.335   7.409 -0.1589 -0.0433 -0.2211
   46CHL1    H6 3340   1.155   4.402   7.373  1.3651 -0.6684  1.8347
   46CHL1    C7 3341   1.071   4.332   7.557 -0.3474 -0.2194  0.1807
   46CHL1   H7A 3342   1.176   4.339   7.592 -0.2524 -0.2078 -0.1088
   46CHL1   H7B 3343   1.007   4.415   7.597  0.4196 -0.0402  1.0463
   46CHL1    C8 3344   1.003   4.207   7.603 -0.1818 -0.2203 -0.3413
   46CHL1    H8 3345   1.074   4.122   7.592 -1.4384 -1.6736  2.3673
   46CHL1   C14 3346   0.966   4.212   7.751 -0.5284  0.1178 -0.1354
   46CHL1   H14 3347   0.901   4.302   7.757 -1.2944 -0.3266 -1.5134
   46CHL1   C15 3348   1.077   4.234   7.855  0.3210 -0.0921  0.1171
   46CHL1  H15A 3349   1.163   4.167   7.835 -0.4504 -1.2827  0.7214
   46CHL1  H15B 3350   1.103   4.342   7.857 -0.5075  0.0988  2.8025
   46CHL1   C16 3351   1.012   4.201   7.994 -0.3158  0.8571  0.3586
   46CHL1  H16A 3352   1.064   4.112   8.036 -0.8331 -0.3894 -1.5614
   46CHL1  H16B 3353   1.023   4.277   8.074  0.7662  1.1039 -0.0186
   46CHL1   C17 3354   0.867   4.149   7.958 -0.6101  0.6266 -0.3088
   46CHL1   H17 3355   0.802   4.239   7.957  0.3270  1.3187 -0.8164
   46CHL1   C13 3356   0.876   4.104   7.811  0.0811  0.5528 -0.4448
   46CHL1   C18 3357   0.944   3.964   7.809 -0.5862 -0.1799  0.4801
   46CHL1  H18A 3358   1.022   3.951   7.887  1.7429 -1.5300 -2.0017
   46CHL1  H18B 3359   0.871   3.883   7.826 -0.3239 -0.8045 -1.2863
   46CHL1  H18C 3360   0.983   3.946   7.706 -1.5779 -1.2728  0.2817
   46CHL1   C12 3361   0.753   4.100   7.726  0.5750 -0.5384  0.8468
   46CHL1  H12A 3362   0.689   4.014   7.754  0.6458 -1.1408 -0.8058
   46CHL1  H12B 3363   0.703   4.199   7.732 -0.0705 -0.9940  3.8194
   46CHL1   C11 3364   0.779   4.070   7.578 -0.4113  0.4750 -0.0827
   46CHL1  H11A 3365   0.815   3.966   7.564  0.1206  0.8256 -1.4953
   46CHL1  H11B 3366   0.684   4.070   7.521 -1.1025 -3.2541  0.9690
   46CHL1    C9 3367   0.876   4.177   7.517 -0.3082 -0.6850 -0.1058
   46CHL1    H9 3368   0.823   4.274   7.526  4.5428  1.8852  3.0810
   46CHL1   C10 3369   0.900   4.158   7.366 -0.9928  0.4232 -0.5646
   46CHL1   C19 3370   0.950   4.018   7.338 -0.2233 -0.0076  0.0293
   46CHL1  H19A 3371   1.030   3.998   7.413  2.4737  2.5509 -2.0059
   46CHL1  H19B 3372   0.868   3.947   7.362 -0.3939  0.4314  0.7626
   46CHL1  H19C 3373   0.995   4.010   7.237 -1.5431 -0.9846 -0.4893
   46CHL1    C1 3374   0.771   4.193   7.283  0.3050  0.9337  0.1820
   46CHL1   H1A 3375   0.699   4.114   7.311 -0.6924  1.5291 -0.6044
   46CHL1   H1B 3376   0.714   4.281   7.320 -0.9368  0.2777 -0.1390
   46CHL1    C2 3377   0.789   4.177   7.131 -0.5228  0.5110 -0.4337
   46CHL1   H2A 3378   0.694   4.179   7.073 -2.8068  0.5459  3.1783
   46CHL1   H2B 3379   0.839   4.083   7.099  1.7212  2.4936 -3.0157
   46CHL1   C20 3380   0.808   4.058   8.059  0.1120 -0.0810 -0.1543
   46CHL1   H20 3381   0.873   3.969   8.051 -3.1779 -2.5140 -1.0310
   46CHL1   C21 3382   0.665   4.020   8.021 -0.1429  0.2765 -0.8681
   46CHL1  H21A 3383   0.603   4.105   7.985 -0.4928  0.4122  0.0217
   46CHL1  H21B 3384   0.612   3.958   8.097 -0.2963 -1.8528 -2.6718
   46CHL1  H21C 3385   0.677   3.943   7.942  1.5599 -0.5872  0.2215
   46CHL1   C22 3386   0.822   4.112   8.205  0.1467  0.4282  0.0871
   46CHL1  H22A 3387   0.931   4.124   8.224  0.1620  0.8895 -0.2764
   46CHL1  H22B 3388   0.780   4.215   8.214 -2.5423 -0.3042 -3.1087
   46CHL1   C23 3389   0.767   4.027   8.326  0.3175 -0.4556  1.3802
   46CHL1  H23A 3390   0.657   4.020   8.323  0.3675 -0.5710 -1.9325
   46CHL1  H23B 3391   0.805   3.923   8.314  0.9769 -0.0377 -0.2736
   46CHL1   C24 3392   0.809   4.078   8.463 -0.3809  0.2957  0.3195
   46CHL1  H24A 3393   0.917   4.062   8.480 -0.1405  0.9368 -0.5199
   46CHL1  H24B 3394   0.799   4.188   8.449 -0.2975  0.1140 -1.2889
   46CHL1   C25 3395   0.735   4.004   8.576 -0.4885  0.5669 -0.0153
   46CHL1   H25 3396   0.708   3.903   8.537  0.0715  0.8406 -1.1328
   46CHL1   C26 3397   0.809   3.990   8.702  0.4636  0.1782 -0.8138
   46CHL1  H26A 3398   0.741   3.958   8.784  0.3335  0.2991 -0.8750
   46CHL1  H26B 3399   0.877   3.901   8.704 -1.7486 -1.5342  0.2637
   46CHL1  H26C 3400   0.860   4.086   8.723  1.8683 -0.3426 -1.7614
   46CHL1   C27 3401   0.596   4.066   8.597 -1.0594 -0.6447  0.4630
   46CHL1  H27A 3402   0.597   4.175   8.620  1.3562 -0.5385 -0.0405
   46CHL1  H27B 3403   0.542   4.063   8.500 -0.3862 -0.5962  0.0853
   46CHL1  H27C 3404   0.545   4.009   8.678 -1.2344  1.4568  1.8912
   47CHL1    C3 3405   0.137   3.893   6.712 -0.0989  0.1060 -0.2495
   47CHL1    H3 3406   0.037   3.848   6.727  0.4785 -1.6181 -1.4187
   47CHL1    O3 3407   0.155   3.932   6.575  0.9015  0.4810 -0.2424
   47CHL1   H3' 3408   0.209   4.011   6.571 -1.0310  1.8096 -0.6100
   47CHL1    C4 3409   0.149   4.020   6.790  0.1341  0.0621  0.9186
   47CHL1   H4A 3410   0.247   4.072   6.787  0.9805 -1.6139 -2.3311
   47CHL1   H4B 3411   0.078   4.096   6.750  0.1477  0.8835  2.4089
   47CHL1    C5 3412   0.114   3.997   6.938  0.4060  1.0827 -0.9121
   47CHL1    C6 3413   0.014   4.050   7.008 -0.1072  0.8713 -0.7839
   47CHL1    H6 3414  -0.058   4.123   6.968  0.6267  1.9986 -0.0726
   47CHL1    C7 3415  -0.010   4.032   7.156 -0.3174  0.1206  0.0960
   47CHL1   H7A 3416  -0.036   4.128   7.206 -0.3986  0.6249 -0.9149
   47CHL1   H7B 3417  -0.108   3.980   7.166  0.0445 -0.3347  1.4957
   47CHL1    C8 3418   0.105   3.952   7.234 -0.0011 -0.1428  0.1305
   47CHL1    H8 3419   0.189   4.017   7.266 -1.2531  1.1714  0.8015
   47CHL1   C14 3420   0.049   3.886   7.358  0.2406  0.5955 -0.0061
   47CHL1   H14 3421  -0.029   3.817   7.319  2.2410 -2.1240  0.6586
   47CHL1   C15 3422  -0.013   3.979   7.467 -0.2320  0.0124 -0.8043
   47CHL1  H15A 3423   0.060   4.061   7.486  1.4524 -1.5862 -0.1725
   47CHL1  H15B 3424  -0.113   4.008   7.429  0.4028 -0.4565 -2.9094
   47CHL1   C16 3425  -0.034   3.888   7.585  1.0239  0.5162  0.2680
   47CHL1  H16A 3426   0.004   3.946   7.672  1.7646  0.8090 -0.2410
   47CHL1  H16B 3427  -0.139   3.857   7.601  1.0402 -1.1812 -2.5678
   47CHL1   C17 3428   0.053   3.756   7.563  1.3444 -0.2691  0.3957
   47CHL1   H17 3429  -0.017   3.682   7.518 -0.9533  2.0308  0.1282
   47CHL1   C13 3430   0.147   3.790   7.440 -0.3803  0.5787  0.2477
   47CHL1   C18 3431   0.269   3.873   7.493 -0.1902 -0.1292 -0.3094
   47CHL1  H18A 3432   0.336   3.811   7.556  0.0343 -1.5740 -1.9233
   47CHL1  H18B 3433   0.334   3.908   7.409 -0.6645 -0.5341 -0.8463
   47CHL1  H18C 3434   0.236   3.961   7.552  0.1395 -0.7531  0.8128
   47CHL1   C12 3435   0.191   3.680   7.343  0.1764 -0.2845 -0.4426
   47CHL1  H12A 3436   0.272   3.616   7.384  0.6732  0.9101  0.4690
   47CHL1  H12B 3437   0.102   3.616   7.321  1.5538 -2.4929  0.1802
   47CHL1   C11 3438   0.249   3.739   7.210 -0.5748  0.5408 -0.2061
   47CHL1  H11A 3439   0.346   3.792   7.226 -0.3605  0.1586 -0.2189
   47CHL1  H11B 3440   0.266   3.652   7.143 -3.2975 -0.3856  0.2572
   47CHL1    C9 3441   0.149   3.842   7.143 -0.5587  0.3530 -0.1347
   47CHL1    H9 3442   0.062   3.787   7.101  0.7380 -1.9760  0.1216
   47CHL1   C10 3443   0.206   3.886   6.998  0.1150 -0.0261 -0.0750
   47CHL1   C19 3444   0.343   3.948   7.011 -0.1238  0.6065  0.7364
   47CHL1  H19A 3445   0.424   3.873   7.020 -0.4075  0.1672 -0.2483
   47CHL1  H19B 3446   0.372   4.020   6.932 -2.2809  0.0719 -0.6012
   47CHL1  H19C 3447   0.349   3.997   7.110  0.3044  1.5390  0.2457
   47CHL1    C1 3448   0.217   3.758   6.899  0.0027 -0.4792 -0.2579
   47CHL1   H1A 3449   0.295   3.685   6.932 -0.6307 -1.4614 -0.8998
   47CHL1   H1B 3450   0.119   3.706   6.911 -1.3543  2.3210  1.1720
   47CHL1    C2 3451   0.248   3.799   6.755 -0.1590  0.1654  0.0795
   47CHL1   H2A 3452   0.257   3.709   6.691 -0.6003 -0.4683  0.8845
   47CHL1   H2B 3453   0.349   3.843   6.740  0.0880 -0.1827  0.6773
   47CHL1   C20 3454   0.102   3.688   7.688  0.8290 -0.4078 -0.2068
   47CHL1   H20 3455   0.172   3.751   7.747  1.7588 -0.3163 -1.3957
   47CHL1   C21 3456   0.177   3.557   7.637  0.5785 -0.4622 -0.3423
   47CHL1  H21A 3457   0.182   3.486   7.722 -1.0839 -1.0252 -0.6918
   47CHL1  H21B 3458   0.282   3.573   7.605  0.4789 -1.0318 -0.9645
   47CHL1  H21C 3459   0.125   3.500   7.556  0.1351  0.4655 -0.7213
   47CHL1   C22 3460  -0.004   3.652   7.794 -0.2281 -0.1835  0.0077
   47CHL1  H22A 3461  -0.074   3.737   7.809  0.7758  0.8998 -1.3117
   47CHL1  H22B 3462  -0.066   3.567   7.756 -0.4067 -0.0466 -0.0089
   47CHL1   C23 3463   0.042   3.606   7.935  0.0284  0.4402  0.1469
   47CHL1  H23A 3464   0.116   3.524   7.928  0.4269  0.8735 -0.8118
   47CHL1  H23B 3465   0.092   3.696   7.975 -0.2004 -0.0511  1.5511
   47CHL1   C24 3466  -0.072   3.581   8.030 -0.0525  0.3707 -0.4386
   47CHL1  H24A 3467  -0.141   3.668   8.026 -0.2825  0.2104  0.1375
   47CHL1  H24B 3468  -0.128   3.492   7.997 -1.5090  1.1805 -0.1798
   47CHL1   C25 3469  -0.036   3.558   8.181 -0.2630 -1.0749  0.1742
   47CHL1   H25 3470  -0.133   3.542   8.233 -0.8540 -0.2785 -0.6526
   47CHL1   C26 3471   0.052   3.435   8.195 -0.2205 -0.4267 -0.1707
   47CHL1  H26A 3472   0.152   3.430   8.146 -0.7407 -1.3366 -1.1801
   47CHL1  H26B 3473   0.070   3.413   8.302  1.1747 -0.3689 -0.3945
   47CHL1  H26C 3474  -0.002   3.346   8.156 -0.8891  0.0651 -0.3783
   47CHL1   C27 3475   0.037   3.678   8.239  1.0435  0.2808 -0.2232
   47CHL1  H27A 3476   0.085   3.654   8.336 -2.2989  0.3569  1.5264
   47CHL1  H27B 3477   0.125   3.700   8.175 -0.0388 -0.6715 -2.0949
   47CHL1  H27C 3478  -0.031   3.765   8.251  0.8938  0.6632 -3.4179
   48CHL1    C3 3479   3.006   0.055   6.421 -0.2576  0.2527  0.3896
   48CHL1    H3 3480   2.987  -0.047   6.459  2.2907 -1.1556 -1.8725
   48CHL1    O3 3481   2.987   0.065   6.286 -0.0760 -0.9285  0.8505
   48CHL1   H3' 3482   2.968   0.158   6.273 -3.0899 -1.6793 -0.5405
   48CHL1    C4 3483   2.921   0.165   6.490  0.2490 -0.2300  0.2607
   48CHL1   H4A 3484   2.954   0.260   6.444  1.6723 -0.5564  0.6087
   48CHL1   H4B 3485   2.813   0.154   6.464  0.6609 -0.7840 -1.2616
   48CHL1    C5 3486   2.950   0.167   6.643 -0.0639 -0.4612  0.3087
   48CHL1    C6 3487   2.848   0.168   6.727 -1.1487  0.0155 -0.6505
   48CHL1    H6 3488   2.744   0.162   6.692 -1.5983  2.7858  0.1016
   48CHL1    C7 3489   2.868   0.178   6.876 -0.0886  0.1245 -0.1818
   48CHL1   H7A 3490   2.793   0.242   6.926  0.7720  0.5229  0.6035
   48CHL1   H7B 3491   2.861   0.070   6.903  0.9756  0.3314  0.9227
   48CHL1    C8 3492   3.013   0.215   6.915  0.1039  0.2388  0.4167
   48CHL1    H8 3493   3.020   0.325   6.904  1.1950  0.1562  0.2043
   48CHL1   C14 3494   3.041   0.175   7.060 -0.4025 -0.4087 -0.2914
   48CHL1   H14 3495   3.046   0.065   7.046  0.7794 -0.1180 -2.3717
   48CHL1   C15 3496   2.931   0.213   7.158 -0.7149 -0.6940  0.8991
   48CHL1  H15A 3497   2.896   0.310   7.118  2.1297  0.2600  0.6412
   48CHL1  H15B 3498   2.845   0.144   7.174  1.0287 -2.8829  1.1254
   48CHL1   C16 3499   3.010   0.215   7.291 -0.6718  0.2322  0.1739
   48CHL1  H16A 3500   3.013   0.321   7.323 -4.1562  0.1118  1.0934
   48CHL1  H16B 3501   2.956   0.156   7.368  2.2356 -1.0924  1.2903
   48CHL1   C17 3502   3.155   0.166   7.267  0.4662 -0.2741  0.7792
   48CHL1   H17 3503   3.161   0.055   7.275 -0.4079 -0.4694 -1.0630
   48CHL1   C13 3504   3.177   0.219   7.123 -0.1570 -0.4145  0.3507
   48CHL1   C18 3505   3.185   0.376   7.127  0.9205  0.2294 -0.1921
   48CHL1  H18A 3506   3.098   0.430   7.171 -1.1649 -2.5849 -0.6806
   48CHL1  H18B 3507   3.280   0.406   7.175  0.6614  1.4636 -0.4097
   48CHL1  H18C 3508   3.180   0.416   7.024 -1.4649 -1.0237 -0.6124
   48CHL1   C12 3509   3.284   0.155   7.033 -0.7344  0.2803 -0.2085
   48CHL1  H12A 3510   3.387   0.169   7.070  0.1941 -4.4544 -0.7470
   48CHL1  H12B 3511   3.268   0.047   7.053  1.7982  0.2047  1.5415
   48CHL1   C11 3512   3.271   0.191   6.878  0.3699  0.1437 -0.6428
   48CHL1  H11A 3513   3.298   0.298   6.863 -0.5675  0.3277 -1.0106
   48CHL1  H11B 3514   3.347   0.133   6.821 -1.0729 -1.0168 -1.3969
   48CHL1    C9 3515   3.127   0.158   6.824  0.2276 -0.4199  0.9287
   48CHL1    H9 3516   3.120   0.047   6.829 -0.8224 -0.3213  1.6733
   48CHL1   C10 3517   3.102   0.179   6.670  0.1825 -0.5220 -0.2685
   48CHL1   C19 3518   3.139   0.331   6.639 -0.1901  0.1854  0.0416
   48CHL1  H19A 3519   3.115   0.356   6.534  1.3532  2.2403  0.1528
   48CHL1  H19B 3520   3.077   0.395   6.706  1.0458  2.0021 -0.5172
   48CHL1  H19C 3521   3.247   0.349   6.657 -0.1321  0.2022 -0.3132
   48CHL1    C1 3522   3.191   0.080   6.588  0.1651 -0.0319 -0.2292
   48CHL1   H1A 3523   3.300   0.103   6.586  0.5417 -1.7619 -0.5039
   48CHL1   H1B 3524   3.171  -0.022   6.625 -0.6595  1.2325  2.9264
   48CHL1    C2 3525   3.162   0.082   6.440 -0.5309  0.2755 -0.2872
   48CHL1   H2A 3526   3.214   0.001   6.384  0.6135 -0.1097  1.3105
   48CHL1   H2B 3527   3.191   0.183   6.402 -0.5242  0.9081  1.3559
   48CHL1   C20 3528   3.255   0.207   7.380  0.1072 -0.1653 -0.0854
   48CHL1   H20 3529   3.277   0.315   7.365 -1.0389 -0.2239 -2.3750
   48CHL1   C21 3530   3.392   0.129   7.362 -0.4335 -0.6368 -0.3759
   48CHL1  H21A 3531   3.441   0.163   7.268 -1.2160  2.6622  0.3141
   48CHL1  H21B 3532   3.378   0.022   7.339 -3.0772  0.1846 -2.9132
   48CHL1  H21C 3533   3.462   0.160   7.442  0.2221 -0.5716 -0.9710
   48CHL1   C22 3534   3.195   0.178   7.525  0.1836 -0.4151  0.6774
   48CHL1  H22A 3535   3.139   0.082   7.523 -4.0762  1.9463  0.8051
   48CHL1  H22B 3536   3.284   0.154   7.588  0.5605  1.5317  0.9127
   48CHL1   C23 3537   3.123   0.292   7.598  1.0571 -0.0838  0.0563
   48CHL1  H23A 3538   3.030   0.327   7.549 -1.6767 -5.3427  1.0982
   48CHL1  H23B 3539   3.094   0.245   7.694  0.9054  1.1532  0.6225
   48CHL1   C24 3540   3.220   0.401   7.617 -0.4784  1.5519  0.4454
   48CHL1  H24A 3541   3.318   0.349   7.623 -0.9735  0.6192  0.5807
   48CHL1  H24B 3542   3.228   0.453   7.519 -0.4509  1.2627  0.2952
   48CHL1   C25 3543   3.190   0.510   7.723 -0.1527  0.1993 -0.8338
   48CHL1   H25 3544   3.256   0.598   7.706 -0.2282  0.2838 -0.6959
   48CHL1   C26 3545   3.048   0.559   7.714  0.2400  0.4877  0.8440
   48CHL1  H26A 3546   3.033   0.622   7.624 -2.1407  0.6017  1.3051
   48CHL1  H26B 3547   2.969   0.481   7.713 -0.4642  1.1729  2.0412
   48CHL1  H26C 3548   3.021   0.625   7.799  0.2166 -0.1149  1.3134
   48CHL1   C27 3549   3.215   0.463   7.867 -0.0465 -0.7120  0.1649
   48CHL1  H27A 3550   3.189   0.543   7.940  1.3617  1.4556 -1.6310
   48CHL1  H27B 3551   3.150   0.374   7.884  0.6079 -1.4468 -1.0880
   48CHL1  H27C 3552   3.321   0.432   7.878 -0.0214 -0.2178  1.4276
   49CHL1    C3 3553   1.676   0.833   6.617 -0.0218  0.4072 -0.1793
   49CHL1    H3 3554   1.772   0.889   6.620 -0.1617  0.6466 -0.1408
   49CHL1    O3 3555   1.631   0.810   6.485  0.2465 -0.7506  0.1490
   49CHL1   H3' 3556   1.619   0.716   6.493 -1.6497 -0.6284 -1.0872
   49CHL1    C4 3557   1.691   0.702   6.690 -0.5868 -0.2791  0.4128
   49CHL1   H4A 3558   1.592   0.651   6.678 -0.7046 -0.1820  0.9607
   49CHL1   H4B 3559   1.761   0.642   6.628  1.5799  3.8068 -1.2448
   49CHL1    C5 3560   1.738   0.706   6.834 -0.2324  0.3681 -0.5427
   49CHL1    C6 3561   1.846   0.644   6.883  0.0858  0.6457  0.2737
   49CHL1    H6 3562   1.911   0.592   6.811 -1.6177  0.1024 -0.9197
   49CHL1    C7 3563   1.887   0.661   7.020 -0.3406 -0.5780 -0.0294
   49CHL1   H7A 3564   1.932   0.572   7.070 -0.2379 -0.8679 -0.6442
   49CHL1   H7B 3565   1.965   0.739   7.032 -0.7352 -0.4003  1.6058
   49CHL1    C8 3566   1.769   0.704   7.116  0.8032  0.2637  0.4763
   49CHL1    H8 3567   1.698   0.619   7.118 -0.2033  1.0858 -0.0264
   49CHL1   C14 3568   1.820   0.733   7.253  0.9249 -0.2131 -0.6852
   49CHL1   H14 3569   1.899   0.809   7.236 -0.5507  2.1496  2.5244
   49CHL1   C15 3570   1.892   0.625   7.336  0.2345  0.0173  0.2559
   49CHL1  H15A 3571   1.816   0.544   7.339  0.2251 -0.0350 -0.9078
   49CHL1  H15B 3572   1.990   0.606   7.287  0.4268 -0.3338  0.7810
   49CHL1   C16 3573   1.891   0.697   7.476  0.0376  0.5931 -0.1676
   49CHL1  H16A 3574   1.874   0.629   7.562 -1.8186  1.1903 -0.0602
   49CHL1  H16B 3575   1.990   0.748   7.488 -0.0343  1.1335 -1.7020
   49CHL1   C17 3576   1.795   0.816   7.478  0.2190  0.4978  0.4356
   49CHL1   H17 3577   1.850   0.909   7.453 -1.5259  1.4061 -0.1522
   49CHL1   C13 3578   1.708   0.790   7.351 -0.3035 -0.4802 -0.4598
   49CHL1   C18 3579   1.594   0.698   7.391 -0.0784 -0.0154 -0.1751
   49CHL1  H18A 3580   1.512   0.747   7.448  0.0794 -0.3592  0.3523
   49CHL1  H18B 3581   1.554   0.652   7.299 -0.6614  0.6492 -0.2575
   49CHL1  H18C 3582   1.633   0.620   7.460  1.4109  2.6314  2.0771
   49CHL1   C12 3583   1.650   0.922   7.285 -0.1818 -0.2826  0.7726
   49CHL1  H12A 3584   1.567   0.968   7.343 -1.4434  0.5130 -1.6258
   49CHL1  H12B 3585   1.738   0.991   7.284 -0.7911  0.5499  2.2813
   49CHL1   C11 3586   1.588   0.887   7.147 -0.3286  0.1995 -0.3043
   49CHL1  H11A 3587   1.510   0.812   7.170 -1.4917  0.8071 -2.2338
   49CHL1  H11B 3588   1.554   0.983   7.104 -1.4459 -0.9059 -1.9271
   49CHL1    C9 3589   1.700   0.826   7.054 -0.6893  0.1071  0.2798
   49CHL1    H9 3590   1.765   0.912   7.030 -1.7123  0.5608 -0.8985
   49CHL1   C10 3591   1.640   0.794   6.914 -0.6663 -0.0012  0.0458
   49CHL1   C19 3592   1.509   0.710   6.931 -0.2264 -0.0166  0.2969
   49CHL1  H19A 3593   1.531   0.635   7.010  0.7627 -0.3167 -0.2561
   49CHL1  H19B 3594   1.425   0.777   6.960  0.6466  0.8862  0.7717
   49CHL1  H19C 3595   1.480   0.659   6.837 -0.0889 -0.4097  0.4678
   49CHL1    C1 3596   1.600   0.922   6.835 -0.8208  0.2160  0.3772
   49CHL1   H1A 3597   1.527   0.982   6.893 -0.2634  1.9362 -0.6584
   49CHL1   H1B 3598   1.691   0.987   6.841 -1.0652  0.8122 -1.7465
   49CHL1    C2 3599   1.563   0.908   6.687 -0.3436  0.8194  0.0497
   49CHL1   H2A 3600   1.557   1.006   6.635 -2.4298  0.4969 -0.3983
   49CHL1   H2B 3601   1.469   0.851   6.668  0.1157  0.6588 -1.7977
   49CHL1   C20 3602   1.728   0.843   7.613 -0.9469 -0.3937  0.3487
   49CHL1   H20 3603   1.641   0.776   7.633  0.4480 -1.9738  1.2201
   49CHL1   C21 3604   1.671   0.991   7.610  0.6579 -0.0693  0.4266
   49CHL1  H21A 3605   1.620   1.019   7.705  0.7365  2.6130 -0.2586
   49CHL1  H21B 3606   1.592   1.002   7.533  0.7129  0.7772  0.4803
   49CHL1  H21C 3607   1.747   1.062   7.570  2.0550 -1.1677  1.0610
   49CHL1   C22 3608   1.830   0.826   7.729 -0.2441 -0.1762 -0.3181
   49CHL1  H22A 3609   1.845   0.716   7.738  2.0000 -0.1023 -2.6462
   49CHL1  H22B 3610   1.922   0.886   7.718 -1.4225  1.8745  0.6752
   49CHL1   C23 3611   1.772   0.851   7.873  0.1436  0.6328  0.0815
   49CHL1  H23A 3612   1.778   0.961   7.887  3.7498  0.5964 -0.6410
   49CHL1  H23B 3613   1.670   0.815   7.899  0.5631 -0.2999  0.4601
   49CHL1   C24 3614   1.872   0.784   7.969 -0.2112  0.6198 -0.8458
   49CHL1  H24A 3615   1.849   0.676   7.979  3.7437 -0.3250 -1.1855
   49CHL1  H24B 3616   1.974   0.792   7.925 -0.2151  1.8222 -0.6450
   49CHL1   C25 3617   1.868   0.860   8.102 -0.2023  0.3318 -0.5758
   49CHL1   H25 3618   1.891   0.966   8.077  2.2276  0.0245  0.2505
   49CHL1   C26 3619   1.723   0.864   8.168  0.7394  0.0180 -0.2370
   49CHL1  H26A 3620   1.636   0.876   8.100 -0.1023 -0.0470  0.8185
   49CHL1  H26B 3621   1.710   0.771   8.227 -0.1327  0.0628 -0.3536
   49CHL1  H26C 3622   1.703   0.951   8.234  2.7490  0.3670 -0.0686
   49CHL1   C27 3623   1.969   0.809   8.209  0.5788  0.0800  0.5164
   49CHL1  H27A 3624   1.951   0.865   8.303 -1.4254  0.8572 -0.2979
   49CHL1  H27B 3625   1.943   0.704   8.234  0.2022  0.4001  1.4821
   49CHL1  H27C 3626   2.077   0.829   8.194  0.4165  1.4292  1.0999
   50CHL1    C3 3627   2.680   2.098   6.948 -0.3817  0.3160  0.0402
   50CHL1    H3 3628   2.626   2.007   6.980 -0.3660  0.0210 -0.7658
   50CHL1    O3 3629   2.673   2.112   6.808  0.3504 -0.5898  0.1030
   50CHL1   H3' 3630   2.708   2.027   6.780  0.5661 -0.0732 -1.2587
   50CHL1    C4 3631   2.615   2.213   7.029  0.5411 -0.6292  0.2725
   50CHL1   H4A 3632   2.654   2.300   6.973 -0.5035 -1.3130 -1.5938
   50CHL1   H4B 3633   2.510   2.224   6.994  0.3907 -1.3676  0.4696
   50CHL1    C5 3634   2.632   2.214   7.175  0.6356 -0.0582  0.0963
   50CHL1    C6 3635   2.531   2.227   7.258  0.3406 -0.8364  0.2536
   50CHL1    H6 3636   2.427   2.240   7.223 -0.0813 -1.2415  1.3194
   50CHL1    C7 3637   2.551   2.229   7.404 -0.7453 -0.4359  0.0262
   50CHL1   H7A 3638   2.490   2.308   7.452 -0.7641  1.5269 -3.1224
   50CHL1   H7B 3639   2.533   2.133   7.457  0.3445  0.0734  1.3479
   50CHL1    C8 3640   2.701   2.264   7.447  0.1377 -0.1333 -0.0471
   50CHL1    H8 3641   2.711   2.368   7.410  0.0475  0.2223  0.9131
   50CHL1   C14 3642   2.719   2.231   7.600 -0.2536  0.8588 -0.6113
   50CHL1   H14 3643   2.701   2.121   7.605  0.1332  0.8024 -0.4287
   50CHL1   C15 3644   2.617   2.293   7.699 -0.1706  0.5754 -0.3332
   50CHL1  H15A 3645   2.610   2.402   7.681 -2.4684  0.0533 -2.9329
   50CHL1  H15B 3646   2.514   2.251   7.701 -1.3631  3.2864 -1.9540
   50CHL1   C16 3647   2.701   2.268   7.829 -1.3562  0.4632 -0.1560
   50CHL1  H16A 3648   2.709   2.364   7.885 -0.0606  0.9355 -1.1240
   50CHL1  H16B 3649   2.653   2.196   7.898  0.9015  1.4964  2.5958
   50CHL1   C17 3650   2.845   2.218   7.795  0.6439  0.7158 -0.8605
   50CHL1   H17 3651   2.840   2.107   7.791  1.1707  0.7258 -2.0979
   50CHL1   C13 3652   2.868   2.251   7.642  0.1361  0.2385  0.4048
   50CHL1   C18 3653   2.910   2.401   7.619 -0.2663 -0.1182  0.2713
   50CHL1  H18A 3654   2.837   2.460   7.679  0.6176 -1.3863  2.6650
   50CHL1  H18B 3655   3.013   2.426   7.653  0.1828 -0.5377 -0.7529
   50CHL1  H18C 3656   2.899   2.426   7.511 -1.0772 -0.0792  0.3652
   50CHL1   C12 3657   2.950   2.150   7.566  0.9551 -0.0827  0.0428
   50CHL1  H12A 3658   3.057   2.152   7.596  0.8076  2.2402  0.4609
   50CHL1  H12B 3659   2.918   2.045   7.585 -1.8462  0.8122  0.5365
   50CHL1   C11 3660   2.939   2.166   7.415  0.2619 -0.1897  0.8995
   50CHL1  H11A 3661   2.991   2.257   7.378 -2.1143  0.2707 -1.4469
   50CHL1  H11B 3662   3.000   2.082   7.373  2.5853  1.5737  0.6416
   50CHL1    C9 3663   2.796   2.164   7.373 -0.1247  0.0903 -0.4056
   50CHL1    H9 3664   2.759   2.064   7.402  0.3309 -0.2336 -0.9334
   50CHL1   C10 3665   2.778   2.190   7.218  0.1008 -0.9092  0.2243
   50CHL1   C19 3666   2.846   2.324   7.178 -0.0505  0.3493 -0.1155
   50CHL1  H19A 3667   2.827   2.413   7.241 -2.7399 -0.1773 -0.1215
   50CHL1  H19B 3668   2.955   2.302   7.176 -0.0397  0.1946  1.2279
   50CHL1  H19C 3669   2.817   2.356   7.076 -0.5895  1.5959  0.4191
   50CHL1    C1 3670   2.845   2.078   7.142  0.6515  0.8357  0.4917
   50CHL1   H1A 3671   2.951   2.062   7.173  0.4072  0.9171  1.3634
   50CHL1   H1B 3672   2.792   1.990   7.184 -0.0402  1.0818  0.1329
   50CHL1    C2 3673   2.824   2.082   6.989 -0.4906 -0.3381 -0.8492
   50CHL1   H2A 3674   2.858   1.984   6.948  0.7916 -1.2252  2.1245
   50CHL1   H2B 3675   2.899   2.148   6.940  0.5290  0.0324  1.1452
   50CHL1   C20 3676   2.954   2.249   7.900 -0.2656 -0.3386  0.4570
   50CHL1   H20 3677   2.973   2.356   7.877 -2.2747 -0.0792 -0.0791
   50CHL1   C21 3678   3.085   2.172   7.879 -0.4723 -0.3989  0.3508
   50CHL1  H21A 3679   3.159   2.199   7.957  0.0913  0.0665 -0.3314
   50CHL1  H21B 3680   3.126   2.196   7.778 -0.2196  0.5831  0.6756
   50CHL1  H21C 3681   3.069   2.063   7.883  1.1847 -0.5946  2.2863
   50CHL1   C22 3682   2.910   2.252   8.052  0.5402 -0.2178  0.0261
   50CHL1  H22A 3683   2.828   2.326   8.057  0.7876  0.1136 -0.7074
   50CHL1  H22B 3684   2.868   2.150   8.062 -1.3315  0.6517  1.1531
   50CHL1   C23 3685   3.019   2.291   8.159 -0.1636 -0.4641 -0.0978
   50CHL1  H23A 3686   3.110   2.227   8.160 -0.1187 -0.3892  0.8962
   50CHL1  H23B 3687   3.045   2.397   8.140  1.6267 -1.0422 -1.0501
   50CHL1   C24 3688   2.969   2.274   8.302  0.2430  0.3340 -0.3173
   50CHL1  H24A 3689   2.881   2.340   8.313  0.7815  1.2792 -1.5599
   50CHL1  H24B 3690   2.953   2.164   8.313  2.2790  0.2700  2.6369
   50CHL1   C25 3691   3.069   2.312   8.418 -0.9258  0.2448  1.3052
   50CHL1   H25 3692   3.107   2.410   8.383 -0.9994  1.1034  3.5767
   50CHL1   C26 3693   2.996   2.327   8.552  0.5024  0.0840  0.0172
   50CHL1  H26A 3694   2.927   2.414   8.545  0.5040  0.1704  0.9138
   50CHL1  H26B 3695   2.935   2.235   8.560 -0.5491  0.5111 -2.6745
   50CHL1  H26C 3696   3.068   2.346   8.635 -1.8261  0.3149  2.0790
   50CHL1   C27 3697   3.182   2.212   8.432  0.0339  0.2272  0.1908
   50CHL1  H27A 3698   3.242   2.236   8.522 -0.7660  3.1248  0.0150
   50CHL1  H27B 3699   3.135   2.113   8.448 -0.1484  0.1801 -0.6310
   50CHL1  H27C 3700   3.245   2.220   8.341  0.6904 -3.3248  0.2491
   51CHL1    C3 3701   2.322   1.288   6.915 -0.3806  0.6280  0.1203
   51CHL1    H3 3702   2.235   1.243   6.967  0.8038 -1.6366  0.2432
   51CHL1    O3 3703   2.283   1.334   6.785 -0.3818 -0.3941 -0.8833
   51CHL1   H3' 3704   2.360   1.373   6.744 -1.1883  1.5080 -0.6466
   51CHL1    C4 3705   2.374   1.396   7.012 -0.1550  0.3338  0.8640
   51CHL1   H4A 3706   2.462   1.455   6.977  1.0437  0.2981  3.6262
   51CHL1   H4B 3707   2.290   1.468   7.017  0.6445  1.5163 -1.7364
   51CHL1    C5 3708   2.423   1.329   7.140  0.1347  0.1126 -0.3582
   51CHL1    C6 3709   2.368   1.376   7.257  0.5060  0.6378 -0.4573
   51CHL1    H6 3710   2.291   1.455   7.260 -0.0014  0.1066  0.8806
   51CHL1    C7 3711   2.417   1.328   7.390 -0.6083 -0.2630 -0.0651
   51CHL1   H7A 3712   2.440   1.418   7.452  0.0798 -2.7352  3.3861
   51CHL1   H7B 3713   2.334   1.264   7.427 -1.4338 -0.1772 -1.7119
   51CHL1    C8 3714   2.547   1.243   7.392 -0.1835 -1.0385  0.2356
   51CHL1    H8 3715   2.634   1.311   7.375 -2.2750  1.9108  0.8992
   51CHL1   C14 3716   2.559   1.171   7.529 -0.3353 -0.9104  0.2375
   51CHL1   H14 3717   2.478   1.096   7.536  1.2779 -2.5403  1.8370
   51CHL1   C15 3718   2.557   1.260   7.655  0.4169  0.0954  0.1912
   51CHL1  H15A 3719   2.628   1.344   7.637 -0.8922  1.0344 -0.7495
   51CHL1  H15B 3720   2.457   1.302   7.679  0.0267 -0.7008 -0.0522
   51CHL1   C16 3721   2.613   1.167   7.753 -0.5810  0.1009 -0.1782
   51CHL1  H16A 3722   2.688   1.215   7.819  0.2104 -2.8944  1.2109
   51CHL1  H16B 3723   2.546   1.116   7.825  0.6077 -0.4685  0.5321
   51CHL1   C17 3724   2.685   1.049   7.680 -0.4919 -0.3937  0.6791
   51CHL1   H17 3725   2.614   0.964   7.684  0.1820 -0.9807  0.4126
   51CHL1   C13 3726   2.692   1.096   7.532  0.1350 -0.0222 -0.4351
   51CHL1   C18 3727   2.813   1.186   7.529 -0.2806  0.8522  0.2201
   51CHL1  H18A 3728   2.807   1.260   7.447 -0.5360 -0.0511 -0.5827
   51CHL1  H18B 3729   2.815   1.247   7.622  3.4136 -1.3172  1.6972
   51CHL1  H18C 3730   2.911   1.134   7.522 -0.1499  0.6634  2.7919
   51CHL1   C12 3731   2.683   0.989   7.417  0.1886  0.6777 -0.3111
   51CHL1  H12A 3732   2.770   0.920   7.423 -2.1179 -2.5313 -2.0939
   51CHL1  H12B 3733   2.594   0.925   7.434  1.9901 -1.4212  1.3785
   51CHL1   C11 3734   2.662   1.039   7.270 -0.2841  0.3891  0.4208
   51CHL1  H11A 3735   2.761   1.078   7.238 -0.4931  0.2169 -0.4352
   51CHL1  H11B 3736   2.649   0.947   7.209 -1.4480 -0.7612  2.3753
   51CHL1    C9 3737   2.547   1.143   7.273  0.0380  0.3228 -0.0359
   51CHL1    H9 3738   2.458   1.081   7.295  1.5495 -0.7863  3.3508
   51CHL1   C10 3739   2.521   1.212   7.134  0.0442  0.0376 -0.0923
   51CHL1   C19 3740   2.659   1.259   7.081  1.0720  0.2012  0.5922
   51CHL1  H19A 3741   2.637   1.326   6.995 -1.5635 -0.2283  0.9035
   51CHL1  H19B 3742   2.705   1.321   7.161  1.0433  0.1497  0.6492
   51CHL1  H19C 3743   2.712   1.169   7.043 -0.2423 -0.7167  0.8962
   51CHL1    C1 3744   2.456   1.103   7.034  0.5917 -0.3964  0.2419
   51CHL1   H1A 3745   2.519   1.017   7.004  0.1062 -0.3842 -0.8199
   51CHL1   H1B 3746   2.357   1.079   7.078  1.6874 -1.3908  2.2411
   51CHL1    C2 3747   2.420   1.167   6.903 -0.9612  0.1054 -0.6026
   51CHL1   H2A 3748   2.368   1.098   6.832  2.1981 -1.0731 -1.8296
   51CHL1   H2B 3749   2.513   1.200   6.852 -1.6644  3.8245  0.3862
   51CHL1   C20 3750   2.813   1.003   7.753 -0.1237  0.1896  0.1076
   51CHL1   H20 3751   2.892   1.080   7.746  0.0722 -0.1221 -1.2846
   51CHL1   C21 3752   2.860   0.875   7.674 -0.0287 -0.3073  0.4254
   51CHL1  H21A 3753   2.956   0.826   7.701 -0.2990 -1.4183 -0.6094
   51CHL1  H21B 3754   2.891   0.920   7.577  1.1391 -1.4357  0.2694
   51CHL1  H21C 3755   2.783   0.797   7.653 -0.2018  0.1189 -0.5342
   51CHL1   C22 3756   2.801   0.971   7.903 -0.5043 -0.3422 -0.0004
   51CHL1  H22A 3757   2.764   1.065   7.949 -0.0566 -0.1124 -0.1030
   51CHL1  H22B 3758   2.716   0.900   7.912 -1.9032  1.4023  0.7897
   51CHL1   C23 3759   2.937   0.923   7.976 -0.2050 -0.1607 -0.5579
   51CHL1  H23A 3760   2.942   0.812   7.969  1.8244 -0.2605  1.8119
   51CHL1  H23B 3761   3.029   0.961   7.926  1.0694  0.1428  1.9276
   51CHL1   C24 3762   2.938   0.934   8.126 -0.3323 -0.0450 -0.1031
   51CHL1  H24A 3763   2.921   1.039   8.158 -0.2998 -0.4402  1.2507
   51CHL1  H24B 3764   2.855   0.877   8.174  0.8007  0.0719  2.0856
   51CHL1   C25 3765   3.059   0.877   8.194  0.3124 -0.4749  0.8969
   51CHL1   H25 3766   3.143   0.938   8.155  0.8420 -2.0649 -0.4973
   51CHL1   C26 3767   3.061   0.900   8.346  0.2477 -0.8138  0.2964
   51CHL1  H26A 3768   3.053   1.007   8.375  2.9544 -0.9625  1.7668
   51CHL1  H26B 3769   2.986   0.834   8.395  0.0635  1.1706  2.7951
   51CHL1  H26C 3770   3.158   0.868   8.389  0.2299 -1.7123 -0.3237
   51CHL1   C27 3771   3.092   0.733   8.161 -0.1982 -0.1189  0.6108
   51CHL1  H27A 3772   3.174   0.695   8.227  0.8400  0.1550 -0.4966
   51CHL1  H27B 3773   3.006   0.666   8.183 -0.0266 -0.6762 -0.3969
   51CHL1  H27C 3774   3.109   0.729   8.051 -2.1657  1.3380  0.2422
   52CHL1    C3 3775   4.770   2.473   6.895 -0.2393 -0.6675 -0.0466
   52CHL1    H3 3776   4.698   2.393   6.924  0.7017 -0.5035  2.8248
   52CHL1    O3 3777   4.790   2.493   6.751  0.8356  0.3890 -0.5223
   52CHL1   H3' 3778   4.808   2.587   6.743  2.3576 -0.1836 -5.2862
   52CHL1    C4 3779   4.725   2.607   6.953  0.0903  0.2563 -0.5402
   52CHL1   H4A 3780   4.797   2.686   6.921 -0.4824  0.5306 -1.1793
   52CHL1   H4B 3781   4.626   2.628   6.907 -1.2538 -3.6734  0.4208
   52CHL1    C5 3782   4.720   2.615   7.102 -0.2751 -0.1466  0.2121
   52CHL1    C6 3783   4.609   2.646   7.168  0.2598  0.2036  0.0784
   52CHL1    H6 3784   4.520   2.671   7.109  1.6642 -0.4993 -2.3956
   52CHL1    C7 3785   4.600   2.642   7.322  0.1341 -0.1584  0.9614
   52CHL1   H7A 3786   4.548   2.737   7.346 -1.7228  0.3246 -4.3316
   52CHL1   H7B 3787   4.545   2.555   7.363  0.5632 -1.3780 -0.9600
   52CHL1    C8 3788   4.742   2.649   7.388  0.0476  0.2300  0.1236
   52CHL1    H8 3789   4.789   2.745   7.359  0.2957 -0.1908 -0.9227
   52CHL1   C14 3790   4.728   2.629   7.539 -0.0877  0.5835 -0.3528
   52CHL1   H14 3791   4.671   2.533   7.547  0.8413 -0.2037 -2.7871
   52CHL1   C15 3792   4.644   2.733   7.617  0.0756 -0.1945  0.3592
   52CHL1  H15A 3793   4.648   2.840   7.586  2.2085 -0.8844 -1.8929
   52CHL1  H15B 3794   4.538   2.700   7.609 -0.2740  0.4114  2.1567
   52CHL1   C16 3795   4.691   2.715   7.760  0.0617  0.0196  0.1574
   52CHL1  H16A 3796   4.714   2.816   7.800 -0.1172  0.2817 -0.3875
   52CHL1  H16B 3797   4.617   2.676   7.832  1.1180 -1.3849  0.4983
   52CHL1   C17 3798   4.810   2.611   7.761 -0.1873 -0.4997 -0.2871
   52CHL1   H17 3799   4.773   2.508   7.780  1.7543 -1.7268 -2.9504
   52CHL1   C13 3800   4.861   2.612   7.616  0.2260 -0.6044 -0.1692
   52CHL1   C18 3801   4.935   2.747   7.594 -0.0503  0.3291 -0.0373
   52CHL1  H18A 3802   4.877   2.836   7.626 -1.9522  0.3862 -3.3373
   52CHL1  H18B 3803   5.021   2.746   7.663  0.7813  0.3826 -1.0639
   52CHL1  H18C 3804   4.962   2.774   7.489  1.5660 -1.5512 -0.1284
   52CHL1   C12 3805   4.937   2.490   7.562  0.7503  0.2053 -0.2791
   52CHL1  H12A 3806   5.037   2.465   7.604  0.1204  0.3112  1.2929
   52CHL1  H12B 3807   4.865   2.408   7.582  0.5477  0.0738 -1.4675
   52CHL1   C11 3808   4.953   2.503   7.408  0.5815 -0.0950 -0.3213
   52CHL1  H11A 3809   5.027   2.585   7.396 -0.0331  0.1371 -2.7806
   52CHL1  H11B 3810   5.003   2.412   7.371  0.5532 -1.2293  2.3166
   52CHL1    C9 3811   4.830   2.543   7.326  0.0588  0.7244  0.4408
   52CHL1    H9 3812   4.770   2.450   7.329  2.2376 -0.7591 -0.7443
   52CHL1   C10 3813   4.854   2.578   7.176 -0.2646 -0.7291 -0.0677
   52CHL1   C19 3814   4.958   2.693   7.155  0.2172  0.3744  0.3384
   52CHL1  H19A 3815   4.932   2.789   7.205  0.4196 -0.0232  1.2139
   52CHL1  H19B 3816   5.059   2.652   7.179 -0.2739 -1.2816 -0.3617
   52CHL1  H19C 3817   4.957   2.716   7.046 -3.0658  3.0161  0.8300
   52CHL1    C1 3818   4.903   2.448   7.116 -0.1229 -0.0451  0.0879
   52CHL1   H1A 3819   5.001   2.427   7.164 -1.6938 -2.4475  2.4036
   52CHL1   H1B 3820   4.831   2.368   7.146 -0.8525  0.7190  0.3904
   52CHL1    C2 3821   4.913   2.447   6.961  0.0268 -0.4626  0.0491
   52CHL1   H2A 3822   4.961   2.358   6.917  0.5577  0.3131 -0.9506
   52CHL1   H2B 3823   4.968   2.538   6.931 -0.6056  0.4409  1.5327
   52CHL1   C20 3824   4.905   2.634   7.881 -0.8020  0.9471  0.0230
   52CHL1   H20 3825   4.943   2.738   7.887  0.3216  0.4764  1.1316
   52CHL1   C21 3826   5.015   2.539   7.876  0.1482 -0.5509 -0.6268
   52CHL1  H21A 3827   4.983   2.435   7.850  1.1648 -0.4152 -2.5351
   52CHL1  H21B 3828   5.058   2.529   7.978 -1.0257 -1.3304 -0.1990
   52CHL1  H21C 3829   5.088   2.571   7.799 -0.8427  1.2646 -0.8218
   52CHL1   C22 3830   4.826   2.607   8.013  0.2342  0.0923  0.0214
   52CHL1  H22A 3831   4.718   2.632   8.006  0.2454 -0.1146 -0.8649
   52CHL1  H22B 3832   4.828   2.502   8.050 -1.3210 -0.3896 -1.2238
   52CHL1   C23 3833   4.875   2.687   8.130 -0.0332 -0.3175  0.1246
   52CHL1  H23A 3834   4.977   2.655   8.160  1.0225  0.8289 -2.1998
   52CHL1  H23B 3835   4.854   2.790   8.094 -1.8133 -0.0132  1.9430
   52CHL1   C24 3836   4.789   2.658   8.253 -0.2986 -0.0108  0.3401
   52CHL1  H24A 3837   4.684   2.682   8.224  0.4937 -0.2317 -2.9168
   52CHL1  H24B 3838   4.809   2.549   8.266  1.4078  0.2741  0.2742
   52CHL1   C25 3839   4.830   2.721   8.388  0.0020  0.8872  0.1038
   52CHL1   H25 3840   4.812   2.830   8.379  0.4098  1.0832  1.5366
   52CHL1   C26 3841   4.746   2.657   8.500 -0.3412 -0.7307 -0.3580
   52CHL1  H26A 3842   4.761   2.700   8.602 -0.3250  1.2725 -1.1954
   52CHL1  H26B 3843   4.639   2.664   8.472 -0.3664 -1.4174 -0.4426
   52CHL1  H26C 3844   4.780   2.551   8.500 -2.6864 -1.5166 -1.5821
   52CHL1   C27 3845   4.977   2.708   8.418  0.1042 -0.2420  0.2576
   52CHL1  H27A 3846   5.039   2.761   8.342  0.3261  1.5002  1.6160
   52CHL1  H27B 3847   4.994   2.745   8.521 -2.7197  2.0401 -0.0147
   52CHL1  H27C 3848   5.001   2.600   8.415  0.3887 -0.1498 -3.3895
   53CHL1    C3 3849   0.811   5.487   7.025 -0.3449  0.2789  0.0684
   53CHL1    H3 3850   0.726   5.559   7.020  0.1468  0.7779 -1.3561
   53CHL1    O3 3851   0.810   5.393   6.916 -0.6454  0.2641  0.7434
   53CHL1   H3' 3852   0.879   5.420   6.855 -0.9904 -2.8128 -1.1008
   53CHL1    C4 3853   0.953   5.557   7.045  0.4300 -0.2037 -0.3586
   53CHL1   H4A 3854   1.025   5.474   7.035 -0.1580 -0.7423 -0.1297
   53CHL1   H4B 3855   0.974   5.622   6.957 -0.2011 -0.4966 -0.7261
   53CHL1    C5 3856   0.968   5.637   7.172  0.1148  0.0988  0.4607
   53CHL1    C6 3857   1.006   5.764   7.167  0.2816  0.3800  0.6613
   53CHL1    H6 3858   1.017   5.805   7.065  1.9227  2.3957  1.6002
   53CHL1    C7 3859   1.017   5.850   7.293  0.2016 -0.4881  0.1830
   53CHL1   H7A 3860   1.109   5.911   7.300  0.1986 -0.5722  1.1147
   53CHL1   H7B 3861   0.924   5.911   7.290  2.4040  2.9079 -1.4875
   53CHL1    C8 3862   1.010   5.768   7.430 -0.3407 -0.1022 -0.3029
   53CHL1    H8 3863   1.111   5.726   7.446  0.1923  1.1362 -0.3742
   53CHL1   C14 3864   0.981   5.860   7.549 -0.4414 -0.2509  0.0845
   53CHL1   H14 3865   0.890   5.919   7.527 -0.9144 -0.4773  1.4065
   53CHL1   C15 3866   1.072   5.970   7.586 -0.9688 -0.2646  0.8742
   53CHL1  H15A 3867   1.177   5.934   7.588  0.0610  2.5076 -0.4048
   53CHL1  H15B 3868   1.063   6.045   7.505  1.4605 -1.2172 -0.3308
   53CHL1   C16 3869   1.032   6.014   7.730 -0.0921  0.4803  0.7126
   53CHL1  H16A 3870   1.109   6.057   7.798  0.5582 -0.2471  0.4469
   53CHL1  H16B 3871   0.956   6.094   7.718 -0.7475 -0.2716 -0.2468
   53CHL1   C17 3872   0.950   5.886   7.788  0.7313  0.0850 -0.1209
   53CHL1   H17 3873   0.847   5.926   7.795  0.2081 -1.5489  2.0315
   53CHL1   C13 3874   0.961   5.773   7.682 -0.9395  0.4513  0.0924
   53CHL1   C18 3875   1.092   5.693   7.718  0.4663 -0.1632 -0.1357
   53CHL1  H18A 3876   1.180   5.759   7.735 -1.1372  2.0815 -0.3613
   53CHL1  H18B 3877   1.083   5.640   7.815  1.7028 -0.3693 -0.1182
   53CHL1  H18C 3878   1.122   5.624   7.636  2.0360  0.5306 -0.1638
   53CHL1   C12 3879   0.844   5.679   7.662  0.6241  0.5479  0.1529
   53CHL1  H12A 3880   0.815   5.634   7.759 -0.9893 -0.5240 -0.8051
   53CHL1  H12B 3881   0.753   5.735   7.632 -0.0211 -0.0152  1.0292
   53CHL1   C11 3882   0.875   5.586   7.546  0.7988  0.0611 -1.2584
   53CHL1  H11A 3883   0.954   5.511   7.567  1.0204  1.0949  1.8880
   53CHL1  H11B 3884   0.784   5.522   7.544  0.9354 -0.4384  3.2194
   53CHL1    C9 3885   0.904   5.660   7.413 -0.0014 -0.3453 -0.1623
   53CHL1    H9 3886   0.812   5.718   7.387 -0.4397 -1.3201 -0.8130
   53CHL1   C10 3887   0.927   5.560   7.299  0.5656  0.2143  0.8753
   53CHL1   C19 3888   1.046   5.464   7.327  0.5013  0.1774  0.6891
   53CHL1  H19A 3889   1.068   5.398   7.240  2.2430  0.1343  1.1327
   53CHL1  H19B 3890   1.136   5.521   7.359 -0.3593  2.4998 -0.9245
   53CHL1  H19C 3891   1.030   5.395   7.413  0.5794  1.2508  1.5767
   53CHL1    C1 3892   0.796   5.482   7.283 -0.6856 -0.2522 -0.3996
   53CHL1   H1A 3893   0.805   5.408   7.365  0.4448  0.6405  0.3093
   53CHL1   H1B 3894   0.709   5.551   7.294 -1.0423 -1.1361  2.8580
   53CHL1    C2 3895   0.782   5.401   7.154  0.6818  0.5496 -0.2201
   53CHL1   H2A 3896   0.678   5.365   7.140  0.6563 -0.2045  1.8100
   53CHL1   H2B 3897   0.844   5.310   7.149 -0.6602 -0.4542  0.9728
   53CHL1   C20 3898   0.963   5.845   7.941  0.0075 -0.2082  0.1276
   53CHL1   H20 3899   0.958   5.734   7.940 -0.6393 -0.1808 -1.3131
   53CHL1   C21 3900   0.843   5.893   8.021 -0.1401 -0.4001 -0.4899
   53CHL1  H21A 3901   0.851   5.873   8.130  0.5041  1.4233 -0.1860
   53CHL1  H21B 3902   0.754   5.837   7.984 -0.7867 -0.6080  1.3735
   53CHL1  H21C 3903   0.825   6.002   8.009 -2.0173 -0.6175  0.2370
   53CHL1   C22 3904   1.100   5.886   8.013  0.0245  1.1733 -0.5473
   53CHL1  H22A 3905   1.179   5.840   7.950  0.4540 -0.1943  0.9587
   53CHL1  H22B 3906   1.103   5.996   7.999  1.0197  1.1632 -0.4088
   53CHL1   C23 3907   1.124   5.844   8.156 -0.0015  0.4146 -0.2193
   53CHL1  H23A 3908   1.036   5.883   8.212 -0.1809  0.2360 -0.3784
   53CHL1  H23B 3909   1.123   5.733   8.161  1.9690  0.3522 -0.9350
   53CHL1   C24 3910   1.255   5.886   8.222 -0.2086 -0.2984 -0.3018
   53CHL1  H24A 3911   1.337   5.844   8.159  0.2594 -1.1375  0.8452
   53CHL1  H24B 3912   1.275   5.992   8.200 -0.5208  0.0225  0.9171
   53CHL1   C25 3913   1.262   5.861   8.375  0.1674 -0.5805  0.4570
   53CHL1   H25 3914   1.369   5.864   8.406 -0.4039 -0.8259  2.5244
   53CHL1   C26 3915   1.185   5.968   8.451 -0.2232 -0.3604 -0.6166
   53CHL1  H26A 3916   1.082   5.960   8.409  0.5000 -1.1822 -2.2801
   53CHL1  H26B 3917   1.178   5.926   8.553  2.0878  0.4290 -0.0990
   53CHL1  H26C 3918   1.226   6.071   8.461 -1.9536  0.4599 -1.6759
   53CHL1   C27 3919   1.218   5.717   8.415  0.2030 -0.3316 -0.3881
   53CHL1  H27A 3920   1.108   5.697   8.410 -0.0606  0.8373  0.6150
   53CHL1  H27B 3921   1.261   5.645   8.342  1.3342 -0.8185  0.7461
   53CHL1  H27C 3922   1.240   5.692   8.521 -0.4781  1.6300  0.2289
   54CHL1    C3 3923   0.544   0.510   7.044  0.1494  0.1942 -0.0584
   54CHL1    H3 3924   0.530   0.406   7.083  2.1708  0.7903  2.3533
   54CHL1    O3 3925   0.508   0.526   6.905  0.0787 -0.0048  0.2240
   54CHL1   H3' 3926   0.576   0.481   6.855 -0.8470 -0.6639 -0.4528
   54CHL1    C4 3927   0.457   0.605   7.130 -0.1801 -0.4911 -0.0028
   54CHL1   H4A 3928   0.484   0.709   7.101  0.2571 -0.9038 -1.0919
   54CHL1   H4B 3929   0.351   0.589   7.103 -0.3360  0.8362 -0.2090
   54CHL1    C5 3930   0.495   0.593   7.281 -0.4901  0.2690 -0.1281
   54CHL1    C6 3931   0.394   0.562   7.369 -0.8290 -0.9272 -0.1787
   54CHL1    H6 3932   0.290   0.566   7.336 -1.1486 -1.3850  0.7633
   54CHL1    C7 3933   0.423   0.526   7.515 -0.4602 -0.0536 -0.4916
   54CHL1   H7A 3934   0.351   0.579   7.580  0.8867 -1.0120  1.8624
   54CHL1   H7B 3935   0.414   0.419   7.544  0.1294 -0.0965 -0.4577
   54CHL1    C8 3936   0.564   0.583   7.559  0.5805  0.5049 -0.5021
   54CHL1    H8 3937   0.552   0.693   7.561  2.5494  0.7134  1.4098
   54CHL1   C14 3938   0.603   0.528   7.695  0.9877  0.0930 -0.0367
   54CHL1   H14 3939   0.609   0.420   7.670  0.1250  0.0131  0.0811
   54CHL1   C15 3940   0.500   0.542   7.806  0.3978 -0.2052 -0.4281
   54CHL1  H15A 3941   0.449   0.641   7.801 -0.6840 -0.6392  1.4483
   54CHL1  H15B 3942   0.415   0.470   7.800 -1.1130  1.3966  1.2290
   54CHL1   C16 3943   0.585   0.519   7.934  0.4409  0.8576  0.8086
   54CHL1  H16A 3944   0.572   0.602   8.006 -2.6183  0.8772  0.2932
   54CHL1  H16B 3945   0.555   0.424   7.984  3.1176 -0.5093 -0.0892
   54CHL1   C17 3946   0.730   0.494   7.886  0.0006 -0.1555 -0.2669
   54CHL1   H17 3947   0.735   0.385   7.863 -0.2920  0.1204 -1.6986
   54CHL1   C13 3948   0.741   0.581   7.755  0.1051  0.3056  0.9812
   54CHL1   C18 3949   0.733   0.728   7.789 -0.0123 -0.3588 -0.1062
   54CHL1  H18A 3950   0.803   0.757   7.869  0.4357  1.4104 -1.1197
   54CHL1  H18B 3951   0.742   0.790   7.697 -1.3845  0.1334  0.0741
   54CHL1  H18C 3952   0.633   0.763   7.823  0.5255 -0.8286  2.0039
   54CHL1   C12 3953   0.846   0.537   7.641  0.6590 -0.0098 -0.3197
   54CHL1  H12A 3954   0.949   0.561   7.677  0.7961 -0.0503 -0.6810
   54CHL1  H12B 3955   0.848   0.426   7.631  0.6096 -0.2488  2.0116
   54CHL1   C11 3956   0.813   0.598   7.502  0.3105 -0.4370 -0.4060
   54CHL1  H11A 3957   0.828   0.705   7.525 -0.0675  0.0871 -2.5495
   54CHL1  H11B 3958   0.882   0.567   7.421  0.5980 -1.4958  0.2368
   54CHL1    C9 3959   0.672   0.553   7.458 -0.8966 -0.4427  0.3604
   54CHL1    H9 3960   0.674   0.442   7.446 -2.9820 -0.4970  0.3066
   54CHL1   C10 3961   0.640   0.605   7.318  0.0132  0.1004 -0.6573
   54CHL1   C19 3962   0.676   0.761   7.313 -0.3253  0.8221 -0.0749
   54CHL1  H19A 3963   0.656   0.806   7.214  1.6987  0.1285 -0.8263
   54CHL1  H19B 3964   0.614   0.817   7.386 -1.5219 -1.7893  0.9725
   54CHL1  H19C 3965   0.786   0.770   7.331 -0.5262  1.7456  0.7102
   54CHL1    C1 3966   0.733   0.531   7.215 -0.0628 -0.6367  0.7716
   54CHL1   H1A 3967   0.835   0.573   7.220 -0.5824  0.6485  0.7664
   54CHL1   H1B 3968   0.738   0.425   7.249 -0.4518 -1.1508 -0.7434
   54CHL1    C2 3969   0.693   0.538   7.066 -0.6064 -0.0359  0.3466
   54CHL1   H2A 3970   0.755   0.467   7.007 -0.0621  0.9585 -0.2913
   54CHL1   H2B 3971   0.716   0.637   7.022 -0.5580 -0.1698  0.0726
   54CHL1   C20 3972   0.826   0.524   8.003 -1.1821 -0.2357  0.0477
   54CHL1   H20 3973   0.848   0.632   8.008  1.4842 -0.6223 -2.3467
   54CHL1   C21 3974   0.956   0.446   7.964 -0.2022 -0.5019 -0.3881
   54CHL1  H21A 3975   0.993   0.456   7.860  2.5560  1.1765  0.7049
   54CHL1  H21B 3976   0.945   0.340   7.996 -2.8306 -0.2350 -0.2548
   54CHL1  H21C 3977   1.034   0.499   8.022  0.6621 -1.9836 -0.1752
   54CHL1   C22 3978   0.786   0.476   8.143  0.5873 -0.0773 -0.4438
   54CHL1  H22A 3979   0.699   0.528   8.189 -0.1758 -1.5320 -0.1993
   54CHL1  H22B 3980   0.760   0.368   8.140  3.2737 -0.7392 -0.8447
   54CHL1   C23 3981   0.899   0.487   8.249  0.4388  0.0741  0.4777
   54CHL1  H23A 3982   0.873   0.438   8.346 -0.1855  0.3190  0.4324
   54CHL1  H23B 3983   0.989   0.426   8.226  0.2256  0.0217 -0.2027
   54CHL1   C24 3984   0.944   0.635   8.277 -0.6825  0.4505  0.3101
   54CHL1  H24A 3985   0.996   0.682   8.191  0.7056 -0.1769  0.7839
   54CHL1  H24B 3986   0.851   0.696   8.283 -0.1045  1.3926 -0.1230
   54CHL1   C25 3987   1.034   0.651   8.400  0.1694 -0.1114  0.3305
   54CHL1   H25 3988   0.985   0.599   8.485 -3.4726 -0.0408 -1.5989
   54CHL1   C26 3989   1.175   0.586   8.380  0.3463 -0.9540  0.5769
   54CHL1  H26A 3990   1.245   0.595   8.466  1.1248 -2.0743  0.0627
   54CHL1  H26B 3991   1.170   0.478   8.354  1.7438 -0.3684 -2.2691
   54CHL1  H26C 3992   1.218   0.637   8.292 -1.2208  0.6413  0.7011
   54CHL1   C27 3993   1.052   0.795   8.424  0.5714 -0.1422  0.1265
   54CHL1  H27A 3994   1.069   0.848   8.327  0.9023 -1.7348 -0.6990
   54CHL1  H27B 3995   0.961   0.846   8.461  1.2971 -0.0355  1.7806
   54CHL1  H27C 3996   1.139   0.811   8.491 -0.9022 -0.1176  2.0677
   55CHL1    C3 3997   1.125   2.607   6.954  0.6950  0.6071 -0.3677
   55CHL1    H3 3998   1.155   2.501   6.968 -2.5305 -0.1085  1.9660
   55CHL1    O3 3999   1.127   2.637   6.815 -0.7866  0.3748 -0.0366
   55CHL1   H3' 4000   1.109   2.732   6.809 -2.6735 -0.0974 -2.3371
   55CHL1    C4 4001   0.979   2.624   7.017  0.7143 -0.6391 -0.2285
   55CHL1   H4A 4002   0.933   2.723   6.994  0.7584 -0.3785  0.7665
   55CHL1   H4B 4003   0.913   2.550   6.967 -1.2157 -0.1276  1.5014
   55CHL1    C5 4004   0.975   2.593   7.167  0.1213 -0.3257 -0.4786
   55CHL1    C6 4005   0.898   2.500   7.226  0.6094 -0.0946 -0.5993
   55CHL1    H6 4006   0.817   2.438   7.185 -1.2868  1.6564  0.4102
   55CHL1    C7 4007   0.891   2.484   7.375 -0.1378  0.5269  0.9276
   55CHL1   H7A 4008   0.792   2.477   7.425 -0.9730  2.1724 -0.4104
   55CHL1   H7B 4009   0.946   2.393   7.406  0.9742  1.9312  3.2332
   55CHL1    C8 4010   0.962   2.607   7.452  0.1191 -0.4244  0.5943
   55CHL1    H8 4011   0.885   2.687   7.438 -1.3059 -1.8203  0.2203
   55CHL1   C14 4012   0.988   2.575   7.598  0.2359  0.3810  0.3647
   55CHL1   H14 4013   1.062   2.493   7.582 -1.1575 -0.5353 -1.6318
   55CHL1   C15 4014   0.879   2.511   7.689  0.1222 -0.6442 -0.6959
   55CHL1  H15A 4015   0.787   2.568   7.665 -0.3571  0.5053  3.5991
   55CHL1  H15B 4016   0.859   2.402   7.677  0.3140 -1.0601  2.4606
   55CHL1   C16 4017   0.931   2.527   7.835  0.2071 -0.1707 -0.1945
   55CHL1  H16A 4018   0.849   2.579   7.889 -0.2365  1.6104 -2.4871
   55CHL1  H16B 4019   0.944   2.425   7.879  1.0969  0.0340  0.0109
   55CHL1   C17 4020   1.063   2.604   7.824 -0.2827  0.2651 -0.0936
   55CHL1   H17 4021   1.143   2.527   7.821 -1.6943 -1.1692 -2.7572
   55CHL1   C13 4022   1.048   2.680   7.695 -1.0324  0.9791 -0.7848
   55CHL1   C18 4023   0.953   2.792   7.706  0.3664  0.0444  0.0309
   55CHL1  H18A 4024   1.001   2.880   7.754  1.4712 -0.9142  0.6817
   55CHL1  H18B 4025   0.922   2.811   7.600 -0.3707  0.7825  0.3711
   55CHL1  H18C 4026   0.852   2.769   7.746  0.2355 -0.6581 -0.6839
   55CHL1   C12 4027   1.178   2.721   7.623  0.6489 -0.6374  0.6244
   55CHL1  H12A 4028   1.218   2.807   7.681  3.6688  1.3824 -4.1158
   55CHL1  H12B 4029   1.248   2.635   7.620  2.1653  0.5924 -0.2956
   55CHL1   C11 4030   1.160   2.762   7.478 -0.2741 -0.7053 -0.0909
   55CHL1  H11A 4031   1.095   2.852   7.470 -0.3606 -0.8294 -0.8113
   55CHL1  H11B 4032   1.260   2.779   7.434 -0.0498 -2.5711 -0.3645
   55CHL1    C9 4033   1.094   2.651   7.390 -0.4312  0.3020 -0.2956
   55CHL1    H9 4034   1.154   2.558   7.398  0.3492  0.7538 -0.8171
   55CHL1   C10 4035   1.085   2.682   7.235  0.2838 -0.1511 -0.1397
   55CHL1   C19 4036   1.048   2.827   7.220 -0.0432  0.6207 -0.1995
   55CHL1  H19A 4037   1.021   2.849   7.114 -1.1939  1.4977  0.2669
   55CHL1  H19B 4038   0.963   2.849   7.288  0.6950  2.1312  0.2397
   55CHL1  H19C 4039   1.129   2.896   7.251  0.8786 -0.4399 -0.2130
   55CHL1    C1 4040   1.227   2.653   7.170  0.1806  0.2612 -0.1253
   55CHL1   H1A 4041   1.301   2.726   7.209  0.5795  0.3989 -1.1176
   55CHL1   H1B 4042   1.270   2.552   7.191 -0.8942 -0.1188  0.3169
   55CHL1    C2 4043   1.224   2.697   7.019  0.6032 -0.5028  0.6881
   55CHL1   H2A 4044   1.328   2.698   6.980  1.4535 -0.8599  2.8505
   55CHL1   H2B 4045   1.189   2.800   6.996  0.2284 -0.5962  0.8255
   55CHL1   C20 4046   1.072   2.681   7.957  0.1667  0.1247 -0.1876
   55CHL1   H20 4047   0.988   2.754   7.955 -1.1045 -1.2328  1.7429
   55CHL1   C21 4048   1.196   2.777   7.968  0.6704 -0.1264 -0.0833
   55CHL1  H21A 4049   1.189   2.830   8.065 -0.5373 -1.7420  0.7356
   55CHL1  H21B 4050   1.195   2.845   7.880 -1.9836 -1.1850 -0.9063
   55CHL1  H21C 4051   1.296   2.728   7.970  0.3538 -0.7565  0.3159
   55CHL1   C22 4052   1.066   2.599   8.086  0.7669 -0.2219 -0.4398
   55CHL1  H22A 4053   1.056   2.665   8.175  0.6281  0.3628 -0.8832
   55CHL1  H22B 4054   0.974   2.538   8.078  0.4536  0.0490  0.9055
   55CHL1   C23 4055   1.187   2.503   8.100  0.9235  0.8661 -0.3666
   55CHL1  H23A 4056   1.207   2.451   8.004 -0.1219  0.1334 -0.1998
   55CHL1  H23B 4057   1.273   2.569   8.121  0.5934  2.1002 -2.6824
   55CHL1   C24 4058   1.148   2.405   8.209 -0.1963  0.1906  0.1287
   55CHL1  H24A 4059   1.107   2.462   8.295 -1.3889  1.1794 -1.0720
   55CHL1  H24B 4060   1.067   2.342   8.166  1.2982  0.1793 -2.8461
   55CHL1   C25 4061   1.256   2.316   8.255 -0.6040 -0.1805  0.1389
   55CHL1   H25 4062   1.340   2.371   8.302 -0.2237  0.0717 -0.8301
   55CHL1   C26 4063   1.209   2.233   8.371  0.0323 -0.5830  0.0260
   55CHL1  H26A 4064   1.283   2.162   8.413  1.1843  0.0657 -0.8819
   55CHL1  H26B 4065   1.167   2.293   8.455 -3.0511  0.6967 -2.3363
   55CHL1  H26C 4066   1.119   2.174   8.342  0.0023 -0.1856 -0.6968
   55CHL1   C27 4067   1.304   2.226   8.139  0.3343 -0.0785 -0.1324
   55CHL1  H27A 4068   1.383   2.150   8.157 -0.4130 -0.2989  2.3863
   55CHL1  H27B 4069   1.213   2.178   8.098  0.5329  0.5765 -1.3715
   55CHL1  H27C 4070   1.340   2.290   8.056  1.8514  1.9855  2.0531
   56CHL1    C3 4071   0.274   0.001   6.866  0.0937 -0.1314 -0.2488
   56CHL1    H3 4072   0.188  -0.069   6.872 -1.1056  1.2455 -1.0324
   56CHL1    O3 4073   0.339  -0.006   6.743 -0.2949 -0.4625  0.2301
   56CHL1   H3' 4074   0.364  -0.098   6.732  1.8990  0.1419 -0.1017
   56CHL1    C4 4075   0.216   0.139   6.884  0.7231  0.0887  0.1157
   56CHL1   H4A 4076   0.302   0.210   6.881  1.3006 -0.6501 -1.4549
   56CHL1   H4B 4077   0.144   0.156   6.801  0.5809  2.2494  0.6380
   56CHL1    C5 4078   0.141   0.155   7.016 -0.6988  0.2838 -0.1673
   56CHL1    C6 4079   0.012   0.178   7.014  0.0240  0.1541  0.1140
   56CHL1    H6 4080  -0.041   0.191   6.918  0.3387  3.0187  0.2798
   56CHL1    C7 4081  -0.073   0.198   7.143 -0.2111 -0.3003  0.7632
   56CHL1   H7A 4082  -0.134   0.290   7.141  0.9691  0.5072 -3.3342
   56CHL1   H7B 4083  -0.145   0.115   7.156  0.0314 -0.5428  0.5709
   56CHL1    C8 4084   0.020   0.206   7.269 -1.2556 -0.1180 -0.5056
   56CHL1    H8 4085   0.056   0.311   7.273  1.2916 -1.0240  2.6374
   56CHL1   C14 4086  -0.058   0.182   7.397  1.0123 -0.5771 -0.1752
   56CHL1   H14 4087  -0.097   0.078   7.397 -1.6207  0.3707  0.7057
   56CHL1   C15 4088  -0.188   0.264   7.424 -0.4593 -0.1857 -0.7244
   56CHL1  H15A 4089  -0.194   0.362   7.373 -0.2027 -0.1334 -0.6583
   56CHL1  H15B 4090  -0.280   0.208   7.397 -0.6889 -0.0293 -0.2842
   56CHL1   C16 4091  -0.192   0.291   7.576 -0.6728 -0.0440  0.3873
   56CHL1  H16A 4092  -0.173   0.399   7.597  1.1143 -0.5155  1.3466
   56CHL1  H16B 4093  -0.289   0.261   7.622 -1.2271 -1.0587 -1.4040
   56CHL1   C17 4094  -0.088   0.193   7.631 -0.2360 -1.1370 -0.0938
   56CHL1   H17 4095  -0.110   0.084   7.631 -1.0365 -0.9800 -0.7944
   56CHL1   C13 4096   0.028   0.203   7.520  0.9712  0.5515 -0.1948
   56CHL1   C18 4097   0.103   0.336   7.529  1.1480  0.1089 -0.1149
   56CHL1  H18A 4098   0.163   0.330   7.622  1.0136 -1.4991 -0.1087
   56CHL1  H18B 4099   0.177   0.350   7.447 -0.9006 -0.6896 -2.1697
   56CHL1  H18C 4100   0.047   0.431   7.532 -1.0447 -1.2051  1.7205
   56CHL1   C12 4101   0.128   0.082   7.516  0.1257 -0.2319  0.0674
   56CHL1  H12A 4102   0.185   0.072   7.611 -1.6911 -1.2560  1.0887
   56CHL1  H12B 4103   0.067  -0.011   7.508 -1.8274  0.9279  1.0009
   56CHL1   C11 4104   0.224   0.096   7.397 -0.0455  0.2995 -0.2954
   56CHL1  H11A 4105   0.285   0.182   7.432  0.3160 -0.3536  0.6981
   56CHL1  H11B 4106   0.290   0.007   7.388  0.3521  0.4924  0.6272
   56CHL1    C9 4107   0.140   0.109   7.270 -0.4788 -0.2944  1.0511
   56CHL1    H9 4108   0.086   0.013   7.257  0.3550 -0.4716 -1.3288
   56CHL1   C10 4109   0.229   0.124   7.144  0.6460 -0.0337 -0.1891
   56CHL1   C19 4110   0.320   0.243   7.167  0.4182 -0.5054 -0.0836
   56CHL1  H19A 4111   0.395   0.229   7.248 -1.3182  0.4841  1.7037
   56CHL1  H19B 4112   0.374   0.266   7.072  0.5407 -2.5068 -0.5428
   56CHL1  H19C 4113   0.259   0.327   7.205 -1.2825 -0.8549 -1.9529
   56CHL1    C1 4114   0.318  -0.011   7.122  0.1483  0.2282  0.0900
   56CHL1   H1A 4115   0.404  -0.016   7.191 -0.0775 -1.3479  0.2790
   56CHL1   H1B 4116   0.257  -0.098   7.154 -0.3239  0.2019 -0.8545
   56CHL1    C2 4117   0.376  -0.024   6.977 -0.0241  0.1851 -0.2010
   56CHL1   H2A 4118   0.433  -0.119   6.966 -1.5619 -0.5709 -1.9476
   56CHL1   H2B 4119   0.450   0.057   6.957  0.5195 -0.7481 -2.1824
   56CHL1   C20 4120  -0.053   0.221   7.778 -0.4812 -0.1771  0.5126
   56CHL1   H20 4121   0.050   0.181   7.792 -1.2870 -2.4035  0.2712
   56CHL1   C21 4122  -0.142   0.132   7.865  0.2005 -0.1632  0.0263
   56CHL1  H21A 4123  -0.089   0.111   7.961 -1.5777 -3.1879  0.4088
   56CHL1  H21B 4124  -0.161   0.033   7.819  0.3810 -1.0466  1.7777
   56CHL1  H21C 4125  -0.244   0.174   7.873  0.0409 -0.5731  0.1546
   56CHL1   C22 4126  -0.065   0.364   7.820  0.6175  0.3898  0.0165
   56CHL1  H22A 4127  -0.009   0.428   7.748  1.4097 -0.6639 -0.3173
   56CHL1  H22B 4128  -0.172   0.394   7.822 -0.1874 -2.3827 -0.2154
   56CHL1   C23 4129   0.001   0.401   7.952  0.6612  0.3890 -0.0800
   56CHL1  H23A 4130  -0.039   0.336   8.033 -0.8783  2.2470  0.6931
   56CHL1  H23B 4131   0.110   0.385   7.944  0.4956 -0.5241 -0.5082
   56CHL1   C24 4132  -0.005   0.545   7.983 -0.6676  0.0919  0.1039
   56CHL1  H24A 4133   0.064   0.604   7.919 -0.0776 -0.6503  0.0650
   56CHL1  H24B 4134  -0.105   0.589   7.963 -0.2689  1.0911  0.2763
   56CHL1   C25 4135   0.056   0.583   8.123 -1.0026 -0.2639  0.5292
   56CHL1   H25 4136  -0.004   0.540   8.206 -0.7659 -0.4575  0.5998
   56CHL1   C26 4137   0.199   0.531   8.142 -0.6658 -0.5810  0.0201
   56CHL1  H26A 4138   0.235   0.579   8.236 -0.3970 -0.4097 -0.1709
   56CHL1  H26B 4139   0.268   0.561   8.061  0.8229 -1.7874  0.8262
   56CHL1  H26C 4140   0.218   0.422   8.151 -1.6318 -0.6628  1.1990
   56CHL1   C27 4141   0.064   0.729   8.143  0.1825 -0.1807  0.0501
   56CHL1  H27A 4142  -0.038   0.767   8.121 -0.0441 -1.3913 -1.0606
   56CHL1  H27B 4143   0.099   0.765   8.242  2.1874  1.5820 -1.2522
   56CHL1  H27C 4144   0.138   0.780   8.077  1.1041  0.9949  1.9649
   57SAPC     N 4145   1.121   3.301  10.894  0.6138  0.0226 -0.0736
   57SAPC   C12 4146   1.021   3.369  10.804 -0.3725  0.0132 -0.0035
   57SAPC  H12A 4147   1.017   3.324  10.706 -2.5297  1.5610 -0.6586
   57SAPC  H12B 4148   1.046   3.474  10.799  0.9044 -0.1861  1.7765
   57SAPC   C13 4149   1.099   3.158  10.901  0.0929  0.1106 -0.6818
   57SAPC  H13A 4150   1.104   3.110  10.804 -0.6262  0.0063 -0.6718
   57SAPC  H13B 4151   1.172   3.119  10.970 -2.5759 -2.1290  0.9731
   57SAPC  H13C 4152   1.003   3.137  10.946 -0.7551  4.4671 -0.3028
   57SAPC   C14 4153   1.262   3.334  10.844  0.7952 -0.7247  0.5082
   57SAPC  H14A 4154   1.337   3.275  10.895  2.2447  0.3478 -0.3251
   57SAPC  H14B 4155   1.269   3.311  10.739  0.3055 -1.1844  0.5745
   57SAPC  H14C 4156   1.287   3.439  10.854 -0.4280 -0.6179  2.9809
   57SAPC   C15 4157   1.113   3.365  11.031 -0.3929  0.2321  0.8333
   57SAPC  H15A 4158   1.145   3.468  11.023 -0.0074  0.1189  0.9388
   57SAPC  H15B 4159   1.010   3.365  11.063 -0.7383 -0.5495 -0.2564
   57SAPC  H15C 4160   1.172   3.308  11.101  0.4806 -0.1309 -0.1932
   57SAPC   C11 4161   0.884   3.370  10.856  0.1670  0.1283  0.1217
   57SAPC  H11A 4162   0.868   3.438  10.942  2.4279 -0.4671  1.0500
   57SAPC  H11B 4163   0.857   3.264  10.875 -0.1050  0.5202  1.9659
   57SAPC     P 4164   0.702   3.514  10.765 -0.6362  0.1059 -0.1628
   57SAPC   O13 4165   0.590   3.459  10.843  0.7115 -0.2743  0.5704
   57SAPC   O14 4166   0.764   3.639  10.819  0.2715 -0.3727  0.4318
   57SAPC   O12 4167   0.817   3.418  10.741  0.2312 -0.9874 -0.6031
   57SAPC   O11 4168   0.651   3.541  10.614 -0.4137  0.8181 -0.4626
   57SAPC    C1 4169   0.740   3.579  10.505  0.0641 -0.6798 -0.1069
   57SAPC    HA 4170   0.847   3.570  10.534  0.2041  0.4617 -0.2409
   57SAPC    HB 4171   0.719   3.510  10.421 -0.2093 -2.2195  1.2165
   57SAPC    C2 4172   0.718   3.725  10.461  0.4403  0.6890  0.0770
   57SAPC    HS 4173   0.699   3.784  10.553  0.8440  1.3011 -0.2306
   57SAPC   O21 4174   0.599   3.719  10.370 -0.1853 -0.5252 -0.5087
   57SAPC   C21 4175   0.518   3.825  10.382 -0.4088  0.6902  0.1657
   57SAPC   O22 4176   0.529   3.906  10.469 -0.2953 -0.3314  0.0751
   57SAPC   C22 4177   0.429   3.819  10.255 -0.2786  0.2931  0.1692
   57SAPC   H2R 4178   0.357   3.734  10.262  0.6642 -0.3717  2.2082
   57SAPC   H2S 4179   0.374   3.915  10.267 -0.0133  0.5105 -0.3437
   57SAPC    C3 4180   0.834   3.785  10.384  0.0569 -0.8833  0.2054
   57SAPC    HX 4181   0.840   3.730  10.288 -1.8306 -1.4739  0.3947
   57SAPC    HY 4182   0.921   3.765  10.450 -0.5783 -1.8466  0.7703
   57SAPC   O31 4183   0.828   3.928  10.351  0.3364 -0.6076  0.5634
   57SAPC   C31 4184   0.823   4.019  10.455 -0.0604  0.9142  0.4282
   57SAPC   O32 4185   0.831   3.992  10.572  0.5374 -0.3666  0.0485
   57SAPC   C32 4186   0.806   4.161  10.403 -0.2061 -0.0714  0.4741
   57SAPC   H2X 4187   0.884   4.174  10.325 -1.6047  0.2824 -0.9033
   57SAPC   H2Y 4188   0.813   4.231  10.489 -1.6018 -0.8818  1.2689
   57SAPC   C23 4189   0.495   3.812  10.112  0.6589 -0.1066 -0.5267
   57SAPC   H3R 4190   0.540   3.713  10.087  1.1846  0.3131 -1.2587
   57SAPC   H3S 4191   0.580   3.882  10.125 -0.0531  0.6884 -0.1170
   57SAPC   C24 4192   0.399   3.864  10.003  0.0439 -0.2925 -0.2104
   57SAPC   H4R 4193   0.467   3.879   9.916 -1.3708  0.8709 -1.1477
   57SAPC   H4S 4194   0.356   3.962  10.033  2.8661  0.7984  0.4155
   57SAPC   C25 4195   0.298   3.755   9.971  0.5145 -0.6479  0.1233
   57SAPC   H5R 4196   0.251   3.703  10.056 -0.7893 -0.3978 -0.4483
   57SAPC   C26 4197   0.251   3.727   9.851 -0.2086  0.2053 -0.2671
   57SAPC   H6R 4198   0.185   3.640   9.842  0.3817 -0.3623  0.7721
   57SAPC   C27 4199   0.295   3.781   9.721  0.1771 -0.7557 -0.3484
   57SAPC   H7R 4200   0.333   3.885   9.736 -0.8643 -0.6178  1.4711
   57SAPC   H7S 4201   0.213   3.779   9.647  0.6170 -0.6400 -0.8431
   57SAPC   C28 4202   0.411   3.710   9.665  0.5178 -0.4760 -0.5331
   57SAPC   H8R 4203   0.512   3.746   9.686  0.0206  0.7335 -0.1233
   57SAPC   C29 4204   0.411   3.603   9.585 -0.4096  0.5897 -0.4208
   57SAPC   H9R 4205   0.499   3.547   9.549  0.0926  1.0663  0.0600
   57SAPC  C210 4206   0.279   3.531   9.542  0.5412 -0.1305  0.3795
   57SAPC  H10R 4207   0.209   3.591   9.479  0.8422 -0.5776 -0.3906
   57SAPC  H10S 4208   0.224   3.508   9.636  2.1905  0.6263  1.5559
   57SAPC  C211 4209   0.306   3.399   9.475  0.3379  0.2894 -0.9707
   57SAPC  H11R 4210   0.359   3.331   9.544 -0.6287  0.0455 -0.4539
   57SAPC  C212 4211   0.279   3.360   9.343  0.4192 -0.8516  0.1008
   57SAPC  H12R 4212   0.314   3.260   9.312  0.4257 -1.0521  0.7331
   57SAPC  C213 4213   0.211   3.441   9.238 -0.0988 -0.2338  0.0443
   57SAPC  H13R 4214   0.274   3.432   9.147  0.8067  0.4367  0.5882
   57SAPC  H13S 4215   0.218   3.549   9.264  0.6551 -0.8379  2.4636
   57SAPC  C214 4216   0.077   3.404   9.196  0.4202  0.1347 -0.3066
   57SAPC  H14R 4217   0.023   3.317   9.237 -2.4324  1.1792 -1.6990
   57SAPC  C215 4218  -0.001   3.475   9.105 -0.5635  0.9433 -1.0160
   57SAPC  H15R 4219  -0.105   3.444   9.092 -0.0541 -0.8747 -0.9167
   57SAPC  C216 4220   0.034   3.607   9.042  0.1552 -0.1985  0.6173
   57SAPC  H16R 4221   0.122   3.658   9.087 -0.4699 -0.0335  1.6662
   57SAPC  H16S 4222  -0.052   3.677   9.044 -0.3439 -0.7691 -0.3482
   57SAPC  C217 4223   0.075   3.588   8.896  0.2162 -0.8928  0.0123
   57SAPC  H17R 4224  -0.009   3.534   8.848 -0.6448 -0.6165  1.1970
   57SAPC  H17S 4225   0.162   3.519   8.888 -0.2683 -1.4474 -0.5518
   57SAPC  C218 4226   0.118   3.717   8.824 -0.7093  0.4798 -0.3121
   57SAPC  H18R 4227   0.217   3.742   8.867 -0.6802 -0.4518  0.1818
   57SAPC  H18S 4228   0.047   3.802   8.834 -2.1367 -0.5785 -1.2737
   57SAPC  C219 4229   0.143   3.684   8.673 -0.0719 -0.2918  0.4295
   57SAPC  H19R 4230   0.042   3.644   8.648 -0.1906  1.0802 -1.3629
   57SAPC  H19S 4231   0.220   3.608   8.648  1.5563  0.8758  1.7805
   57SAPC  C220 4232   0.179   3.806   8.583  0.1111 -0.6114  0.1076
   57SAPC  H20R 4233   0.273   3.844   8.628 -0.6859  0.8234  0.6241
   57SAPC  H20S 4234   0.102   3.885   8.600 -0.6478 -0.8173 -2.2177
   57SAPC  H20T 4235   0.182   3.775   8.476 -0.4102  1.4724 -0.5491
   57SAPC   C33 4236   0.669   4.175  10.331 -0.4450 -0.0955  0.5295
   57SAPC   H3X 4237   0.589   4.158  10.407  0.0084  1.8444  1.4650
   57SAPC   H3Y 4238   0.656   4.102  10.248 -1.5198  0.2153  0.4142
   57SAPC   C34 4239   0.666   4.310  10.254  0.0940 -0.2008 -0.3723
   57SAPC   H4X 4240   0.750   4.320  10.183  0.7969  0.8162  0.5959
   57SAPC   H4Y 4241   0.673   4.395  10.325  0.1553  0.4991 -1.2164
   57SAPC   C35 4242   0.546   4.325  10.168 -0.2176  0.1127 -0.1527
   57SAPC   H5X 4243   0.549   4.429  10.127  1.7199  0.8756  1.8145
   57SAPC   H5Y 4244   0.450   4.318  10.224 -0.2878 -1.7765 -0.5023
   57SAPC   C36 4245   0.542   4.236  10.043 -0.4694 -0.2482  0.2578
   57SAPC   H6X 4246   0.527   4.128  10.065 -0.1444 -0.4890 -0.6411
   57SAPC   H6Y 4247   0.641   4.242   9.992 -0.0848  1.9074  1.1812
   57SAPC   C37 4248   0.441   4.293   9.944  0.1153 -0.3072  0.1374
   57SAPC   H7X 4249   0.491   4.389   9.918 -1.1224  0.1439 -0.5757
   57SAPC   H7Y 4250   0.352   4.326  10.001 -0.2562  0.6810 -0.9850
   57SAPC   C38 4251   0.415   4.209   9.818 -0.5030 -1.0988 -1.1055
   57SAPC   H8X 4252   0.373   4.111   9.851  1.7311 -1.9133 -0.5618
   57SAPC   H8Y 4253   0.517   4.200   9.775 -0.7158  0.7975 -2.0270
   57SAPC   C39 4254   0.325   4.279   9.718 -0.8198 -0.1569 -0.1668
   57SAPC   H9X 4255   0.363   4.383   9.713 -1.1697 -0.0911 -1.7369
   57SAPC   H9Y 4256   0.217   4.282   9.745 -1.7781  1.4605 -3.9349
   57SAPC  C310 4257   0.327   4.210   9.579  0.1515  0.0390  0.6370
   57SAPC  H10X 4258   0.220   4.211   9.547 -0.1201 -1.4278  1.4658
   57SAPC  H10Y 4259   0.362   4.105   9.591  2.5254  0.8792  1.1738
   57SAPC  C311 4260   0.422   4.286   9.488 -0.0442 -0.0279  1.0609
   57SAPC  H11X 4261   0.525   4.287   9.531  0.4958 -2.0337 -0.1223
   57SAPC  H11Y 4262   0.393   4.392   9.484  0.6756  0.1956  1.5545
   57SAPC  C312 4263   0.440   4.205   9.361 -0.3737  0.3676 -0.1719
   57SAPC  H12X 4264   0.347   4.190   9.301 -0.1163  0.3494 -0.5684
   57SAPC  H12Y 4265   0.479   4.106   9.391  0.5053  0.4536 -0.9925
   57SAPC  C313 4266   0.550   4.263   9.259  0.0133  0.0161 -0.2852
   57SAPC  H13X 4267   0.644   4.274   9.317  0.7103  1.4847 -1.6523
   57SAPC  H13Y 4268   0.533   4.371   9.237  2.4582  0.8611  1.7193
   57SAPC  C314 4269   0.567   4.172   9.134  0.1237  0.6002  0.2374
   57SAPC  H14X 4270   0.472   4.176   9.076  0.3373 -0.8784 -0.2486
   57SAPC  H14Y 4271   0.568   4.065   9.163  0.9992  0.9530  1.5347
   57SAPC  C315 4272   0.690   4.197   9.051 -0.3986 -0.4106  0.2778
   57SAPC  H15X 4273   0.712   4.118   8.975  0.0720  0.3608 -0.3991
   57SAPC  H15Y 4274   0.781   4.198   9.114  0.4263  0.2911 -0.8968
   57SAPC  C316 4275   0.697   4.338   8.983  0.1927 -0.3035  0.5902
   57SAPC  H16X 4276   0.790   4.353   8.923  0.0274 -0.8832  0.1850
   57SAPC  H16Y 4277   0.702   4.417   9.062  0.1745 -1.1576  1.4508
   57SAPC  C317 4278   0.575   4.379   8.896 -0.6288  0.3103  0.2831
   57SAPC  H17X 4279   0.487   4.336   8.947 -0.8817 -2.1645 -2.1105
   57SAPC  H17Y 4280   0.571   4.331   8.795 -3.2389  1.6249 -0.2874
   57SAPC  C318 4281   0.551   4.527   8.881 -0.1749 -0.1796  0.4966
   57SAPC  H18X 4282   0.590   4.556   8.781  0.0457 -0.2919  0.5515
   57SAPC  H18Y 4283   0.606   4.584   8.960 -1.2293  1.6909 -0.0953
   57SAPC  H18Z 4284   0.446   4.562   8.876  0.5137  1.7143 -2.1574
   58SAPC     N 4285   2.219   1.790  10.751  0.0073  0.0266 -0.4404
   58SAPC   C12 4286   2.231   1.875  10.625  0.5249  0.0058  0.1067
   58SAPC  H12A 4287   2.159   1.865  10.545  2.4900  1.1410 -1.8580
   58SAPC  H12B 4288   2.325   1.840  10.585  1.3196  1.2923  0.8347
   58SAPC   C13 4289   2.217   1.643  10.710  0.0012 -0.9950 -0.3484
   58SAPC  H13A 4290   2.115   1.616  10.691 -0.2090 -0.8088  0.4951
   58SAPC  H13B 4291   2.285   1.618  10.630 -1.3423  0.2715 -1.9350
   58SAPC  H13C 4292   2.236   1.575  10.792 -1.2792 -0.6827  0.2263
   58SAPC   C14 4293   2.337   1.824  10.844  0.3814 -0.1081 -0.1245
   58SAPC  H14A 4294   2.318   1.911  10.905  0.2109  0.1313 -0.5135
   58SAPC  H14B 4295   2.350   1.744  10.915  0.9736  2.3032  2.5749
   58SAPC  H14C 4296   2.434   1.836  10.797 -0.6493 -0.7851 -2.5216
   58SAPC   C15 4297   2.099   1.821  10.823  0.3524 -0.2242  0.6335
   58SAPC  H15A 4298   2.092   1.767  10.917  0.2729  1.4934  1.6345
   58SAPC  H15B 4299   2.088   1.928  10.835 -1.7291 -0.4758  1.1284
   58SAPC  H15C 4300   2.011   1.794  10.768  0.6110 -0.1839  0.2017
   58SAPC   C11 4301   2.263   2.025  10.654 -0.7389  0.0799 -0.3521
   58SAPC  H11A 4302   2.195   2.070  10.730  1.3246 -0.6652  1.9978
   58SAPC  H11B 4303   2.233   2.072  10.558  2.8638  0.5408 -1.3185
   58SAPC     P 4304   2.445   2.203  10.694 -0.0982  0.4249 -0.1677
   58SAPC   O13 4305   2.370   2.278  10.799  0.1462  0.0740  0.0321
   58SAPC   O14 4306   2.586   2.197  10.705 -0.0258 -0.5234 -0.0848
   58SAPC   O12 4307   2.395   2.057  10.694  0.4584  0.0246 -0.4664
   58SAPC   O11 4308   2.410   2.248  10.552  0.4242 -0.0859 -0.0550
   58SAPC    C1 4309   2.443   2.187  10.429  0.5365  0.4361 -0.4528
   58SAPC    HA 4310   2.553   2.172  10.424  0.3277 -0.9572 -0.9310
   58SAPC    HB 4311   2.386   2.093  10.416 -2.0069  1.9079 -0.3441
   58SAPC    C2 4312   2.400   2.285  10.317  0.7990 -0.1327  0.1152
   58SAPC    HS 4313   2.415   2.243  10.215 -1.3462  0.2821 -0.3951
   58SAPC   O21 4314   2.472   2.414  10.337 -0.0123  0.4680 -0.2216
   58SAPC   C21 4315   2.597   2.410  10.295 -0.1546 -0.3142  0.6523
   58SAPC   O22 4316   2.659   2.316  10.256 -0.4653  0.3568 -0.1544
   58SAPC   C22 4317   2.647   2.557  10.309 -0.3614 -0.2122 -0.1279
   58SAPC   H2R 4318   2.562   2.627  10.289  1.3076  1.6314 -0.9232
   58SAPC   H2S 4319   2.661   2.576  10.418  0.5873 -2.4866  0.1561
   58SAPC    C3 4320   2.246   2.311  10.324 -0.4632 -0.5917 -0.0328
   58SAPC    HX 4321   2.244   2.387  10.405  0.7036  0.4161 -0.9505
   58SAPC    HY 4322   2.193   2.222  10.365 -1.4997  0.3656  0.7562
   58SAPC   O31 4323   2.186   2.366  10.201  0.6377 -0.2569  0.5556
   58SAPC   C31 4324   2.201   2.492  10.187  0.2861 -0.2880  0.1014
   58SAPC   O32 4325   2.254   2.571  10.261 -0.3086  0.0195 -0.2866
   58SAPC   C32 4326   2.145   2.540  10.050  0.8091 -1.6499  0.5149
   58SAPC   H2X 4327   2.174   2.646  10.030 -1.4995 -0.9210  0.8916
   58SAPC   H2Y 4328   2.037   2.518  10.067  0.9464 -0.2938  3.5456
   58SAPC   C23 4329   2.777   2.591  10.244 -0.4151  0.4337 -0.4203
   58SAPC   H3R 4330   2.849   2.512  10.273 -1.1754  0.0646  0.4586
   58SAPC   H3S 4331   2.815   2.679  10.301 -1.3176  0.0212  0.8235
   58SAPC   C24 4332   2.754   2.624  10.095  0.1005 -0.3343  0.4035
   58SAPC   H4R 4333   2.705   2.724  10.086  1.1915  0.2086  0.3372
   58SAPC   H4S 4334   2.678   2.556  10.053 -0.2590  0.6187 -0.5147
   58SAPC   C25 4335   2.885   2.622  10.021  0.0543 -0.2831  0.1609
   58SAPC   H5R 4336   2.977   2.635  10.081  0.5380  0.0009 -0.6383
   58SAPC   C26 4337   2.902   2.582   9.894  0.0649  0.4638  0.0409
   58SAPC   H6R 4338   3.004   2.566   9.856  0.1566  2.1862 -0.4796
   58SAPC   C27 4339   2.799   2.546   9.789 -0.2493 -0.0451  0.2257
   58SAPC   H7R 4340   2.697   2.559   9.830  0.6384  0.1340  2.4078
   58SAPC   H7S 4341   2.817   2.440   9.760  0.6512 -0.2405  1.5136
   58SAPC   C28 4342   2.806   2.637   9.667 -0.5798 -0.6681 -0.6457
   58SAPC   H8R 4343   2.852   2.735   9.687  1.5938 -1.5841 -1.0131
   58SAPC   C29 4344   2.782   2.598   9.533  0.7122 -0.2637 -0.4919
   58SAPC   H9R 4345   2.804   2.669   9.451 -2.2510  2.9424  1.3547
   58SAPC  C210 4346   2.742   2.469   9.469  0.5085  0.8569 -0.2366
   58SAPC  H10R 4347   2.654   2.489   9.405 -0.5932  0.3554  1.1075
   58SAPC  H10S 4348   2.723   2.404   9.557 -0.0558 -0.6424 -1.4262
   58SAPC  C211 4349   2.859   2.406   9.396 -0.0382  0.2078 -0.4035
   58SAPC  H11R 4350   2.923   2.346   9.462  0.9653  3.5423  1.8281
   58SAPC  C212 4351   2.895   2.426   9.269  0.2040  0.3417 -0.3077
   58SAPC  H12R 4352   2.988   2.375   9.237 -0.3755  0.9393 -3.1055
   58SAPC  C213 4353   2.827   2.512   9.167  0.1975 -0.0883  0.7586
   58SAPC  H13R 4354   2.735   2.559   9.208 -1.0949 -1.4153 -0.6036
   58SAPC  H13S 4355   2.788   2.457   9.079  2.3844 -0.0625 -0.2583
   58SAPC  C214 4356   2.908   2.628   9.120  0.8694 -0.0433 -0.1297
   58SAPC  H14R 4357   2.924   2.715   9.186 -2.0152  0.1141  0.4342
   58SAPC  C215 4358   2.970   2.640   9.000  0.8074 -0.4245 -0.0778
   58SAPC  H15R 4359   3.025   2.731   8.972  0.3079 -0.0774  0.0584
   58SAPC  C216 4360   2.950   2.534   8.895 -0.2697  0.2236 -0.7146
   58SAPC  H16R 4361   2.945   2.427   8.924  0.2613  0.5485  0.6490
   58SAPC  H16S 4362   3.038   2.541   8.829 -0.1140 -4.0668 -1.0820
   58SAPC  C217 4363   2.829   2.567   8.803 -0.3584  0.0065  0.2274
   58SAPC  H17R 4364   2.736   2.564   8.865 -0.4835  3.4359  0.3038
   58SAPC  H17S 4365   2.826   2.477   8.738  0.9526  1.5385 -1.9942
   58SAPC  C218 4366   2.850   2.692   8.726 -0.0543  0.3866 -0.1070
   58SAPC  H18R 4367   2.951   2.704   8.681 -0.3041 -0.3721 -0.8721
   58SAPC  H18S 4368   2.842   2.784   8.787 -1.4476  0.0569  0.2327
   58SAPC  C219 4369   2.753   2.718   8.615  0.0732  0.0188  0.1642
   58SAPC  H19R 4370   2.656   2.731   8.667  0.7958  0.6580  1.3668
   58SAPC  H19S 4371   2.744   2.627   8.551 -1.5244 -1.1622  2.0166
   58SAPC  C220 4372   2.791   2.851   8.542  0.0455  0.2472  0.4970
   58SAPC  H20R 4373   2.814   2.935   8.611 -1.8580  2.6469 -1.6650
   58SAPC  H20S 4374   2.710   2.872   8.469  1.9861  0.6058 -1.6108
   58SAPC  H20T 4375   2.881   2.824   8.483 -0.7912 -1.1527 -0.1613
   58SAPC   C33 4376   2.193   2.455   9.928  0.0246 -0.2592 -0.7677
   58SAPC   H3X 4377   2.200   2.349   9.959 -0.0724 -0.3577 -1.0810
   58SAPC   H3Y 4378   2.292   2.482   9.884  0.9449 -0.8643  0.9032
   58SAPC   C34 4379   2.094   2.470   9.810  0.6094 -0.1547 -0.0598
   58SAPC   H4X 4380   2.116   2.567   9.760  3.0457  0.5899  2.3213
   58SAPC   H4Y 4381   1.988   2.467   9.842  1.4367  0.7745  2.9522
   58SAPC   C35 4382   2.101   2.355   9.709  0.9319 -0.7838  0.0565
   58SAPC   H5X 4383   2.003   2.347   9.659 -0.8723 -1.0828  3.5079
   58SAPC   H5Y 4384   2.108   2.257   9.762 -1.4548  0.0875  2.0579
   58SAPC   C36 4385   2.210   2.375   9.605 -0.1268 -0.6201  0.1206
   58SAPC   H6X 4386   2.306   2.383   9.660  0.4375  0.4092 -1.0006
   58SAPC   H6Y 4387   2.189   2.472   9.555  2.0705  0.8696  1.9945
   58SAPC   C37 4388   2.220   2.266   9.506  0.4128 -0.4591 -0.0759
   58SAPC   H7X 4389   2.125   2.246   9.451 -0.1714 -1.5019  1.2922
   58SAPC   H7Y 4390   2.269   2.179   9.555  0.2790 -0.7220 -0.4025
   58SAPC   C38 4391   2.321   2.315   9.409  0.6492 -0.3643 -0.5455
   58SAPC   H8X 4392   2.417   2.318   9.464 -0.6306 -1.1636  1.7984
   58SAPC   H8Y 4393   2.297   2.419   9.377  0.1031 -0.3469 -0.0749
   58SAPC   C39 4394   2.326   2.233   9.285  0.2870  0.5158  0.1461
   58SAPC   H9X 4395   2.229   2.226   9.231  0.3854  2.1065 -0.2641
   58SAPC   H9Y 4396   2.349   2.131   9.321 -1.1555 -0.0742 -0.5290
   58SAPC  C310 4397   2.422   2.288   9.179 -1.0169 -0.2648 -0.6455
   58SAPC  H10X 4398   2.519   2.307   9.230 -0.9238 -0.1273 -0.8718
   58SAPC  H10Y 4399   2.389   2.386   9.137 -2.6021 -0.4838  0.0502
   58SAPC  C311 4400   2.430   2.188   9.060  0.3935  0.3103 -0.2973
   58SAPC  H11X 4401   2.326   2.179   9.021  0.5503  2.5724 -1.3364
   58SAPC  H11Y 4402   2.461   2.094   9.109 -2.3519  0.1557  1.2520
   58SAPC  C312 4403   2.519   2.244   8.959 -0.1044 -0.6299 -0.1338
   58SAPC  H12X 4404   2.624   2.248   8.996 -0.2277  2.5375  0.0254
   58SAPC  H12Y 4405   2.494   2.351   8.945  0.8374 -0.4474 -0.4592
   58SAPC  C313 4406   2.514   2.163   8.816  0.1556 -0.6307  0.2334
   58SAPC  H13X 4407   2.411   2.175   8.777  0.8856  0.9287 -1.2415
   58SAPC  H13Y 4408   2.535   2.056   8.842 -1.5421 -1.1730 -0.5844
   58SAPC  C314 4409   2.609   2.226   8.710  0.1855 -0.2501  0.0436
   58SAPC  H14X 4410   2.702   2.229   8.771  0.8473  3.1597 -1.0074
   58SAPC  H14Y 4411   2.570   2.327   8.686 -1.3462 -0.0938  2.9853
   58SAPC  C315 4412   2.638   2.140   8.593  0.2796  0.8025  0.8415
   58SAPC  H15X 4413   2.584   2.046   8.618 -0.7095  1.1275 -0.0905
   58SAPC  H15Y 4414   2.747   2.120   8.580  0.1725  1.6146 -1.4926
   58SAPC  C316 4415   2.577   2.187   8.465 -0.0736  0.6956  0.3574
   58SAPC  H16X 4416   2.467   2.177   8.472  0.0105 -0.4040  0.1406
   58SAPC  H16Y 4417   2.607   2.114   8.386  2.5379  0.8726  1.1147
   58SAPC  C317 4418   2.606   2.330   8.422  0.9439 -0.0198  0.9006
   58SAPC  H17X 4419   2.713   2.353   8.442  0.6026  1.1968  1.3796
   58SAPC  H17Y 4420   2.535   2.396   8.478 -1.8102 -2.2146  0.1060
   58SAPC  C318 4421   2.568   2.369   8.274 -0.2533 -0.3344 -0.4089
   58SAPC  H18X 4422   2.590   2.472   8.238  1.0108 -0.7998 -1.0115
   58SAPC  H18Y 4423   2.461   2.351   8.255  0.4417 -2.4303 -2.5855
   58SAPC  H18Z 4424   2.618   2.311   8.193 -1.3088  1.7007 -2.5833
   59SAPC     N 4425   3.792   3.826  10.966  0.5905  0.4494  0.0511
   59SAPC   C12 4426   3.933   3.832  11.024  0.3568 -0.2384  0.0137
   59SAPC  H12A 4427   3.947   3.927  11.074 -0.1972 -0.5810  0.8359
   59SAPC  H12B 4428   3.992   3.848  10.935 -0.2524 -0.6521 -0.4659
   59SAPC   C13 4429   3.735   3.961  10.972  0.3964 -0.7081  0.6206
   59SAPC  H13A 4430   3.631   3.973  10.942  0.5516  2.1656  1.0892
   59SAPC  H13B 4431   3.747   4.003  11.070 -2.6185 -0.0380  0.7484
   59SAPC  H13C 4432   3.795   4.027  10.910  0.4804 -2.2043 -0.9173
   59SAPC   C14 4433   3.782   3.784  10.819 -0.1404  0.2100 -0.8456
   59SAPC  H14A 4434   3.817   3.864  10.756 -2.4438  0.6984 -1.5446
   59SAPC  H14B 4435   3.840   3.695  10.801 -3.1772 -2.1753  0.6004
   59SAPC  H14C 4436   3.677   3.764  10.806 -0.1610  0.5228 -1.1652
   59SAPC   C15 4437   3.719   3.729  11.057  0.3990  0.3101  0.2708
   59SAPC  H15A 4438   3.756   3.628  11.049 -4.1306 -1.4230 -0.5587
   59SAPC  H15B 4439   3.711   3.773  11.155 -0.7939 -0.8045  0.6884
   59SAPC  H15C 4440   3.616   3.716  11.027  1.2778 -1.4231 -2.2008
   59SAPC   C11 4441   3.992   3.716  11.116  0.2100  0.3252  0.6415
   59SAPC  H11A 4442   3.933   3.729  11.209 -0.7241  2.4015 -0.2059
   59SAPC  H11B 4443   4.096   3.754  11.129 -0.2989  1.8275  0.4389
   59SAPC     P 4444   4.070   3.550  10.947 -0.1438  0.4205  0.4603
   59SAPC   O13 4445   4.190   3.479  10.982 -0.2207 -0.6825 -0.7596
   59SAPC   O14 4446   3.992   3.473  10.847 -0.0027 -0.4133 -0.3746
   59SAPC   O12 4447   3.986   3.592  11.067  0.2003 -0.3248  0.3001
   59SAPC   O11 4448   4.108   3.684  10.882 -0.1637 -0.3554  0.0960
   59SAPC    C1 4449   4.243   3.730  10.875 -0.7406 -0.6878  0.0093
   59SAPC    HA 4450   4.235   3.840  10.871 -1.4729 -0.7353  0.1522
   59SAPC    HB 4451   4.306   3.707  10.964  2.4090  0.6756 -1.7964
   59SAPC    C2 4452   4.317   3.680  10.752 -0.4400 -0.5156 -0.1602
   59SAPC    HS 4453   4.251   3.607  10.701 -0.8702  0.8914 -1.6404
   59SAPC   O21 4454   4.445   3.632  10.793  0.5958  0.1305  0.0552
   59SAPC   C21 4455   4.472   3.514  10.739  0.5677 -0.4009 -0.3868
   59SAPC   O22 4456   4.405   3.450  10.661  0.3482  0.1503  0.2814
   59SAPC   C22 4457   4.600   3.459  10.793 -0.2211  0.9049 -0.1334
   59SAPC   H2R 4458   4.649   3.544  10.846  2.0302 -0.4658  0.0715
   59SAPC   H2S 4459   4.569   3.394  10.878 -1.0897 -0.2148 -1.3014
   59SAPC    C3 4460   4.334   3.786  10.636  0.2005  0.8899 -0.1629
   59SAPC    HX 4461   4.404   3.862  10.677 -0.3198  1.5036 -0.4178
   59SAPC    HY 4462   4.242   3.844  10.619 -0.6860  0.2851  2.4526
   59SAPC   O31 4463   4.399   3.732  10.512 -0.1588 -0.1468  0.6267
   59SAPC   C31 4464   4.311   3.688  10.431  0.0697 -0.5028 -0.3098
   59SAPC   O32 4465   4.188   3.701  10.450  0.5115  0.0148 -0.2408
   59SAPC   C32 4466   4.378   3.604  10.325 -0.8377 -0.7655 -0.0365
   59SAPC   H2X 4467   4.398   3.502  10.364  2.7542 -1.2289 -2.7453
   59SAPC   H2Y 4468   4.477   3.650  10.301 -0.5485 -1.6672 -0.6318
   59SAPC   C23 4469   4.676   3.375  10.690  0.2099  0.1358 -0.3073
   59SAPC   H3R 4470   4.611   3.320  10.619 -0.9540 -1.0099  1.5873
   59SAPC   H3S 4471   4.736   3.304  10.752  1.1059  0.4612 -0.7874
   59SAPC   C24 4472   4.787   3.453  10.609 -0.6016  0.0387 -0.5641
   59SAPC   H4R 4473   4.853   3.385  10.550 -0.1580 -0.1530  0.1414
   59SAPC   H4S 4474   4.845   3.500  10.691 -0.4267 -1.9122  0.4811
   59SAPC   C25 4475   4.746   3.569  10.519  0.0502  0.6998  0.0611
   59SAPC   H5R 4476   4.712   3.657  10.576  0.6579 -1.4147  3.8065
   59SAPC   C26 4477   4.740   3.575  10.385 -0.3113  0.3676 -0.1901
   59SAPC   H6R 4478   4.713   3.669  10.336 -3.2631 -0.7357 -0.7995
   59SAPC   C27 4479   4.769   3.463  10.287  1.5239 -0.3270 -0.5411
   59SAPC   H7R 4480   4.677   3.445  10.226 -0.8774  0.6808  2.6772
   59SAPC   H7S 4481   4.779   3.366  10.339  0.6616  0.9066  2.0020
   59SAPC   C28 4482   4.893   3.484  10.212 -0.1996 -0.0627  0.3867
   59SAPC   H8R 4483   4.966   3.523  10.284  1.6484 -0.0298 -1.4553
   59SAPC   C29 4484   4.918   3.482  10.084 -0.0722 -0.4406 -0.3511
   59SAPC   H9R 4485   5.020   3.509  10.052 -0.5610  0.8011 -0.8905
   59SAPC  C210 4486   4.823   3.446   9.978  0.4248  0.2661  0.0476
   59SAPC  H10R 4487   4.721   3.424  10.015 -0.0454  2.2975 -0.0098
   59SAPC  H10S 4488   4.860   3.351   9.933 -0.4864  0.4073 -1.0144
   59SAPC  C211 4489   4.817   3.546   9.863  0.1165  0.3058  0.5931
   59SAPC  H11R 4490   4.758   3.637   9.880 -2.6806 -1.2866 -0.3831
   59SAPC  C212 4491   4.859   3.524   9.734 -0.4412  0.1643 -0.3504
   59SAPC  H12R 4492   4.846   3.601   9.656 -1.5077 -0.7337 -1.0582
   59SAPC  C213 4493   4.917   3.395   9.679 -1.0019 -0.7501 -0.8790
   59SAPC  H13R 4494   4.849   3.361   9.599 -0.7781  0.3698 -1.5485
   59SAPC  H13S 4495   4.906   3.311   9.752 -0.2023  0.7914  1.0717
   59SAPC  C214 4496   5.062   3.406   9.632 -0.5628 -0.4189  0.0583
   59SAPC  H14R 4497   5.132   3.375   9.711 -0.6750 -1.0070 -0.0703
   59SAPC  C215 4498   5.105   3.426   9.502  0.1247  0.0029  0.1886
   59SAPC  H15R 4499   5.213   3.423   9.479  0.1488 -1.9688  0.4825
   59SAPC  C216 4500   5.019   3.460   9.380 -0.8304  0.4889  0.5905
   59SAPC  H16R 4501   5.070   3.541   9.324 -0.0445 -1.2904 -1.3605
   59SAPC  H16S 4502   4.915   3.484   9.412 -1.1307 -1.0595  0.8250
   59SAPC  C217 4503   5.000   3.345   9.276 -0.0812 -0.5597 -0.4433
   59SAPC  H17R 4504   4.926   3.378   9.200  0.6051 -0.2100 -0.9798
   59SAPC  H17S 4505   4.970   3.259   9.338  2.3891 -1.3796 -0.3012
   59SAPC  C218 4506   5.132   3.317   9.203 -0.6962 -0.1118  0.5071
   59SAPC  H18R 4507   5.216   3.300   9.274 -0.0140 -0.1181 -0.2908
   59SAPC  H18S 4508   5.164   3.402   9.139  2.3766  1.1520  3.5778
   59SAPC  C219 4509   5.123   3.188   9.121 -0.8809 -0.3477  0.1248
   59SAPC  H19R 4510   5.055   3.115   9.171  0.6519 -2.2580 -0.4999
   59SAPC  H19S 4511   5.222   3.138   9.125 -0.7488 -0.1077 -0.2012
   59SAPC  C220 4512   5.078   3.206   8.979  0.8289 -0.7634 -0.5072
   59SAPC  H20R 4513   5.141   3.268   8.913  0.3066  0.5284  0.1942
   59SAPC  H20S 4514   4.980   3.259   8.980  0.2492 -1.8049 -1.1241
   59SAPC  H20T 4515   5.052   3.110   8.929  1.1401 -0.9367 -0.3331
   59SAPC   C33 4516   4.290   3.596  10.196 -0.1853 -0.0183 -0.9251
   59SAPC   H3X 4517   4.251   3.699  10.178 -2.5584  0.0915  3.9021
   59SAPC   H3Y 4518   4.209   3.529  10.231  0.0376  0.9794  1.6212
   59SAPC   C34 4519   4.377   3.558  10.080  0.2838  0.3929 -0.4974
   59SAPC   H4X 4520   4.455   3.481  10.099  0.0666 -0.4653 -2.9097
   59SAPC   H4Y 4521   4.434   3.647  10.048 -0.8543  1.1690 -0.3988
   59SAPC   C35 4522   4.301   3.527   9.951  0.0728  0.7400 -0.2076
   59SAPC   H5X 4523   4.234   3.615   9.935  0.3646  1.1028  0.5220
   59SAPC   H5Y 4524   4.237   3.436   9.955  0.0091  0.8480  1.3933
   59SAPC   C36 4525   4.384   3.529   9.820 -0.1912 -0.0551  0.0430
   59SAPC   H6X 4526   4.463   3.451   9.831 -0.3055 -0.2150 -0.2512
   59SAPC   H6Y 4527   4.430   3.630   9.812 -2.8282  1.2456  0.5488
   59SAPC   C37 4528   4.292   3.498   9.695 -0.0492 -1.0459 -0.2166
   59SAPC   H7X 4529   4.237   3.594   9.688  0.8812 -0.5908 -1.4047
   59SAPC   H7Y 4530   4.229   3.410   9.721 -0.5639 -0.6968 -0.2845
   59SAPC   C38 4531   4.379   3.496   9.563  0.0360  0.2895  0.4562
   59SAPC   H8X 4532   4.464   3.427   9.585  1.3415  1.1867 -1.5887
   59SAPC   H8Y 4533   4.426   3.597   9.561  0.7561 -0.0512 -0.5883
   59SAPC   C39 4534   4.307   3.468   9.431 -0.5772 -0.5537 -0.0657
   59SAPC   H9X 4535   4.221   3.538   9.420 -0.4374  0.4153  4.3708
   59SAPC   H9Y 4536   4.258   3.369   9.430 -1.1462 -0.2701 -0.5881
   59SAPC  C310 4537   4.404   3.483   9.310  0.2717 -0.1448  0.0661
   59SAPC  H10X 4538   4.475   3.399   9.327  1.5644  0.8913 -0.1048
   59SAPC  H10Y 4539   4.469   3.574   9.307 -1.9928  1.4833 -1.5928
   59SAPC  C311 4540   4.327   3.490   9.180 -0.3429  0.6591 -0.8345
   59SAPC  H11X 4541   4.250   3.569   9.193 -0.8456  0.5558 -2.9753
   59SAPC  H11Y 4542   4.279   3.391   9.160  0.0685  1.0484 -3.9612
   59SAPC  C312 4543   4.411   3.521   9.051 -0.2502 -0.1797 -0.3515
   59SAPC  H12X 4544   4.497   3.450   9.047  0.7540  1.1010 -2.1538
   59SAPC  H12Y 4545   4.448   3.624   9.071  0.7323 -0.6032  0.0112
   59SAPC  C313 4546   4.337   3.516   8.919 -0.5570 -0.1960  0.4982
   59SAPC  H13X 4547   4.250   3.584   8.931 -0.9199 -0.6914  0.6757
   59SAPC  H13Y 4548   4.294   3.415   8.901 -1.3679  0.3323 -0.5370
   59SAPC  C314 4549   4.413   3.552   8.789 -0.7574 -0.3019 -0.8080
   59SAPC  H14X 4550   4.451   3.656   8.793  2.4128 -1.4044 -0.2962
   59SAPC  H14Y 4551   4.345   3.546   8.701 -0.2789  0.5470 -1.2430
   59SAPC  C315 4552   4.525   3.451   8.764  0.0425  0.0247  0.5711
   59SAPC  H15X 4553   4.490   3.347   8.744  1.2297 -0.6741  2.0545
   59SAPC  H15Y 4554   4.585   3.443   8.857 -0.4691 -1.1760  0.8112
   59SAPC  C316 4555   4.607   3.498   8.640  0.5502 -0.0152  0.5819
   59SAPC  H16X 4556   4.660   3.592   8.665  1.5462  0.1327 -1.9703
   59SAPC  H16Y 4557   4.553   3.520   8.545  2.2574 -0.6677 -0.5709
   59SAPC  C317 4558   4.724   3.406   8.599  0.1704 -0.0563  0.2144
   59SAPC  H17X 4559   4.683   3.306   8.574 -2.6735  1.2231 -0.4667
   59SAPC  H17Y 4560   4.793   3.387   8.684  3.0572  1.4213 -1.7247
   59SAPC  C318 4561   4.794   3.466   8.479  0.1710  0.2052  0.5854
   59SAPC  H18X 4562   4.875   3.403   8.436 -0.1934 -1.3986  2.1668
   59SAPC  H18Y 4563   4.846   3.561   8.503  1.4152  0.7443 -3.7232
   59SAPC  H18Z 4564   4.728   3.492   8.394  1.6370  2.0424 -0.0196
   60SAPC     N 4565   5.532   1.716  10.849  0.0088  0.1259  0.6662
   60SAPC   C12 4566   5.587   1.655  10.711  0.1110 -0.2677  0.5178
   60SAPC  H12A 4567   5.501   1.607  10.667 -0.8277  1.7250  0.1002
   60SAPC  H12B 4568   5.662   1.581  10.733 -1.5084 -1.3383  2.5280
   60SAPC   C13 4569   5.442   1.825  10.809  0.5571  0.4080 -0.5147
   60SAPC  H13A 4570   5.372   1.792  10.734 -0.9961  0.3260  0.9570
   60SAPC  H13B 4571   5.378   1.866  10.885  0.5067  0.1156 -0.4035
   60SAPC  H13C 4572   5.501   1.904  10.765 -0.9906  2.2139  0.5720
   60SAPC   C14 4573   5.455   1.610  10.919  0.0048  0.2746  0.0313
   60SAPC  H14A 4574   5.520   1.525  10.935  0.7401  0.8823  0.3023
   60SAPC  H14B 4575   5.418   1.648  11.012  0.5866 -1.3436  0.9554
   60SAPC  H14C 4576   5.371   1.581  10.858 -0.5776 -0.7527  1.3182
   60SAPC   C15 4577   5.638   1.757  10.941  0.2000  0.4874 -0.2459
   60SAPC  H15A 4578   5.592   1.809  11.024  0.7127  0.3289  0.1360
   60SAPC  H15B 4579   5.687   1.671  10.982 -0.7136  0.5278  0.9569
   60SAPC  H15C 4580   5.702   1.816  10.878  0.4078 -0.1174 -0.6008
   60SAPC   C11 4581   5.652   1.747  10.602 -0.5397  0.2049  0.8361
   60SAPC  H11A 4582   5.574   1.815  10.562  0.5916  1.2024  0.2820
   60SAPC  H11B 4583   5.681   1.689  10.512  2.3919 -0.7106  2.2827
   60SAPC     P 4584   5.907   1.801  10.610  0.1483  0.1165 -0.7128
   60SAPC   O13 4585   5.998   1.904  10.658 -0.5022 -0.2584  0.0404
   60SAPC   O14 4586   5.957   1.661  10.626  0.5837 -0.3321  0.0939
   60SAPC   O12 4587   5.758   1.824  10.659 -0.6344  0.0963  0.4947
   60SAPC   O11 4588   5.901   1.824  10.459  0.6345 -0.6225 -0.2537
   60SAPC    C1 4589   5.897   1.957  10.407 -0.0298  0.1275 -1.0498
   60SAPC    HA 4590   5.810   2.010  10.452  1.0388  1.9921 -1.1036
   60SAPC    HB 4591   5.986   2.016  10.440 -1.0105  0.9949  0.0708
   60SAPC    C2 4592   5.887   1.964  10.250 -0.1365 -0.4063 -0.2115
   60SAPC    HS 4593   5.885   2.074  10.232 -2.5546 -0.0605  1.9386
   60SAPC   O21 4594   5.763   1.912  10.204 -0.0224  0.2038 -0.0240
   60SAPC   C21 4595   5.653   1.984  10.237 -0.6862 -0.4253 -0.5736
   60SAPC   O22 4596   5.657   2.097  10.283 -0.9874 -0.1483  0.1006
   60SAPC   C22 4597   5.533   1.901  10.203  0.5503 -0.2102  0.5285
   60SAPC   H2R 4598   5.578   1.821  10.141  1.5702 -0.0974  1.1050
   60SAPC   H2S 4599   5.496   1.862  10.300 -1.3055 -1.2068 -0.5653
   60SAPC    C3 4600   6.002   1.918  10.164  0.1512  0.7072 -0.1239
   60SAPC    HX 4601   6.022   1.815  10.200  0.0189  0.2401 -1.3706
   60SAPC    HY 4602   6.097   1.968  10.190 -0.5750  1.8047  0.4439
   60SAPC   O31 4603   5.977   1.914  10.018 -0.1503 -0.4770 -0.6134
   60SAPC   C31 4604   5.979   2.026   9.962 -0.2330 -0.4592  0.8279
   60SAPC   O32 4605   5.989   2.136  10.020  0.1891 -0.1496 -0.0014
   60SAPC   C32 4606   5.977   2.003   9.811 -0.5667  0.3271 -0.2140
   60SAPC   H2X 4607   5.952   1.896   9.794 -0.7021  0.3292 -0.0299
   60SAPC   H2Y 4608   6.082   2.028   9.783 -0.3295 -0.3674  0.0523
   60SAPC   C23 4609   5.428   1.982  10.132  0.6944  0.3602 -0.2097
   60SAPC   H3R 4610   5.476   2.048  10.057 -3.0706  1.5184 -1.7115
   60SAPC   H3S 4611   5.392   2.059  10.204  0.6133 -0.7475  0.9632
   60SAPC   C24 4612   5.309   1.911  10.062  0.6049  0.0562 -0.3921
   60SAPC   H4R 4613   5.345   1.846   9.979  0.3137  0.0859 -0.5419
   60SAPC   H4S 4614   5.233   1.981  10.022 -0.9702 -1.1692  0.4034
   60SAPC   C25 4615   5.230   1.829  10.167 -0.3159 -0.1836 -0.0777
   60SAPC   H5R 4616   5.287   1.813  10.259  1.1887  0.3027 -0.9133
   60SAPC   C26 4617   5.113   1.759  10.160 -0.1634  0.0405 -0.5156
   60SAPC   H6R 4618   5.076   1.705  10.248 -2.7728  0.5391 -1.2559
   60SAPC   C27 4619   5.036   1.748  10.027 -0.2727 -0.3517  0.8592
   60SAPC   H7R 4620   5.056   1.644   9.994  1.5103 -0.0136  0.8316
   60SAPC   H7S 4621   5.080   1.806   9.943 -2.5242  1.2575  0.7487
   60SAPC   C28 4622   4.889   1.777  10.036  0.2231  0.4293  0.4641
   60SAPC   H8R 4623   4.848   1.809  10.133  1.2398  0.9929  0.7155
   60SAPC   C29 4624   4.803   1.774   9.929 -0.2911 -0.4584 -0.6095
   60SAPC   H9R 4625   4.697   1.791   9.952  0.0585  0.4848  0.3256
   60SAPC  C210 4626   4.829   1.735   9.787 -0.1207  0.2312 -0.1723
   60SAPC  H10R 4627   4.938   1.742   9.772  0.0971 -0.4990  1.0224
   60SAPC  H10S 4628   4.792   1.809   9.712  2.8307  1.8285 -0.1219
   60SAPC  C211 4629   4.781   1.603   9.746 -0.2181 -0.0035 -0.4224
   60SAPC  H11R 4630   4.763   1.530   9.826 -0.3111 -1.0110 -1.3525
   60SAPC  C212 4631   4.766   1.550   9.622  0.1732  0.1380  0.0649
   60SAPC  H12R 4632   4.743   1.442   9.617 -0.7311  0.4053 -2.4673
   60SAPC  C213 4633   4.784   1.614   9.486 -0.1102  0.0294  0.3506
   60SAPC  H13R 4634   4.843   1.707   9.506  0.6456 -0.4825  0.5352
   60SAPC  H13S 4635   4.680   1.631   9.452 -0.3365  0.0491  1.0394
   60SAPC  C214 4636   4.862   1.516   9.398  0.4283  0.1947 -0.1215
   60SAPC  H14R 4637   4.942   1.461   9.449  0.2069 -1.1784 -1.2239
   60SAPC  C215 4638   4.837   1.496   9.270 -0.1141 -0.4153  0.5824
   60SAPC  H15R 4639   4.889   1.416   9.216  0.1401 -0.3846  0.7810
   60SAPC  C216 4640   4.732   1.571   9.192  0.3739  0.0351  0.6266
   60SAPC  H16R 4641   4.648   1.581   9.264  2.3130  1.8990  2.7278
   60SAPC  H16S 4642   4.701   1.500   9.112  0.6958 -0.4541  0.9288
   60SAPC  C217 4643   4.751   1.710   9.138 -0.0077 -0.7150 -0.2813
   60SAPC  H17R 4644   4.807   1.773   9.210  0.9505 -1.9532  0.0744
   60SAPC  H17S 4645   4.656   1.757   9.105  1.2981  1.1093 -1.5850
   60SAPC  C218 4646   4.844   1.706   9.026  0.7234 -0.1862 -0.2604
   60SAPC  H18R 4647   4.805   1.626   8.960 -2.0042  0.5330  0.3977
   60SAPC  H18S 4648   4.952   1.695   9.050  1.1942 -0.2308 -2.3440
   60SAPC  C219 4649   4.838   1.846   8.949 -0.3792  0.0448 -0.4601
   60SAPC  H19R 4650   4.732   1.862   8.919 -0.5075 -2.1848 -1.3182
   60SAPC  H19S 4651   4.893   1.833   8.853 -2.6665  1.7476 -2.0621
   60SAPC  C220 4652   4.892   1.972   9.011 -0.6645 -0.5729  0.3263
   60SAPC  H20R 4653   4.879   2.064   8.949 -2.2347 -1.3738 -0.5532
   60SAPC  H20S 4654   4.997   1.947   9.037 -1.3046 -0.7613  2.8428
   60SAPC  H20T 4655   4.848   1.987   9.111  1.4004 -1.0316  1.3370
   60SAPC   C33 4656   5.896   2.106   9.741 -0.4110  0.2211  0.1008
   60SAPC   H3X 4657   5.883   2.085   9.633 -2.1713  0.4864  0.2402
   60SAPC   H3Y 4658   5.933   2.208   9.764 -1.9564  1.5664 -3.0858
   60SAPC   C34 4659   5.748   2.125   9.792 -0.6430 -0.2078  0.5165
   60SAPC   H4X 4660   5.706   2.208   9.731 -0.8669  0.4774  1.5859
   60SAPC   H4Y 4661   5.751   2.168   9.895  0.6286  0.8187  0.0663
   60SAPC   C35 4662   5.650   2.000   9.782  0.6414 -0.3967 -0.4076
   60SAPC   H5X 4663   5.548   2.031   9.812  0.1851 -2.6809  0.4829
   60SAPC   H5Y 4664   5.671   1.930   9.866 -0.7657  0.2046  0.4728
   60SAPC   C36 4665   5.654   1.927   9.648 -0.9344  0.1420  0.9875
   60SAPC   H6X 4666   5.584   1.841   9.647  0.0820 -0.6790 -1.5997
   60SAPC   H6Y 4667   5.751   1.882   9.621 -1.2513 -0.2621  0.5292
   60SAPC   C37 4668   5.621   2.016   9.523  0.1422 -0.4794 -0.5606
   60SAPC   H7X 4669   5.701   2.093   9.522 -1.0887  0.8194 -1.0826
   60SAPC   H7Y 4670   5.524   2.066   9.543  0.6445 -0.7951  3.0011
   60SAPC   C38 4671   5.611   1.948   9.379  0.3301  0.4724  0.6389
   60SAPC   H8X 4672   5.589   2.030   9.308 -3.7839  1.3147  2.7371
   60SAPC   H8Y 4673   5.518   1.888   9.387  0.1550  0.8248  1.3227
   60SAPC   C39 4674   5.727   1.855   9.347 -0.1067 -0.3388  0.3655
   60SAPC   H9X 4675   5.701   1.801   9.254  0.7318  0.1280 -0.1404
   60SAPC   H9Y 4676   5.746   1.785   9.430 -1.5921 -0.9698  0.1976
   60SAPC  C310 4677   5.845   1.944   9.308 -0.5499  0.2013  1.0501
   60SAPC  H10X 4678   5.925   1.873   9.278 -0.1369  1.0949  0.0028
   60SAPC  H10Y 4679   5.895   1.989   9.396 -1.1514  0.4238  1.2859
   60SAPC  C311 4680   5.821   2.029   9.179 -0.2061  0.5900  0.4602
   60SAPC  H11X 4681   5.784   2.128   9.212  0.9302  0.8198  1.0844
   60SAPC  H11Y 4682   5.742   1.990   9.112  0.9257 -0.1974 -0.4457
   60SAPC  C312 4683   5.944   2.030   9.088 -0.0473 -0.7094 -0.6548
   60SAPC  H12X 4684   5.980   1.925   9.081 -1.6758 -1.3156 -0.1511
   60SAPC  H12Y 4685   6.029   2.085   9.133 -2.1746  1.1467  1.2737
   60SAPC  C313 4686   5.924   2.097   8.952  0.2054 -0.2215  0.2108
   60SAPC  H13X 4687   6.021   2.118   8.902 -0.7222  2.6987 -0.5123
   60SAPC  H13Y 4688   5.864   2.190   8.962 -0.0186 -0.5602  2.1433
   60SAPC  C314 4689   5.848   2.007   8.848 -0.2953 -0.0621  0.1483
   60SAPC  H14X 4690   5.744   1.997   8.887 -0.5239  1.7661  0.0561
   60SAPC  H14Y 4691   5.888   1.903   8.851  2.6082  0.9390 -2.3427
   60SAPC  C315 4692   5.835   2.063   8.706  0.2988  0.8271 -0.1563
   60SAPC  H15X 4693   5.938   2.064   8.664 -0.3653 -0.7603 -1.9187
   60SAPC  H15Y 4694   5.796   2.168   8.704 -3.0762 -0.2613  3.0370
   60SAPC  C316 4695   5.755   1.972   8.607  0.1439  0.3309  0.0457
   60SAPC  H16X 4696   5.648   1.968   8.633 -0.1054 -2.5635 -1.2721
   60SAPC  H16Y 4697   5.799   1.870   8.602 -2.2870 -0.7578  0.1761
   60SAPC  C317 4698   5.768   2.033   8.468  0.4230  0.1352  0.4812
   60SAPC  H17X 4699   5.877   2.039   8.445  0.5521  0.6466  1.1937
   60SAPC  H17Y 4700   5.729   2.136   8.466 -1.5836 -0.3814  5.5607
   60SAPC  C318 4701   5.702   1.971   8.353  0.3920 -0.1857  0.7293
   60SAPC  H18X 4702   5.722   2.033   8.264  0.7691  0.8185  1.5094
   60SAPC  H18Y 4703   5.591   1.978   8.359  0.4116 -0.2434  1.2064
   60SAPC  H18Z 4704   5.719   1.862   8.335 -2.5981 -0.4244 -1.0248
   61SAPC     N 4705   6.675   0.419  11.360  0.1515 -0.2002 -0.4412
   61SAPC   C12 4706   6.696   0.385  11.214 -0.7940 -0.0578  0.2905
   61SAPC  H12A 4707   6.604   0.385  11.158  1.8066  0.9319 -4.2113
   61SAPC  H12B 4708   6.745   0.289  11.211  0.0740  0.3596  0.7744
   61SAPC   C13 4709   6.604   0.546  11.376 -0.4558 -0.3220 -0.1301
   61SAPC  H13A 4710   6.592   0.574  11.480  1.0033  1.6457 -0.4455
   61SAPC  H13B 4711   6.677   0.615  11.336 -1.0078  0.0393 -0.5103
   61SAPC  H13C 4712   6.517   0.555  11.313 -1.5219 -1.9105  1.0759
   61SAPC   C14 4713   6.587   0.318  11.422  0.0256  0.0863  0.3573
   61SAPC  H14A 4714   6.543   0.365  11.508  1.9659 -0.5161  1.7136
   61SAPC  H14B 4715   6.501   0.302  11.359  1.4039 -1.9919 -1.0906
   61SAPC  H14C 4716   6.633   0.226  11.453 -0.8240 -0.3712  0.2505
   61SAPC   C15 4717   6.804   0.426  11.437  0.8213 -0.3753  0.6057
   61SAPC  H15A 4718   6.856   0.332  11.429 -0.8772 -1.3585  0.7833
   61SAPC  H15B 4719   6.865   0.505  11.397  0.1447  1.5527  3.2436
   61SAPC  H15C 4720   6.797   0.466  11.537 -0.8529  2.7277 -0.6589
   61SAPC   C11 4721   6.785   0.484  11.131  0.2956  0.6953  0.1919
   61SAPC  H11A 4722   6.790   0.422  11.038 -0.5222 -2.7335  2.3658
   61SAPC  H11B 4723   6.883   0.504  11.179  1.1352 -0.2525 -1.0799
   61SAPC     P 4724   6.593   0.640  11.034  0.1002 -0.5005  0.5361
   61SAPC   O13 4725   6.482   0.562  11.084  0.2467 -0.7064 -0.8517
   61SAPC   O14 4726   6.591   0.784  11.035 -0.0861  0.2529  0.6622
   61SAPC   O12 4727   6.720   0.607  11.111 -0.0581  0.1652  0.2224
   61SAPC   O11 4728   6.621   0.574  10.890  0.9278  0.3215 -0.0148
   61SAPC    C1 4729   6.732   0.607  10.804  0.0277  0.6495 -0.2425
   61SAPC    HA 4730   6.819   0.640  10.866 -0.0777 -2.4191  1.6139
   61SAPC    HB 4731   6.772   0.516  10.753 -1.4789  0.8050 -1.7510
   61SAPC    C2 4732   6.694   0.706  10.688 -0.5417  0.3723 -0.4491
   61SAPC    HS 4733   6.682   0.805  10.738 -0.7904 -0.2474  0.7433
   61SAPC   O21 4734   6.570   0.663  10.633 -0.0780 -0.3636  0.6328
   61SAPC   C21 4735   6.514   0.764  10.563 -0.3519 -0.4832 -0.4322
   61SAPC   O22 4736   6.556   0.876  10.563  0.1945 -0.1706 -0.3689
   61SAPC   C22 4737   6.407   0.724  10.468 -0.3285  0.0619  0.1510
   61SAPC   H2R 4738   6.321   0.695  10.532  0.1743 -0.6306  0.5113
   61SAPC   H2S 4739   6.387   0.819  10.414 -0.5980  0.6566  1.2899
   61SAPC    C3 4740   6.808   0.720  10.588 -0.6337 -0.2468 -0.0732
   61SAPC    HX 4741   6.885   0.780  10.641 -1.6511  0.4684  0.6130
   61SAPC    HY 4742   6.760   0.779  10.507 -1.7456 -1.0572 -0.0216
   61SAPC   O31 4743   6.863   0.587  10.545  0.0056 -0.3218  0.5135
   61SAPC   C31 4744   6.977   0.600  10.475  0.6643 -0.2615 -0.2893
   61SAPC   O32 4745   7.045   0.697  10.461  0.9272 -0.2935 -0.3295
   61SAPC   C32 4746   6.997   0.461  10.405  0.7263  0.8300  0.4361
   61SAPC   H2X 4747   7.002   0.378  10.479  0.3285  0.7503  0.3733
   61SAPC   H2Y 4748   7.097   0.474  10.358  0.7537 -0.0993  0.2162
   61SAPC   C23 4749   6.452   0.607  10.383  0.5536  0.4265  0.6199
   61SAPC   H3R 4750   6.355   0.579  10.338  1.1815 -2.3106  0.8787
   61SAPC   H3S 4751   6.481   0.514  10.436 -0.2770  0.1706  0.6333
   61SAPC   C24 4752   6.540   0.637  10.262  0.7159 -0.4234 -0.4029
   61SAPC   H4R 4753   6.585   0.545  10.220  1.5327  0.3666 -1.2742
   61SAPC   H4S 4754   6.628   0.696  10.294  0.7121 -0.7089  0.1493
   61SAPC   C25 4755   6.468   0.726  10.169 -0.0969 -1.4171  0.1798
   61SAPC   H5R 4756   6.437   0.827  10.201 -0.0599 -0.8705 -1.4657
   61SAPC   C26 4757   6.432   0.691  10.045 -0.7698  0.2449  0.3027
   61SAPC   H6R 4758   6.378   0.763   9.982  0.5709  1.0975  0.1116
   61SAPC   C27 4759   6.455   0.547   9.997  0.2097  0.7878  0.1827
   61SAPC   H7R 4760   6.361   0.505   9.956  0.5934  1.7507 -1.7738
   61SAPC   H7S 4761   6.456   0.471  10.077 -1.3418  0.6326  0.0769
   61SAPC   C28 4762   6.568   0.534   9.902  0.1061  0.0672 -0.4538
   61SAPC   H8R 4763   6.660   0.500   9.951  0.1302 -0.6597 -0.9913
   61SAPC   C29 4764   6.569   0.568   9.773 -0.1960  0.3620 -0.5060
   61SAPC   H9R 4765   6.648   0.531   9.705 -0.2641 -0.0812 -0.3444
   61SAPC  C210 4766   6.448   0.617   9.700 -0.0767  0.0553 -0.7729
   61SAPC  H10R 4767   6.484   0.686   9.621  1.7289 -0.0068 -0.0177
   61SAPC  H10S 4768   6.387   0.679   9.770 -2.4929 -4.0837  0.9945
   61SAPC  C211 4769   6.354   0.508   9.645 -0.1930 -0.4873 -0.3502
   61SAPC  H11R 4770   6.337   0.427   9.717  0.1877  1.6714  2.2541
   61SAPC  C212 4771   6.312   0.489   9.519 -0.2253  0.3428 -0.1512
   61SAPC  H12R 4772   6.239   0.410   9.495 -2.0202  1.6967  0.6724
   61SAPC  C213 4773   6.349   0.581   9.401  0.2452  0.1186 -0.2630
   61SAPC  H13R 4774   6.453   0.617   9.420 -0.1273 -0.3669  2.9982
   61SAPC  H13S 4775   6.288   0.673   9.390  0.5487  0.3356 -0.1454
   61SAPC  C214 4776   6.345   0.497   9.274  0.6012  0.1003  0.2155
   61SAPC  H14R 4777   6.447   0.460   9.256  0.3370 -0.7444  0.4285
   61SAPC  C215 4778   6.243   0.497   9.184 -0.0072  0.6826 -0.2025
   61SAPC  H15R 4779   6.244   0.431   9.096 -2.0357 -0.2549  0.4630
   61SAPC  C216 4780   6.111   0.570   9.189  0.9694 -0.0014 -0.1352
   61SAPC  H16R 4781   6.088   0.617   9.287  0.6537  0.9487 -0.6536
   61SAPC  H16S 4782   6.026   0.499   9.180  1.1658 -0.2597  0.0602
   61SAPC  C217 4783   6.092   0.675   9.080  0.9225 -1.0379 -0.0708
   61SAPC  H17R 4784   6.164   0.760   9.087 -1.3893  0.8733  1.3785
   61SAPC  H17S 4785   5.991   0.719   9.096  1.0779  0.0392 -1.8557
   61SAPC  C218 4786   6.114   0.623   8.936  0.2807  0.0295  0.3413
   61SAPC  H18R 4787   6.068   0.522   8.932 -0.8336  0.5351  0.2178
   61SAPC  H18S 4788   6.223   0.604   8.926  0.0501  0.2468 -3.4710
   61SAPC  C219 4789   6.058   0.717   8.830  0.4542  0.9237  0.0204
   61SAPC  H19R 4790   6.118   0.810   8.839  0.2733  0.9862  0.5769
   61SAPC  H19S 4791   5.954   0.744   8.856 -0.1462 -0.8060 -0.4686
   61SAPC  C220 4792   6.059   0.652   8.691  0.3093 -0.4603  0.6079
   61SAPC  H20R 4793   6.010   0.704   8.606  0.9693 -1.8348 -0.6244
   61SAPC  H20S 4794   6.010   0.554   8.706  0.2361 -0.6212 -0.6309
   61SAPC  H20T 4795   6.164   0.638   8.659  0.4101 -0.1352  0.7893
   61SAPC   C33 4796   6.886   0.411  10.313  0.7165  0.1746  1.1403
   61SAPC   H3X 4797   6.791   0.399  10.369  0.4950  0.1478  0.7608
   61SAPC   H3Y 4798   6.912   0.310  10.275  0.1560 -0.2890  1.9727
   61SAPC   C34 4799   6.868   0.512  10.197  0.0341  0.5923 -0.2695
   61SAPC   H4X 4800   6.831   0.607  10.240 -0.3039  0.7798 -0.9747
   61SAPC   H4Y 4801   6.785   0.465  10.140  0.3695 -0.9281  0.4614
   61SAPC   C35 4802   6.987   0.524  10.106  0.9585 -0.3088  0.7871
   61SAPC   H5X 4803   7.032   0.423  10.095  3.6202  0.8394  0.6141
   61SAPC   H5Y 4804   7.061   0.599  10.143  1.6241  0.4538 -1.9956
   61SAPC   C36 4805   6.951   0.570   9.964  0.0313  0.3950 -0.2391
   61SAPC   H6X 4806   6.910   0.672   9.978 -0.1308  0.3223 -0.1877
   61SAPC   H6Y 4807   6.874   0.501   9.923  1.1268  0.4843 -2.5565
   61SAPC   C37 4808   7.071   0.575   9.869  0.3552 -0.2150  1.3071
   61SAPC   H7X 4809   7.121   0.476   9.865  0.9177  0.1366 -0.4940
   61SAPC   H7Y 4810   7.134   0.659   9.906 -1.5286  1.0507  1.7567
   61SAPC   C38 4811   7.036   0.605   9.722 -0.2940 -0.1249  0.1039
   61SAPC   H8X 4812   7.139   0.601   9.678 -0.5662  0.9235 -0.6577
   61SAPC   H8Y 4813   6.982   0.701   9.712 -2.8698 -1.5584 -0.0477
   61SAPC   C39 4814   6.962   0.493   9.648  0.3416  0.0373  0.8514
   61SAPC   H9X 4815   6.867   0.463   9.697  0.7559 -0.7294  1.2070
   61SAPC   H9Y 4816   7.017   0.396   9.651  0.4734  0.1091  0.7755
   61SAPC  C310 4817   6.939   0.536   9.495  0.5834 -0.1192  0.2287
   61SAPC  H10X 4818   7.036   0.577   9.457  0.2975  0.2615 -0.1068
   61SAPC  H10Y 4819   6.862   0.616   9.485 -1.2766 -2.0087 -1.0120
   61SAPC  C311 4820   6.889   0.416   9.420  0.1242  0.5801  0.0754
   61SAPC  H11X 4821   6.791   0.388   9.465  0.8418 -2.9402 -0.3811
   61SAPC  H11Y 4822   6.961   0.332   9.417 -0.9342 -0.3691  1.0187
   61SAPC  C312 4823   6.854   0.455   9.275 -0.1658  0.2243  0.0446
   61SAPC  H12X 4824   6.948   0.483   9.222  1.1779 -1.0911  1.6550
   61SAPC  H12Y 4825   6.783   0.540   9.275  0.2180  0.5476 -1.2972
   61SAPC  C313 4826   6.785   0.336   9.203  0.9981  0.1825  0.7093
   61SAPC  H13X 4827   6.697   0.307   9.265 -0.4468 -0.6284 -1.6845
   61SAPC  H13Y 4828   6.849   0.246   9.195  0.1216 -0.3061 -0.7995
   61SAPC  C314 4829   6.725   0.376   9.063  0.2917 -0.4817 -0.1070
   61SAPC  H14X 4830   6.806   0.409   8.994 -0.0797  2.6642  0.8954
   61SAPC  H14Y 4831   6.687   0.475   9.096  0.3501 -0.5597  0.1924
   61SAPC  C315 4832   6.613   0.284   9.016  0.4395 -0.4618  0.2254
   61SAPC  H15X 4833   6.534   0.268   9.092 -1.2631  1.2718 -1.1437
   61SAPC  H15Y 4834   6.656   0.190   8.974 -1.0351 -1.3742  0.7371
   61SAPC  C316 4835   6.540   0.354   8.889  0.2342 -0.3817  0.4777
   61SAPC  H16X 4836   6.618   0.390   8.818  1.5014 -0.4885  1.7900
   61SAPC  H16Y 4837   6.505   0.450   8.933 -0.6357  0.9328 -2.9388
   61SAPC  C317 4838   6.433   0.273   8.822  0.3319  0.2832 -0.2115
   61SAPC  H17X 4839   6.362   0.235   8.898  0.4737 -0.6202 -0.5164
   61SAPC  H17Y 4840   6.473   0.177   8.784  2.9236  0.4758  1.8844
   61SAPC  C318 4841   6.354   0.352   8.715  0.2508 -0.7532  0.3435
   61SAPC  H18X 4842   6.307   0.444   8.756  1.0512 -0.5539  0.8085
   61SAPC  H18Y 4843   6.273   0.292   8.667  0.0511  0.5474 -0.9981
   61SAPC  H18Z 4844   6.422   0.375   8.630 -1.3215  2.1374 -0.2211
   62SAPC     N 4845   5.200   6.757  10.718  0.1848  0.7070 -0.6416
   62SAPC   C12 4846   5.263   6.849  10.612 -0.1962  0.7136  0.5353
   62SAPC  H12A 4847   5.190   6.926  10.594  0.9801  1.4906 -1.1101
   62SAPC  H12B 4848   5.265   6.787  10.524  0.2461  0.3209  0.8152
   62SAPC   C13 4849   5.290   6.638  10.745 -0.1461  0.1900 -0.0792
   62SAPC  H13A 4850   5.284   6.568  10.663 -0.2502 -2.0063  1.7568
   62SAPC  H13B 4851   5.393   6.664  10.768  0.3385  0.1717 -2.1143
   62SAPC  H13C 4852   5.253   6.575  10.824  1.4391  0.9185  1.2881
   62SAPC   C14 4853   5.169   6.826  10.846 -0.0758 -0.3291 -0.3100
   62SAPC  H14A 4854   5.138   6.929  10.835 -2.4209 -0.9154  0.5655
   62SAPC  H14B 4855   5.093   6.781  10.908  0.8236  2.9374  3.3320
   62SAPC  H14C 4856   5.256   6.825  10.910 -0.2254 -1.7209 -0.1108
   62SAPC   C15 4857   5.067   6.714  10.658 -0.0628  0.1956  0.2404
   62SAPC  H15A 4858   5.082   6.661  10.565  0.7381  2.5050 -0.9748
   62SAPC  H15B 4859   5.011   6.652  10.727  1.4568 -0.5008  0.8578
   62SAPC  H15C 4860   5.013   6.806  10.643  0.7068  0.5547 -0.3288
   62SAPC   C11 4861   5.398   6.922  10.659  0.5693 -0.4107 -0.4643
   62SAPC  H11A 4862   5.354   7.007  10.716 -0.3309 -0.3225 -1.2776
   62SAPC  H11B 4863   5.448   6.953  10.565 -0.0809  0.8433 -0.4192
   62SAPC     P 4864   5.635   6.867  10.737  0.3476  0.0960  0.2473
   62SAPC   O13 4865   5.661   7.004  10.784  0.0988  0.4118 -0.2987
   62SAPC   O14 4866   5.699   6.751  10.808 -0.0650  0.0418  0.1996
   62SAPC   O12 4867   5.481   6.847  10.752  0.2230  0.0402  0.6140
   62SAPC   O11 4868   5.658   6.863  10.580  0.5052 -0.3789  0.0522
   62SAPC    C1 4869   5.637   6.740  10.511  0.7093 -1.3237 -0.0022
   62SAPC    HA 4870   5.583   6.663  10.570  0.0186 -0.7068  0.1870
   62SAPC    HB 4871   5.575   6.758  10.420  1.0191  2.0107  0.4075
   62SAPC    C2 4872   5.776   6.675  10.464 -0.9260  0.7919  0.3320
   62SAPC    HS 4873   5.849   6.663  10.547  0.0261  1.5779 -0.3810
   62SAPC   O21 4874   5.830   6.762  10.364  0.2387  0.1866  0.0235
   62SAPC   C21 4875   5.914   6.856  10.409 -0.1035 -0.3002  1.2805
   62SAPC   O22 4876   5.954   6.867  10.526 -0.3013 -0.0753  0.4727
   62SAPC   C22 4877   5.969   6.931  10.295 -0.5668 -0.2592  0.3864
   62SAPC   H2R 4878   6.002   6.859  10.218 -0.7249 -0.7076  0.7344
   62SAPC   H2S 4879   5.899   7.002  10.246  1.6867 -1.1230 -4.3310
   62SAPC    C3 4880   5.748   6.534  10.408 -1.0399 -0.2793 -0.1687
   62SAPC    HX 4881   5.718   6.465  10.489 -2.3301 -0.2826 -0.6347
   62SAPC    HY 4882   5.831   6.487  10.351 -0.0701 -1.7869  2.4182
   62SAPC   O31 4883   5.634   6.541  10.319 -0.8039 -0.2915 -0.1422
   62SAPC   C31 4884   5.595   6.426  10.270  0.3515  0.5503 -0.2307
   62SAPC   O32 4885   5.647   6.318  10.297  0.4617  0.2104  0.6440
   62SAPC   C32 4886   5.480   6.443  10.179 -0.4441 -0.0059 -0.1320
   62SAPC   H2X 4887   5.517   6.499  10.090  1.5159  0.8110  1.1558
   62SAPC   H2Y 4888   5.397   6.501  10.224 -1.3130  0.5727 -2.3753
   62SAPC   C23 4889   6.095   7.012  10.334  0.4894  0.4409 -0.4505
   62SAPC   H3R 4890   6.180   6.949  10.367 -2.2532 -3.2977 -0.1243
   62SAPC   H3S 4891   6.086   7.090  10.413 -1.3499  1.2852 -1.4415
   62SAPC   C24 4892   6.153   7.082  10.211 -0.4935 -0.1029  0.0206
   62SAPC   H4R 4893   6.148   6.995  10.142  0.0492  0.3576 -0.6105
   62SAPC   H4S 4894   6.261   7.103  10.224  0.1657 -2.3393 -1.4290
   62SAPC   C25 4895   6.083   7.208  10.166 -0.4347 -0.6346  0.4493
   62SAPC   H5R 4896   6.076   7.286  10.242 -0.1940 -0.5384  0.3742
   62SAPC   C26 4897   6.023   7.206  10.050  0.6526 -0.1536  0.6454
   62SAPC   H6R 4898   5.969   7.296  10.017  1.8906 -0.0514 -1.1084
   62SAPC   C27 4899   6.012   7.095   9.936  0.5273  0.1269 -0.1716
   62SAPC   H7R 4900   6.029   6.995   9.981 -1.9937 -0.8515 -1.3157
   62SAPC   H7S 4901   6.089   7.121   9.861 -1.5552  1.7899 -1.8183
   62SAPC   C28 4902   5.869   7.104   9.880  1.2149  0.8202 -0.4831
   62SAPC   H8R 4903   5.805   7.053   9.954  0.5706 -0.5664 -1.9555
   62SAPC   C29 4904   5.822   7.147   9.768  0.5505 -0.5138  0.1394
   62SAPC   H9R 4905   5.715   7.170   9.755  0.3720 -1.7017 -0.5858
   62SAPC  C210 4906   5.914   7.201   9.661 -0.0782 -0.0669 -0.2390
   62SAPC  H10R 4907   6.015   7.216   9.705 -0.1944 -1.1548  0.4295
   62SAPC  H10S 4908   5.870   7.299   9.632  0.3083  0.0611 -0.3987
   62SAPC  C211 4909   5.914   7.109   9.545  0.7738  0.4002 -0.1733
   62SAPC  H11R 4910   5.947   7.004   9.557  0.5063  0.2256 -0.8839
   62SAPC  C212 4911   5.865   7.143   9.421  0.5791  0.6555  0.4146
   62SAPC  H12R 4912   5.880   7.077   9.335 -0.7261  0.6813  0.1615
   62SAPC  C213 4913   5.814   7.276   9.371 -0.2422 -0.5186  0.5993
   62SAPC  H13R 4914   5.801   7.270   9.261 -0.7745 -2.0816  0.7392
   62SAPC  H13S 4915   5.883   7.361   9.387 -1.2834  0.4568 -0.0134
   62SAPC  C214 4916   5.682   7.317   9.425 -0.2439 -0.3265 -0.5210
   62SAPC  H14R 4917   5.670   7.295   9.532  1.7921 -0.1443 -0.2436
   62SAPC  C215 4918   5.575   7.379   9.359  0.1472 -0.1780 -0.5425
   62SAPC  H15R 4919   5.484   7.390   9.421  0.8760  1.2730  0.3039
   62SAPC  C216 4920   5.567   7.415   9.207 -0.0357 -0.4116  0.4789
   62SAPC  H16R 4921   5.459   7.409   9.179 -0.6431  2.8315  1.8291
   62SAPC  H16S 4922   5.634   7.351   9.146  1.2862 -0.1276  1.6019
   62SAPC  C217 4923   5.616   7.560   9.181  0.1603 -0.7466  0.0005
   62SAPC  H17R 4924   5.725   7.570   9.196  0.2157 -1.5411  0.1376
   62SAPC  H17S 4925   5.564   7.628   9.252  0.5216 -0.7267  0.2420
   62SAPC  C218 4926   5.574   7.610   9.043 -0.5790 -0.1684 -0.1710
   62SAPC  H18R 4927   5.614   7.714   9.035  0.4797 -0.6370 -1.0501
   62SAPC  H18S 4928   5.463   7.611   9.039 -0.6015  1.2200  0.3451
   62SAPC  C219 4929   5.635   7.532   8.926  0.1189  0.0521  0.1882
   62SAPC  H19R 4930   5.606   7.425   8.933  0.8998 -0.1521  0.3693
   62SAPC  H19S 4931   5.745   7.535   8.937  0.0045  1.6268  1.0672
   62SAPC  C220 4932   5.604   7.577   8.782  0.2088 -0.0875 -0.2294
   62SAPC  H20R 4933   5.662   7.669   8.760  0.4341 -0.0928  0.3539
   62SAPC  H20S 4934   5.496   7.597   8.767 -0.0792 -1.0483  0.5309
   62SAPC  H20T 4935   5.644   7.505   8.706  1.0040 -1.6425  1.6225
   62SAPC   C33 4936   5.420   6.306  10.123  0.1650 -0.0363 -0.1134
   62SAPC   H3X 4937   5.313   6.331  10.106 -0.1169 -0.0155  1.6237
   62SAPC   H3Y 4938   5.408   6.237  10.209  1.5364  0.6625  0.6479
   62SAPC   C34 4939   5.481   6.241  10.002  0.4130 -0.2127 -0.6129
   62SAPC   H4X 4940   5.444   6.138   9.987  0.0134 -0.2005  0.3063
   62SAPC   H4Y 4941   5.591   6.232  10.015  0.5610  2.2858  0.0948
   62SAPC   C35 4942   5.455   6.322   9.873 -0.0280 -0.4658  0.3594
   62SAPC   H5X 4943   5.509   6.419   9.878  0.1381 -0.5187 -0.3831
   62SAPC   H5Y 4944   5.348   6.332   9.848  0.5173 -1.3276 -2.4448
   62SAPC   C36 4945   5.510   6.254   9.743  0.1034 -0.3371  1.1058
   62SAPC   H6X 4946   5.469   6.151   9.745  1.5934 -0.9846 -0.4602
   62SAPC   H6Y 4947   5.620   6.250   9.756  0.3434 -0.5173 -0.8616
   62SAPC   C37 4948   5.453   6.326   9.617 -0.3169  0.6648  0.2381
   62SAPC   H7X 4949   5.485   6.432   9.622 -0.8601  1.0551 -3.6651
   62SAPC   H7Y 4950   5.343   6.334   9.626 -0.2652  1.2063  0.3814
   62SAPC   C38 4951   5.516   6.269   9.495 -0.7340  0.6528  0.5854
   62SAPC   H8X 4952   5.476   6.167   9.474  1.1367  0.2433 -1.1382
   62SAPC   H8Y 4953   5.626   6.262   9.508 -0.5165 -2.1516 -2.1556
   62SAPC   C39 4954   5.497   6.352   9.364 -0.0618  0.4166  0.2236
   62SAPC   H9X 4955   5.543   6.452   9.379 -0.3463  0.6624 -0.5054
   62SAPC   H9Y 4956   5.390   6.369   9.341 -0.4250 -0.0872  1.4851
   62SAPC  C310 4957   5.558   6.292   9.235  0.0559  0.5072 -0.1050
   62SAPC  H10X 4958   5.523   6.189   9.212 -2.5685  1.3793 -0.2217
   62SAPC  H10Y 4959   5.666   6.301   9.257  0.0079  1.5953 -0.2772
   62SAPC  C311 4960   5.528   6.384   9.113  0.5669  0.4529  0.0108
   62SAPC  H11X 4961   5.419   6.385   9.091  0.3251 -0.6504  1.1321
   62SAPC  H11Y 4962   5.577   6.331   9.029 -0.6906  0.0451 -0.4697
   62SAPC  C312 4963   5.574   6.528   9.117  0.3841  0.3274 -0.3136
   62SAPC  H12X 4964   5.684   6.518   9.129  0.1844 -0.9572  0.6130
   62SAPC  H12Y 4965   5.520   6.575   9.202 -0.5779 -0.4257 -0.5017
   62SAPC  C313 4966   5.543   6.603   8.984 -0.2368  0.5279  0.3028
   62SAPC  H13X 4967   5.587   6.705   8.980 -0.7064  0.7148 -0.1859
   62SAPC  H13Y 4968   5.435   6.628   8.972  0.0983  1.2332 -1.4764
   62SAPC  C314 4969   5.582   6.533   8.852 -0.6833  0.3040 -0.4544
   62SAPC  H14X 4970   5.522   6.439   8.848 -1.4962  0.8311 -0.8786
   62SAPC  H14Y 4971   5.690   6.508   8.852 -1.0296 -1.5599  2.7742
   62SAPC  C315 4972   5.550   6.608   8.717 -0.0763  0.4434 -0.4755
   62SAPC  H15X 4973   5.579   6.534   8.639  0.7471  0.8659 -0.5808
   62SAPC  H15Y 4974   5.618   6.696   8.720  0.8319 -0.2739  0.4427
   62SAPC  C316 4975   5.404   6.647   8.690 -0.3498 -0.0898  0.0277
   62SAPC  H16X 4976   5.370   6.718   8.769  2.0856 -0.4437  1.4391
   62SAPC  H16Y 4977   5.335   6.560   8.704  1.9917 -2.0481 -0.2314
   62SAPC  C317 4978   5.384   6.704   8.550 -0.9274 -0.3533  0.2946
   62SAPC  H17X 4979   5.428   6.633   8.477  0.4668 -0.9293  1.6802
   62SAPC  H17Y 4980   5.446   6.796   8.546  0.4504 -1.2980 -0.4143
   62SAPC  C318 4981   5.236   6.726   8.504  0.3526  0.0021  0.0661
   62SAPC  H18X 4982   5.182   6.632   8.481 -1.5666  1.4098 -1.3016
   62SAPC  H18Y 4983   5.230   6.781   8.408 -3.0907  2.2004  1.4420
   62SAPC  H18Z 4984   5.169   6.786   8.569  0.4093  0.5322 -0.3593
   63SAPC     N 4985   3.283   4.922   6.273 -0.1758  0.6664  0.3508
   63SAPC   C12 4986   3.218   5.049   6.336 -0.4342  0.0513  0.0624
   63SAPC  H12A 4987   3.118   5.029   6.372 -0.1465  0.1662  0.9242
   63SAPC  H12B 4988   3.212   5.119   6.254 -0.0997 -0.9074 -0.7858
   63SAPC   C13 4989   3.359   4.830   6.366  0.1708 -0.2037  0.5914
   63SAPC  H13A 4990   3.403   4.743   6.319 -0.0229 -1.2142  2.2401
   63SAPC  H13B 4991   3.433   4.897   6.407 -0.1841 -0.3676  1.5070
   63SAPC  H13C 4992   3.303   4.778   6.442 -1.0884  1.6754  0.9905
   63SAPC   C14 4993   3.177   4.848   6.206 -0.5934  0.0509 -0.2686
   63SAPC  H14A 4994   3.102   4.817   6.278  1.7256 -1.3990  1.5937
   63SAPC  H14B 4995   3.120   4.898   6.129 -0.5407 -0.7479 -0.8347
   63SAPC  H14C 4996   3.217   4.761   6.156  1.1084  0.7753 -0.1658
   63SAPC   C15 4997   3.382   4.961   6.166 -0.4293 -0.6254 -0.3229
   63SAPC  H15A 4998   3.447   4.878   6.140  0.3791 -0.2573  0.4785
   63SAPC  H15B 4999   3.324   4.988   6.079 -2.4772 -0.0323  1.2147
   63SAPC  H15C 5000   3.442   5.045   6.198 -0.0095 -0.3141 -1.8610
   63SAPC   C11 5001   3.300   5.102   6.458 -0.4599 -0.0532 -0.4780
   63SAPC  H11A 5002   3.304   5.027   6.540 -0.4405  0.8818  0.3886
   63SAPC  H11B 5003   3.247   5.188   6.504 -0.5576 -1.4346  2.0618
   63SAPC     P 5004   3.554   5.139   6.501  0.6393 -0.1550  0.1680
   63SAPC   O13 5005   3.581   4.996   6.524  0.2562 -0.1792  0.0834
   63SAPC   O14 5006   3.664   5.209   6.436 -0.2753 -0.3474 -0.7595
   63SAPC   O12 5007   3.426   5.151   6.409  0.0395 -0.1737  0.1813
   63SAPC   O11 5008   3.507   5.205   6.631 -0.3886  0.3688  0.0637
   63SAPC    C1 5009   3.470   5.346   6.644  0.3270 -0.3244 -0.0472
   63SAPC    HA 5010   3.484   5.400   6.548  0.4711  1.3172  0.8770
   63SAPC    HB 5011   3.362   5.345   6.666  0.1233  1.5945 -0.8436
   63SAPC    C2 5012   3.546   5.425   6.758  0.7606 -0.2365 -0.5835
   63SAPC    HS 5013   3.650   5.387   6.755  0.5398 -0.9122  0.2561
   63SAPC   O21 5014   3.479   5.385   6.882  0.4518 -0.1530  0.2479
   63SAPC   C21 5015   3.566   5.375   6.990 -0.1911  0.0771  0.0620
   63SAPC   O22 5016   3.687   5.393   6.980  0.2966  0.4854 -0.2256
   63SAPC   C22 5017   3.486   5.353   7.117  0.3507 -0.2390  0.2566
   63SAPC   H2R 5018   3.418   5.437   7.141  0.6974  0.8609 -2.4640
   63SAPC   H2S 5019   3.427   5.264   7.087 -0.5293  0.5120 -0.2700
   63SAPC    C3 5020   3.526   5.582   6.726  0.3827 -0.2554  0.0557
   63SAPC    HX 5021   3.418   5.605   6.716 -0.1077 -2.6041 -0.2987
   63SAPC    HY 5022   3.561   5.604   6.623 -0.9082  1.2027 -0.0843
   63SAPC   O31 5023   3.585   5.661   6.836 -0.2593 -0.0521  0.3996
   63SAPC   C31 5024   3.713   5.688   6.809  0.2268  0.1229 -0.8990
   63SAPC   O32 5025   3.780   5.635   6.726 -0.3373  0.5098  0.8051
   63SAPC   C32 5026   3.768   5.790   6.903  0.0443  0.3912 -0.5402
   63SAPC   H2X 5027   3.711   5.884   6.918 -0.0670  0.9723 -4.3670
   63SAPC   H2Y 5028   3.857   5.828   6.849  0.6744  0.5583  0.5929
   63SAPC   C23 5029   3.582   5.332   7.237 -0.4659  0.4744 -0.0642
   63SAPC   H3R 5030   3.650   5.420   7.240  0.0169  0.1572 -1.3165
   63SAPC   H3S 5031   3.650   5.247   7.216 -0.3621  0.5549 -0.0549
   63SAPC   C24 5032   3.505   5.312   7.373  0.3727  0.2262  0.8122
   63SAPC   H4R 5033   3.566   5.261   7.450  1.7692  1.1534  0.3443
   63SAPC   H4S 5034   3.419   5.246   7.354  0.8217 -0.1194 -0.0256
   63SAPC   C25 5035   3.462   5.450   7.424 -0.0001  0.7147  0.5337
   63SAPC   H5R 5036   3.429   5.516   7.343 -0.0193  0.8915  0.6872
   63SAPC   C26 5037   3.462   5.503   7.550 -0.5817 -0.5759 -0.7905
   63SAPC   H6R 5038   3.414   5.601   7.563 -0.7283 -0.6905 -0.4900
   63SAPC   C27 5039   3.513   5.431   7.676  0.2545  0.1093  0.0516
   63SAPC   H7R 5040   3.572   5.345   7.639 -0.1416 -0.3855  0.5624
   63SAPC   H7S 5041   3.429   5.390   7.737  1.6418 -1.6170  0.8558
   63SAPC   C28 5042   3.608   5.515   7.766  0.0457  0.3629  0.4552
   63SAPC   H8R 5043   3.675   5.586   7.715  1.9154 -1.1797  0.7003
   63SAPC   C29 5044   3.629   5.486   7.895  0.8402  0.0620  0.4355
   63SAPC   H9R 5045   3.694   5.552   7.954 -0.0954  1.1197  0.2975
   63SAPC  C210 5046   3.565   5.377   7.977  0.2086 -0.6722 -0.4493
   63SAPC  H10R 5047   3.500   5.310   7.916  2.4624 -2.4131 -1.0189
   63SAPC  H10S 5048   3.492   5.414   8.052  1.6481 -1.0503  1.1666
   63SAPC  C211 5049   3.666   5.285   8.043  0.3903  0.7111 -0.1025
   63SAPC  H11R 5050   3.712   5.207   7.981 -1.5261 -0.0133 -0.6494
   63SAPC  C212 5051   3.684   5.277   8.172  0.3384 -0.0027 -0.5431
   63SAPC  H12R 5052   3.765   5.208   8.201  1.0052 -0.0690 -2.4613
   63SAPC  C213 5053   3.608   5.346   8.282 -0.2882 -0.6841  0.2561
   63SAPC  H13R 5054   3.543   5.432   8.254  1.3833  0.3531 -0.5819
   63SAPC  H13S 5055   3.684   5.398   8.344  0.8075 -1.2507 -0.5863
   63SAPC  C214 5056   3.522   5.236   8.350  0.4223 -0.8609  0.3055
   63SAPC  H14R 5057   3.424   5.218   8.303 -0.4177  1.8976  0.8650
   63SAPC  C215 5058   3.556   5.186   8.471 -0.2945 -0.0674  0.2578
   63SAPC  H15R 5059   3.483   5.117   8.517  1.5849 -1.4091  1.2777
   63SAPC  C216 5060   3.681   5.229   8.542  0.7097 -0.0936 -0.1111
   63SAPC  H16R 5061   3.762   5.225   8.467  1.5918  1.8236  0.6918
   63SAPC  H16S 5062   3.708   5.148   8.613  0.8554 -0.4775 -0.6039
   63SAPC  C217 5063   3.666   5.358   8.627 -0.2650 -0.3348  0.9336
   63SAPC  H17R 5064   3.586   5.335   8.701  0.4462 -2.0187  1.1924
   63SAPC  H17S 5065   3.630   5.445   8.568  1.7240 -2.2768 -3.3268
   63SAPC  C218 5066   3.794   5.385   8.704 -0.1774 -0.8782  0.0048
   63SAPC  H18R 5067   3.882   5.403   8.638 -1.1841 -3.2200 -2.0710
   63SAPC  H18S 5068   3.824   5.295   8.761 -1.5896 -1.0078  0.5595
   63SAPC  C219 5069   3.792   5.502   8.798 -0.9537  0.9221  0.6649
   63SAPC  H19R 5070   3.706   5.491   8.867 -2.6667  0.0614 -1.5320
   63SAPC  H19S 5071   3.774   5.594   8.738 -1.6867  0.9411  0.9026
   63SAPC  C220 5072   3.922   5.516   8.886 -0.0498  1.0486 -0.0007
   63SAPC  H20R 5073   4.010   5.504   8.819  0.8356 -0.0823  1.3382
   63SAPC  H20S 5074   3.922   5.433   8.960 -2.0529  2.8748  2.1267
   63SAPC  H20T 5075   3.933   5.611   8.943  0.3000 -0.2975  2.2187
   63SAPC   C33 5076   3.799   5.712   7.037 -0.3452 -0.0061  0.1227
   63SAPC   H3X 5077   3.869   5.626   7.031  0.0131  0.3617 -0.9668
   63SAPC   H3Y 5078   3.704   5.669   7.075 -1.0389  0.5852 -0.9372
   63SAPC   C34 5079   3.844   5.806   7.149  0.0613  0.0094  0.3617
   63SAPC   H4X 5080   3.788   5.900   7.165  1.1334  0.4691  1.5053
   63SAPC   H4Y 5081   3.948   5.842   7.134  0.1639 -0.3677  0.1673
   63SAPC   C35 5082   3.847   5.733   7.288 -1.2305 -0.2265 -0.2430
   63SAPC   H5X 5083   3.930   5.660   7.278 -1.3197 -0.5700  1.3984
   63SAPC   H5Y 5084   3.750   5.684   7.313 -0.8191 -1.0027 -0.1658
   63SAPC   C36 5085   3.881   5.834   7.402 -0.1021  0.0976 -0.6055
   63SAPC   H6X 5086   3.798   5.908   7.398  0.9036  1.3117  0.3756
   63SAPC   H6Y 5087   3.972   5.896   7.390  1.0473 -1.1060  1.6292
   63SAPC   C37 5088   3.900   5.761   7.534  0.4152  0.8012  0.2771
   63SAPC   H7X 5089   3.980   5.684   7.533  0.1989  0.5776  0.2912
   63SAPC   H7Y 5090   3.802   5.713   7.553  1.7241 -0.9188  2.9772
   63SAPC   C38 5091   3.907   5.853   7.655  0.8057  0.0088  0.0746
   63SAPC   H8X 5092   3.815   5.914   7.668  1.0855  0.3949  0.2661
   63SAPC   H8Y 5093   3.992   5.924   7.642  2.6983 -1.8963  1.7160
   63SAPC   C39 5094   3.937   5.776   7.781 -0.7892  0.7409 -0.4543
   63SAPC   H9X 5095   4.012   5.696   7.764 -1.2921  0.4654 -1.3572
   63SAPC   H9Y 5096   3.837   5.733   7.802  1.0151 -2.7923  1.3144
   63SAPC  C310 5097   3.987   5.868   7.895  0.6429 -0.3012 -0.2090
   63SAPC  H10X 5098   3.914   5.947   7.922  1.1535  0.3154 -0.6152
   63SAPC  H10Y 5099   4.077   5.925   7.861  1.0939  0.0928  1.5822
   63SAPC  C311 5100   4.031   5.790   8.013 -0.3286  1.1047  0.4163
   63SAPC  H11X 5101   4.091   5.845   8.089  0.1792  0.2352  0.6591
   63SAPC  H11Y 5102   4.090   5.701   7.981  0.3326  1.0691  1.6925
   63SAPC  C312 5103   3.917   5.733   8.092 -0.2492 -0.2498 -0.1880
   63SAPC  H12X 5104   3.954   5.651   8.157 -0.3374  0.9372  1.3597
   63SAPC  H12Y 5105   3.851   5.675   8.024  0.9772 -3.1031  0.9337
   63SAPC  C313 5106   3.850   5.828   8.192  0.2424  1.2926  0.3875
   63SAPC  H13X 5107   3.803   5.913   8.137  1.8049  1.2206 -1.0965
   63SAPC  H13Y 5108   3.930   5.866   8.259  0.6220  3.5055 -1.2612
   63SAPC  C314 5109   3.749   5.760   8.287  0.3943  0.6044  1.7828
   63SAPC  H14X 5110   3.798   5.668   8.325  0.4229  0.9913  2.6933
   63SAPC  H14Y 5111   3.665   5.722   8.225  0.1727  1.2817  1.6602
   63SAPC  C315 5112   3.704   5.841   8.410 -0.3804 -0.7760  0.6530
   63SAPC  H15X 5113   3.660   5.939   8.383 -0.7575 -1.3102 -0.7554
   63SAPC  H15Y 5114   3.794   5.880   8.461  0.0557  0.3893 -0.9769
   63SAPC  C316 5115   3.613   5.764   8.509 -0.6399 -0.4888  0.7394
   63SAPC  H16X 5116   3.647   5.658   8.516 -0.0529 -0.4059 -0.7337
   63SAPC  H16Y 5117   3.514   5.756   8.460 -0.2850 -0.2135 -0.0241
   63SAPC  C317 5118   3.606   5.826   8.652 -0.5163 -0.8732  0.6251
   63SAPC  H17X 5119   3.582   5.935   8.644 -0.1587 -0.6274  2.5340
   63SAPC  H17Y 5120   3.704   5.818   8.703 -0.0148 -0.7267 -0.2978
   63SAPC  C318 5121   3.512   5.754   8.740 -0.1630  0.4994  0.6587
   63SAPC  H18X 5122   3.512   5.798   8.841  1.6448  1.2028  0.3872
   63SAPC  H18Y 5123   3.541   5.648   8.752  1.1587  1.0019  2.0978
   63SAPC  H18Z 5124   3.407   5.755   8.704 -0.0681  3.7557  0.3060
   64SAPC     N 5125   4.930   6.031   5.704  0.7315  0.3113  0.3155
   64SAPC   C12 5126   5.009   6.022   5.843 -0.1118  0.0944 -0.4303
   64SAPC  H12A 5127   5.034   6.125   5.863 -2.1530  0.6207 -0.4788
   64SAPC  H12B 5128   5.103   5.970   5.830  1.4766  2.4329  1.2014
   64SAPC   C13 5129   4.804   6.115   5.726  0.1101  0.0456  0.3638
   64SAPC  H13A 5130   4.732   6.047   5.770  0.4250 -0.1224  0.6210
   64SAPC  H13B 5131   4.833   6.204   5.778  1.4096  0.4706 -1.0553
   64SAPC  H13C 5132   4.762   6.149   5.632  1.0798  1.6661  0.5010
   64SAPC   C14 5133   5.019   6.105   5.602 -0.1755 -0.0570  0.5295
   64SAPC  H14A 5134   5.044   6.199   5.650  0.9553 -0.5518  0.9268
   64SAPC  H14B 5135   5.109   6.050   5.577  1.0338  2.0848  0.0566
   64SAPC  H14C 5136   4.963   6.139   5.516 -1.4494  3.0236  2.4931
   64SAPC   C15 5137   4.904   5.891   5.660 -0.0846  0.4176  0.7643
   64SAPC  H15A 5138   5.002   5.847   5.650  0.6262  1.3724  3.0551
   64SAPC  H15B 5139   4.839   5.839   5.729  0.7324  1.0668  2.0590
   64SAPC  H15C 5140   4.861   5.887   5.561 -1.1225 -2.0994  1.2967
   64SAPC   C11 5141   4.942   5.960   5.965 -0.3673  0.0526  0.4273
   64SAPC  H11A 5142   4.837   5.996   5.975  0.0245  0.6593  2.6524
   64SAPC  H11B 5143   4.989   5.996   6.059  2.4660  0.4253 -1.0747
   64SAPC     P 5144   4.857   5.736   6.061 -0.2086 -0.1477 -0.0603
   64SAPC   O13 5145   4.753   5.817   6.127 -0.3186 -0.0224  0.2711
   64SAPC   O14 5146   4.812   5.611   5.992 -0.3915  0.7580  0.5103
   64SAPC   O12 5147   4.945   5.819   5.954  0.0745  0.4521  0.2929
   64SAPC   O11 5148   4.973   5.696   6.163 -0.2709  0.2158  0.3927
   64SAPC    C1 5149   4.972   5.765   6.289  0.2622 -0.0600  0.6278
   64SAPC    HA 5150   5.012   5.869   6.286 -0.7891  0.4118  2.0987
   64SAPC    HB 5151   4.868   5.773   6.326 -0.4128 -2.5071 -0.6621
   64SAPC    C2 5152   5.051   5.691   6.392  0.4539  0.2215  0.4314
   64SAPC    HS 5153   5.045   5.584   6.362 -1.1327  1.0748 -2.4369
   64SAPC   O21 5154   5.007   5.721   6.528  0.3295  0.0503  0.1793
   64SAPC   C21 5155   5.020   5.620   6.618 -0.2015 -0.1600 -0.2801
   64SAPC   O22 5156   5.075   5.514   6.594 -0.3362 -0.7505  0.1860
   64SAPC   C22 5157   4.966   5.674   6.756 -0.1601  0.2629  0.2204
   64SAPC   H2R 5158   5.011   5.771   6.786  2.6513 -0.5939 -1.0826
   64SAPC   H2S 5159   4.862   5.701   6.726 -0.6917 -0.3305  1.5011
   64SAPC    C3 5160   5.204   5.717   6.376 -0.0503  0.4252 -0.5240
   64SAPC    HX 5161   5.240   5.665   6.285  1.7707 -1.5068  1.2263
   64SAPC    HY 5162   5.248   5.662   6.462 -1.5569  0.6359  0.4045
   64SAPC   O31 5163   5.235   5.860   6.368 -0.4760  0.0301  0.1290
   64SAPC   C31 5164   5.295   5.915   6.473 -0.8700  0.3753  0.3208
   64SAPC   O32 5165   5.329   5.858   6.576 -0.0878  0.4058  0.4172
   64SAPC   C32 5166   5.331   6.061   6.434  0.1415 -0.9986 -0.0329
   64SAPC   H2X 5167   5.243   6.105   6.382 -0.2363 -0.1878  1.2501
   64SAPC   H2Y 5168   5.405   6.056   6.353  1.0431 -1.8919  0.8230
   64SAPC   C23 5169   4.963   5.570   6.875 -0.2234  0.7206  0.1767
   64SAPC   H3R 5170   5.065   5.567   6.919 -0.5830 -0.4585  0.9650
   64SAPC   H3S 5171   4.942   5.470   6.829 -0.3972  1.3495 -1.1411
   64SAPC   C24 5172   4.859   5.600   6.976 -0.2352  0.1485 -0.1415
   64SAPC   H4R 5173   4.765   5.565   6.927 -2.0404  1.3435  2.3817
   64SAPC   H4S 5174   4.857   5.710   6.987 -2.4496  0.4143 -2.6721
   64SAPC   C25 5175   4.878   5.518   7.108  0.0957 -0.2448  1.1409
   64SAPC   H5R 5176   4.909   5.414   7.090  1.6771  0.7557 -2.3295
   64SAPC   C26 5177   4.847   5.552   7.238 -0.3100 -0.1443 -0.3461
   64SAPC   H6R 5178   4.869   5.472   7.310 -1.4428  2.2834  2.8042
   64SAPC   C27 5179   4.810   5.686   7.302 -0.4141 -0.6188 -0.4577
   64SAPC   H7R 5180   4.711   5.675   7.352  0.4088  0.3934  1.4801
   64SAPC   H7S 5181   4.802   5.760   7.220 -2.4167 -0.5312 -0.2164
   64SAPC   C28 5182   4.908   5.726   7.406  0.7089  0.0137 -0.4893
   64SAPC   H8R 5183   5.011   5.695   7.382  1.4932  1.3083  1.0469
   64SAPC   C29 5184   4.884   5.786   7.522  0.5306 -0.7778  0.1218
   64SAPC   H9R 5185   4.972   5.802   7.587  1.0386  1.7115 -1.1508
   64SAPC  C210 5186   4.746   5.832   7.571  0.3240 -0.6425 -0.2236
   64SAPC  H10R 5187   4.676   5.855   7.487 -0.1331  0.6176  0.4933
   64SAPC  H10S 5188   4.762   5.934   7.611 -2.2454 -0.0164 -0.6975
   64SAPC  C211 5189   4.674   5.745   7.677 -0.3127 -0.4250  0.4622
   64SAPC  H11R 5190   4.652   5.639   7.657  2.2627 -0.9155  0.0126
   64SAPC  C212 5191   4.651   5.789   7.803  0.3862 -0.4994  0.2745
   64SAPC  H12R 5192   4.607   5.726   7.882  2.1902 -1.2485  0.7032
   64SAPC  C213 5193   4.683   5.929   7.867  0.0567 -0.5542  0.1619
   64SAPC  H13R 5194   4.786   5.963   7.843 -0.3003 -0.3808 -1.1274
   64SAPC  H13S 5195   4.679   5.919   7.978 -1.4189  2.2368  0.4210
   64SAPC  C214 5196   4.592   6.037   7.827 -0.3412  0.4869 -0.0331
   64SAPC  H14R 5197   4.645   6.104   7.758  0.5892 -0.8348 -0.6295
   64SAPC  C215 5198   4.461   6.046   7.838 -0.0180  0.0582 -0.1477
   64SAPC  H15R 5199   4.414   6.141   7.807 -1.5747 -0.0159  1.9050
   64SAPC  C216 5200   4.369   5.947   7.910 -0.2732 -0.8223 -0.7290
   64SAPC  H16R 5201   4.422   5.851   7.930  1.7514  0.1393 -1.3704
   64SAPC  H16S 5202   4.278   5.933   7.848 -2.5312  1.5782  1.9008
   64SAPC  C217 5203   4.340   6.006   8.053 -0.9315  0.3041  0.3588
   64SAPC  H17R 5204   4.437   6.000   8.107  0.5678  0.8247 -2.2348
   64SAPC  H17S 5205   4.279   5.935   8.113 -2.5520 -0.5957 -2.2545
   64SAPC  C218 5206   4.265   6.140   8.053  0.0616 -0.8342  0.1082
   64SAPC  H18R 5207   4.162   6.123   8.015 -0.4037 -0.2614  1.0773
   64SAPC  H18S 5208   4.307   6.219   7.988 -4.9108  0.9479 -1.1189
   64SAPC  C219 5209   4.248   6.195   8.199 -0.0248  0.3107 -0.2367
   64SAPC  H19R 5210   4.349   6.230   8.229  0.5631 -0.5772 -1.1545
   64SAPC  H19S 5211   4.208   6.116   8.266  1.4605 -1.0343 -0.9019
   64SAPC  C220 5212   4.153   6.311   8.198  0.1054  0.0720  0.2938
   64SAPC  H20R 5213   4.199   6.392   8.138 -0.5974 -2.2965 -3.5871
   64SAPC  H20S 5214   4.135   6.338   8.305 -2.5173  2.2764 -0.6427
   64SAPC  H20T 5215   4.054   6.283   8.156  0.5365 -0.7786 -0.1496
   64SAPC   C33 5216   5.362   6.159   6.550  1.2655  0.2601 -0.1083
   64SAPC   H3X 5217   5.298   6.122   6.633  1.0591  1.3292  0.2242
   64SAPC   H3Y 5218   5.327   6.262   6.528 -1.0052  0.1090  2.4817
   64SAPC   C34 5219   5.511   6.168   6.597  0.0235  0.0901  0.8999
   64SAPC   H4X 5220   5.574   6.164   6.506  1.0207  0.9296  1.5516
   64SAPC   H4Y 5221   5.533   6.073   6.651  0.9069  0.3354  0.9600
   64SAPC   C35 5222   5.539   6.286   6.685  0.1069  0.2569  0.1612
   64SAPC   H5X 5223   5.492   6.375   6.638 -2.4162  0.1811  2.4121
   64SAPC   H5Y 5224   5.647   6.309   6.684  0.5659 -1.7662 -2.2596
   64SAPC   C36 5225   5.498   6.263   6.836 -0.2879  0.9693  0.6375
   64SAPC   H6X 5226   5.564   6.183   6.876  1.1475  1.7297 -0.1828
   64SAPC   H6Y 5227   5.393   6.228   6.847 -0.5286  1.2895 -0.5866
   64SAPC   C37 5228   5.521   6.390   6.914  0.7168 -0.0816  0.7489
   64SAPC   H7X 5229   5.441   6.456   6.873 -0.8567 -3.1329 -1.3107
   64SAPC   H7Y 5230   5.620   6.430   6.886  0.3174  0.0728 -0.4671
   64SAPC   C38 5231   5.490   6.381   7.064  0.1890  0.0058  0.6673
   64SAPC   H8X 5232   5.559   6.304   7.105 -0.3314 -0.5453  0.5063
   64SAPC   H8Y 5233   5.385   6.348   7.074 -0.0554  1.1327  1.9746
   64SAPC   C39 5234   5.520   6.514   7.136  0.2931 -0.2091 -0.4212
   64SAPC   H9X 5235   5.457   6.581   7.074  2.3143  0.3429 -1.9274
   64SAPC   H9Y 5236   5.626   6.544   7.119  0.2748  0.1140  0.0055
   64SAPC  C310 5237   5.479   6.524   7.284  0.5641  0.4167  0.3225
   64SAPC  H10X 5238   5.526   6.446   7.348 -2.6823 -0.4332  1.7870
   64SAPC  H10Y 5239   5.369   6.508   7.277  0.9827 -1.4867 -3.2015
   64SAPC  C311 5240   5.512   6.658   7.339  0.3085 -0.0681  0.0023
   64SAPC  H11X 5241   5.454   6.742   7.295 -1.7673  0.0260  2.7627
   64SAPC  H11Y 5242   5.619   6.681   7.324  0.1042  0.1499 -1.1410
   64SAPC  C312 5243   5.480   6.663   7.489  0.0201  0.3151 -0.0102
   64SAPC  H12X 5244   5.533   6.580   7.540  0.0718  0.8617  0.8359
   64SAPC  H12Y 5245   5.374   6.639   7.512  0.7122 -2.1950  0.7500
   64SAPC  C313 5246   5.530   6.790   7.563  0.1841  0.4820  0.3585
   64SAPC  H13X 5247   5.484   6.877   7.511  1.0438  1.0744  0.5752
   64SAPC  H13Y 5248   5.639   6.800   7.547 -0.0251 -0.3174 -1.7638
   64SAPC  C314 5249   5.514   6.773   7.711  0.5143  0.1006  0.0845
   64SAPC  H14X 5250   5.569   6.681   7.740 -1.8374 -0.9467  1.3701
   64SAPC  H14Y 5251   5.410   6.739   7.731  0.2559  0.5029 -0.5539
   64SAPC  C315 5252   5.543   6.900   7.790 -0.4086 -0.1381 -0.7037
   64SAPC  H15X 5253   5.453   6.966   7.792 -0.4460 -0.2039  1.4055
   64SAPC  H15Y 5254   5.636   6.943   7.748 -0.3509  2.0635  1.5292
   64SAPC  C316 5255   5.580   6.878   7.942  0.5492  0.3025  0.1564
   64SAPC  H16X 5256   5.635   6.965   7.982  0.0903  1.0003 -0.7105
   64SAPC  H16Y 5257   5.635   6.782   7.951 -1.8248 -1.0631  0.5953
   64SAPC  C317 5258   5.458   6.860   8.027  0.0670  0.3698  0.3778
   64SAPC  H17X 5259   5.392   6.789   7.973 -2.2105  1.6432  1.4053
   64SAPC  H17Y 5260   5.400   6.955   8.025  0.2395  0.4594 -1.2966
   64SAPC  C318 5261   5.492   6.821   8.174  0.2457  0.4478 -0.1283
   64SAPC  H18X 5262   5.526   6.716   8.181 -1.5088 -0.1111  0.3213
   64SAPC  H18Y 5263   5.405   6.845   8.239 -1.2194 -1.9709 -1.1296
   64SAPC  H18Z 5264   5.578   6.887   8.196 -1.8743  2.2715  3.0954
   65SAPC     N 5265   4.809   0.957   5.736  0.3054 -0.0712 -0.5450
   65SAPC   C12 5266   4.755   0.975   5.880  0.3348  0.7931  0.0099
   65SAPC  H12A 5267   4.649   0.957   5.873  0.5669 -0.5090 -0.3106
   65SAPC  H12B 5268   4.769   1.076   5.916 -1.6784  1.2481 -0.4349
   65SAPC   C13 5269   4.738   1.052   5.643 -0.5250  0.0449 -0.3464
   65SAPC  H13A 5270   4.765   1.033   5.540 -1.6821  2.2242 -1.0961
   65SAPC  H13B 5271   4.633   1.026   5.647 -0.5582  0.3456  0.9314
   65SAPC  H13C 5272   4.752   1.156   5.666  1.5471 -0.4884  0.9352
   65SAPC   C14 5273   4.956   0.981   5.725 -0.0346 -0.5751  0.4558
   65SAPC  H14A 5274   5.010   0.919   5.796 -0.1130 -0.8123  0.3080
   65SAPC  H14B 5275   4.991   0.953   5.627  1.1875 -1.2699  1.0748
   65SAPC  H14C 5276   4.985   1.082   5.750 -0.6886 -0.1017 -0.6804
   65SAPC   C15 5277   4.786   0.816   5.697  0.0419  0.3238 -0.3384
   65SAPC  H15A 5278   4.679   0.806   5.692 -0.1651  2.2504  0.1495
   65SAPC  H15B 5279   4.827   0.793   5.599  0.1832  0.4534 -0.3097
   65SAPC  H15C 5280   4.828   0.748   5.769  0.4184  1.6632  0.7074
   65SAPC   C11 5281   4.803   0.875   5.991  0.8126 -0.8997 -0.2187
   65SAPC  H11A 5282   4.772   0.917   6.089  0.2225 -0.4706 -0.5899
   65SAPC  H11B 5283   4.913   0.859   5.984  1.5590  2.7655  2.0625
   65SAPC     P 5284   4.596   0.718   5.998  0.2163  0.4168  0.0867
   65SAPC   O13 5285   4.506   0.840   5.975  0.4071  1.0788 -0.4385
   65SAPC   O14 5286   4.562   0.600   5.914 -0.2780 -0.4876 -0.0416
   65SAPC   O12 5287   4.751   0.741   5.970  0.3552 -0.5234 -0.2592
   65SAPC   O11 5288   4.586   0.673   6.150 -0.2671 -0.6259  0.0769
   65SAPC    C1 5289   4.670   0.564   6.188  0.3822 -0.0711 -0.1493
   65SAPC    HA 5290   4.666   0.478   6.118 -0.7938  0.9322 -1.3599
   65SAPC    HB 5291   4.774   0.602   6.189  0.5357 -0.5020  1.6960
   65SAPC    C2 5292   4.632   0.501   6.326  0.0116 -0.9160  0.1741
   65SAPC    HS 5293   4.529   0.463   6.309 -0.4044 -0.1356  0.9449
   65SAPC   O21 5294   4.649   0.600   6.429  0.4270  0.0928  0.4341
   65SAPC   C21 5295   4.554   0.602   6.520 -0.7449  0.3600  0.0592
   65SAPC   O22 5296   4.453   0.530   6.516 -0.9881 -0.1911 -0.0383
   65SAPC   C22 5297   4.581   0.706   6.618 -0.3915  0.1897 -0.3796
   65SAPC   H2R 5298   4.688   0.729   6.603 -0.4562  0.7920  0.0706
   65SAPC   H2S 5299   4.523   0.795   6.586  1.8653  1.3801 -1.2558
   65SAPC    C3 5300   4.727   0.378   6.341  0.2018 -0.3154 -0.1414
   65SAPC    HX 5301   4.834   0.398   6.318  0.4555 -1.1862  0.2825
   65SAPC    HY 5302   4.690   0.319   6.255 -2.0077  2.6232 -1.3082
   65SAPC   O31 5303   4.719   0.300   6.462  0.0177 -0.4879  0.2296
   65SAPC   C31 5304   4.809   0.315   6.554  0.1031 -0.4009 -0.1285
   65SAPC   O32 5305   4.899   0.402   6.557 -0.5068 -0.0533  0.2192
   65SAPC   C32 5306   4.797   0.193   6.655 -0.3438  0.1322 -0.1575
   65SAPC   H2X 5307   4.902   0.162   6.672  0.2211  1.6625 -0.6949
   65SAPC   H2Y 5308   4.745   0.109   6.605 -0.8246  2.1693 -3.2454
   65SAPC   C23 5309   4.558   0.669   6.762 -0.6365 -0.4607 -0.5740
   65SAPC   H3R 5310   4.621   0.585   6.800  0.6247 -0.1484 -1.9494
   65SAPC   H3S 5311   4.456   0.638   6.792 -0.5510  0.7262  1.0513
   65SAPC   C24 5312   4.577   0.791   6.861 -0.2497  0.5229  0.8737
   65SAPC   H4R 5313   4.516   0.877   6.827  1.0015  0.9492 -0.3166
   65SAPC   H4S 5314   4.682   0.827   6.857  0.6089 -1.9695 -0.0296
   65SAPC   C25 5315   4.556   0.745   7.005  0.6252  0.4271  0.2354
   65SAPC   H5R 5316   4.455   0.709   7.028  0.0416  1.1431 -1.1678
   65SAPC   C26 5317   4.649   0.732   7.101 -0.2860  0.6386 -0.3474
   65SAPC   H6R 5318   4.620   0.697   7.202  0.2734 -1.7082 -0.9503
   65SAPC   C27 5319   4.793   0.764   7.080 -0.4004 -0.2533 -0.2211
   65SAPC   H7R 5320   4.851   0.773   7.174  0.5431 -0.7679 -0.7372
   65SAPC   H7S 5321   4.797   0.860   7.024 -1.1427 -0.0607  0.0604
   65SAPC   C28 5322   4.870   0.663   6.997 -0.3496  0.6305 -0.0845
   65SAPC   H8R 5323   4.879   0.688   6.891 -3.7786  0.0442 -0.5550
   65SAPC   C29 5324   4.927   0.551   7.047  0.1368  0.4898  0.3597
   65SAPC   H9R 5325   4.972   0.480   6.976  0.2153  1.9465 -1.0757
   65SAPC  C210 5326   4.918   0.503   7.188 -0.1294 -0.5162  0.0498
   65SAPC  H10R 5327   4.878   0.399   7.181  2.5525 -1.5651 -0.4280
   65SAPC  H10S 5328   4.848   0.558   7.254  0.5186  2.1532 -1.4320
   65SAPC  C211 5329   5.057   0.486   7.231 -0.4361  0.4832  0.1366
   65SAPC  H11R 5330   5.130   0.455   7.155 -2.2033 -1.7875 -0.6955
   65SAPC  C212 5331   5.091   0.496   7.364  0.4930  0.1488  0.0651
   65SAPC  H12R 5332   5.199   0.495   7.384  0.7296 -0.8525 -1.1615
   65SAPC  C213 5333   4.993   0.533   7.478  0.0786 -0.1799 -0.3922
   65SAPC  H13R 5334   5.026   0.490   7.575 -0.6175  0.8152  0.2952
   65SAPC  H13S 5335   4.899   0.476   7.457 -1.1704  1.1323  1.4548
   65SAPC  C214 5336   4.966   0.678   7.494 -0.2424  0.1370  0.2259
   65SAPC  H14R 5337   5.011   0.748   7.422  0.9087  1.0349  1.7861
   65SAPC  C215 5338   4.866   0.720   7.577 -0.2648 -0.7268 -0.9722
   65SAPC  H15R 5339   4.837   0.825   7.593 -0.3130 -0.7542 -0.8766
   65SAPC  C216 5340   4.773   0.639   7.668  0.0670 -0.0090 -0.3888
   65SAPC  H16R 5341   4.821   0.541   7.689 -0.5865 -0.1782  0.3260
   65SAPC  H16S 5342   4.666   0.631   7.638 -0.1612  1.7936 -0.1057
   65SAPC  C217 5343   4.759   0.716   7.811  0.1753 -0.5884 -0.5200
   65SAPC  H17R 5344   4.703   0.811   7.800 -0.1418 -0.8534 -1.2656
   65SAPC  H17S 5345   4.854   0.749   7.859 -1.2672  0.6161  1.5538
   65SAPC  C218 5346   4.685   0.631   7.919  0.6024 -0.0418 -0.5393
   65SAPC  H18R 5347   4.725   0.527   7.914  0.4081 -0.1327 -0.2164
   65SAPC  H18S 5348   4.582   0.642   7.877  0.3103  2.0851  0.6658
   65SAPC  C219 5349   4.679   0.704   8.054 -0.1941  0.7394 -0.2899
   65SAPC  H19R 5350   4.692   0.814   8.061 -4.3863  1.2424  0.7610
   65SAPC  H19S 5351   4.773   0.659   8.093 -0.5541 -0.6977 -1.0226
   65SAPC  C220 5352   4.558   0.675   8.150 -0.5020 -0.2697  0.5310
   65SAPC  H20R 5353   4.592   0.711   8.249 -1.9696 -0.6457  1.1718
   65SAPC  H20S 5354   4.532   0.567   8.149  1.7504 -0.8825 -2.8899
   65SAPC  H20T 5355   4.470   0.729   8.110  0.0552 -1.8734 -3.1143
   65SAPC   C33 5356   4.733   0.220   6.791 -0.1824  0.8497  0.5438
   65SAPC   H3X 5357   4.765   0.319   6.830  1.0256  1.1047 -1.0384
   65SAPC   H3Y 5358   4.765   0.138   6.859  1.7192  0.8838 -0.2712
   65SAPC   C34 5359   4.575   0.226   6.794  0.3470  0.4268 -0.6078
   65SAPC   H4X 5360   4.526   0.138   6.747  1.9455 -0.7190 -0.1466
   65SAPC   H4Y 5361   4.544   0.322   6.748 -1.6002  1.2084  2.2231
   65SAPC   C35 5362   4.522   0.237   6.938  0.5005  0.0838 -0.2639
   65SAPC   H5X 5363   4.556   0.153   7.003 -0.1418 -0.4914 -0.6566
   65SAPC   H5Y 5364   4.413   0.225   6.919  0.1229  1.0772  1.2280
   65SAPC   C36 5365   4.550   0.373   7.006  0.2769  0.4474 -0.0801
   65SAPC   H6X 5366   4.513   0.454   6.940 -0.1406  1.6223  1.5569
   65SAPC   H6Y 5367   4.659   0.393   7.014  0.4118  0.4285 -1.7953
   65SAPC   C37 5368   4.481   0.373   7.146 -0.0562 -0.1302 -0.0329
   65SAPC   H7X 5369   4.388   0.313   7.142 -1.2664  1.6506  0.7748
   65SAPC   H7Y 5370   4.459   0.480   7.166  0.5948  0.1581 -0.8225
   65SAPC   C38 5371   4.567   0.306   7.258 -0.3467  0.0651  0.3367
   65SAPC   H8X 5372   4.668   0.349   7.278 -0.1591  0.5746 -1.6195
   65SAPC   H8Y 5373   4.585   0.197   7.252  2.4770  0.5518 -0.6829
   65SAPC   C39 5374   4.503   0.322   7.398  0.4212 -0.2886  0.5321
   65SAPC   H9X 5375   4.396   0.294   7.393  0.9400 -1.8292 -3.1529
   65SAPC   H9Y 5376   4.509   0.429   7.428 -0.9536 -0.0225 -0.1311
   65SAPC  C310 5377   4.586   0.255   7.509 -0.3348  0.1423  0.2950
   65SAPC  H10X 5378   4.691   0.287   7.493  0.4903 -2.5884 -0.0334
   65SAPC  H10Y 5379   4.576   0.145   7.504 -3.2451  0.3507  0.5967
   65SAPC  C311 5380   4.537   0.307   7.640  0.1702  0.5571 -0.4460
   65SAPC  H11X 5381   4.432   0.277   7.656  0.0235  0.2602 -1.8939
   65SAPC  H11Y 5382   4.532   0.418   7.638  0.1602  0.5482 -1.1180
   65SAPC  C312 5383   4.608   0.255   7.766 -0.9013  0.3377  0.7698
   65SAPC  H12X 5384   4.712   0.294   7.767  0.0047 -1.8205 -1.7184
   65SAPC  H12Y 5385   4.621   0.147   7.743  1.4039  0.5311  1.0760
   65SAPC  C313 5386   4.530   0.262   7.898  0.2755  0.1198  0.1095
   65SAPC  H13X 5387   4.425   0.231   7.884  0.5569 -1.3120  1.0264
   65SAPC  H13Y 5388   4.542   0.363   7.944 -1.2346  1.3492 -2.1465
   65SAPC  C314 5389   4.599   0.165   7.994 -0.5176  0.9376 -0.5692
   65SAPC  H14X 5390   4.608   0.074   7.931  1.5122  0.7761 -0.0744
   65SAPC  H14Y 5391   4.532   0.144   8.080 -1.9286  1.6356 -1.4810
   65SAPC  C315 5392   4.737   0.206   8.047  0.2549  0.7358 -0.0382
   65SAPC  H15X 5393   4.769   0.311   8.026  1.3583  0.7868  1.8305
   65SAPC  H15Y 5394   4.811   0.162   7.977 -0.4790 -3.3466  1.6608
   65SAPC  C316 5395   4.760   0.183   8.200  0.0391 -0.1365  0.1539
   65SAPC  H16X 5396   4.734   0.077   8.221  2.0371 -0.5429  0.6949
   65SAPC  H16Y 5397   4.683   0.248   8.246  1.4648  2.6060 -1.1798
   65SAPC  C317 5398   4.896   0.224   8.244  0.3801 -0.5833  0.2847
   65SAPC  H17X 5399   4.915   0.330   8.217  2.9241 -1.8266 -3.1660
   65SAPC  H17Y 5400   4.974   0.172   8.185 -0.1863 -2.4744  1.1407
   65SAPC  C318 5401   4.914   0.231   8.393 -0.7740 -0.3299  0.0273
   65SAPC  H18X 5402   5.013   0.278   8.411 -0.8402  0.2478 -1.0717
   65SAPC  H18Y 5403   4.917   0.134   8.448  0.0270 -1.3777 -1.8255
   65SAPC  H18Z 5404   4.838   0.296   8.441  0.0108 -0.3047  1.2676
   66SAPC     N 5405   2.420   6.378   5.557 -0.7539 -0.1209 -0.2006
   66SAPC   C12 5406   2.409   6.498   5.653  0.0333  0.0081 -0.1299
   66SAPC  H12A 5407   2.306   6.495   5.684  0.6269  0.4384  1.9052
   66SAPC  H12B 5408   2.425   6.591   5.600  1.7444 -0.0663  0.2489
   66SAPC   C13 5409   2.557   6.387   5.501 -0.7830  0.2807 -0.0033
   66SAPC  H13A 5410   2.629   6.402   5.580 -0.1505 -0.9618 -0.3239
   66SAPC  H13B 5411   2.575   6.295   5.447  1.1879  0.4940  0.2465
   66SAPC  H13C 5412   2.571   6.463   5.426 -1.6213  0.9446  0.4983
   66SAPC   C14 5413   2.391   6.252   5.625  0.6891 -0.0685 -0.1735
   66SAPC  H14A 5414   2.428   6.167   5.570 -2.0004 -0.7661 -0.9879
   66SAPC  H14B 5415   2.440   6.253   5.722  2.1181  2.1157 -0.8784
   66SAPC  H14C 5416   2.285   6.230   5.635  0.5877  0.5081  0.1041
   66SAPC   C15 5417   2.317   6.391   5.452 -0.6895  0.1457 -0.5410
   66SAPC  H15A 5418   2.220   6.396   5.499 -0.9261  0.4394 -1.0560
   66SAPC  H15B 5419   2.338   6.481   5.397  1.2523  0.3380  0.4554
   66SAPC  H15C 5420   2.317   6.309   5.382 -2.8618 -1.2302  1.0004
   66SAPC   C11 5421   2.495   6.502   5.775  0.4986 -0.0426  0.7849
   66SAPC  H11A 5422   2.487   6.599   5.828 -0.5961  1.3541 -1.8833
   66SAPC  H11B 5423   2.596   6.483   5.733 -0.1753  0.2754 -1.0249
   66SAPC     P 5424   2.363   6.410   5.981  0.2853 -0.2435 -0.0698
   66SAPC   O13 5425   2.229   6.444   5.930 -0.1635  0.5726  0.4115
   66SAPC   O14 5426   2.362   6.285   6.062  0.6972  0.3639  0.0258
   66SAPC   O12 5427   2.471   6.392   5.866 -0.6712 -0.1547 -0.3041
   66SAPC   O11 5428   2.418   6.533   6.065 -0.4253  0.2552 -0.7764
   66SAPC    C1 5429   2.558   6.548   6.099  0.2678 -0.5555 -0.7598
   66SAPC    HA 5430   2.631   6.490   6.039  1.6211 -1.1953  1.4888
   66SAPC    HB 5431   2.587   6.656   6.095 -5.6832  1.3011  1.2306
   66SAPC    C2 5432   2.584   6.505   6.242  0.3499  0.3912  0.1356
   66SAPC    HS 5433   2.576   6.395   6.258  1.5267 -0.0531 -2.1203
   66SAPC   O21 5434   2.485   6.579   6.314  0.0564  0.3965  0.2650
   66SAPC   C21 5435   2.444   6.532   6.426 -0.5820  0.3276  0.6090
   66SAPC   O22 5436   2.484   6.427   6.475 -0.8006 -0.5648 -0.5730
   66SAPC   C22 5437   2.332   6.626   6.475  0.1457 -0.4159 -0.5764
   66SAPC   H2R 5438   2.375   6.728   6.468 -1.2476  0.3188  1.1829
   66SAPC   H2S 5439   2.249   6.623   6.401  0.7538 -0.5606 -1.2611
   66SAPC    C3 5440   2.727   6.547   6.283 -0.3333  0.3502 -0.0069
   66SAPC    HX 5441   2.739   6.658   6.280  3.4390  0.0533  0.8874
   66SAPC    HY 5442   2.803   6.517   6.208 -2.9357 -0.3251 -2.4220
   66SAPC   O31 5443   2.756   6.495   6.418  0.0925  0.0580  0.6122
   66SAPC   C31 5444   2.734   6.584   6.514 -0.8093  0.4936 -0.8890
   66SAPC   O32 5445   2.696   6.697   6.499  0.1120 -0.0595  0.4744
   66SAPC   C32 5446   2.780   6.514   6.648  0.0217 -0.3143  0.6075
   66SAPC   H2X 5447   2.774   6.405   6.625  0.7367 -0.2026 -0.1079
   66SAPC   H2Y 5448   2.704   6.546   6.722  1.7944  0.7746  1.9830
   66SAPC   C23 5449   2.276   6.600   6.623 -1.3199 -0.0462  0.0488
   66SAPC   H3R 5450   2.219   6.505   6.621 -0.9636 -0.2491 -0.8663
   66SAPC   H3S 5451   2.197   6.675   6.641  0.6497  1.3356  3.2846
   66SAPC   C24 5452   2.378   6.592   6.742 -0.2028  0.0243  0.2645
   66SAPC   H4R 5453   2.449   6.509   6.720  0.0427  0.4126 -0.4378
   66SAPC   H4S 5454   2.316   6.569   6.831  0.4149 -1.4151  0.3345
   66SAPC   C25 5455   2.433   6.731   6.747 -0.1672 -0.4011 -0.6567
   66SAPC   H5R 5456   2.439   6.789   6.654 -0.3112 -1.0797 -1.0939
   66SAPC   C26 5457   2.463   6.793   6.864  0.0146  0.7321 -1.0223
   66SAPC   H6R 5458   2.483   6.901   6.859 -2.2579  1.2305  0.1179
   66SAPC   C27 5459   2.455   6.734   7.001 -0.0046 -0.2467 -0.0778
   66SAPC   H7R 5460   2.465   6.625   6.985 -2.1810 -0.7077  1.5008
   66SAPC   H7S 5461   2.351   6.756   7.034  0.4084  1.5144  0.1243
   66SAPC   C28 5462   2.567   6.794   7.077 -0.0701  0.4186 -0.2250
   66SAPC   H8R 5463   2.667   6.782   7.032 -0.8470  0.7604 -2.0576
   66SAPC   C29 5464   2.556   6.841   7.204 -0.3290 -0.1439 -0.6714
   66SAPC   H9R 5465   2.644   6.892   7.245 -0.2279 -2.2608  1.8566
   66SAPC  C210 5466   2.437   6.864   7.283  0.2608  0.4265  0.6268
   66SAPC  H10R 5467   2.341   6.842   7.231  0.6850  1.3931 -0.5919
   66SAPC  H10S 5468   2.414   6.972   7.283  1.2184  0.6927 -3.0107
   66SAPC  C211 5469   2.444   6.794   7.416 -0.0320  0.2092  0.1373
   66SAPC  H11R 5470   2.403   6.692   7.403 -1.1667  0.6985 -0.1832
   66SAPC  C212 5471   2.488   6.842   7.535  0.0297 -0.5912 -0.0513
   66SAPC  H12R 5472   2.484   6.783   7.628  0.6986 -0.7870 -0.1416
   66SAPC  C213 5473   2.535   6.983   7.565 -0.3171 -0.3684  0.2644
   66SAPC  H13R 5474   2.489   7.019   7.660  0.9375  2.0475 -0.0209
   66SAPC  H13S 5475   2.499   7.057   7.491  0.9080  0.7508  0.7725
   66SAPC  C214 5476   2.688   7.000   7.578 -0.4507 -0.1175 -0.2894
   66SAPC  H14R 5477   2.753   6.911   7.591  1.2481  1.0387 -0.7386
   66SAPC  C215 5478   2.750   7.115   7.571 -0.2517 -0.0289 -0.1450
   66SAPC  H15R 5479   2.858   7.130   7.581 -0.0192 -2.1220  0.8441
   66SAPC  C216 5480   2.683   7.250   7.557 -0.4258  0.0075  0.2683
   66SAPC  H16R 5481   2.728   7.313   7.636  0.9810 -1.9143  1.0621
   66SAPC  H16S 5482   2.576   7.250   7.584 -0.5909 -0.6094 -0.3605
   66SAPC  C217 5483   2.702   7.306   7.413 -0.3528 -0.2342 -0.2317
   66SAPC  H17R 5484   2.809   7.286   7.393 -0.8185 -0.7245 -2.4174
   66SAPC  H17S 5485   2.675   7.413   7.407 -0.7936 -0.3613 -0.5620
   66SAPC  C218 5486   2.624   7.222   7.313  0.0105 -1.1423 -0.0807
   66SAPC  H18R 5487   2.517   7.213   7.341  0.0530 -0.9996  0.1277
   66SAPC  H18S 5488   2.665   7.119   7.312  1.1145 -0.7064 -0.8156
   66SAPC  C219 5489   2.635   7.291   7.169 -0.2553 -0.1557 -0.1806
   66SAPC  H19R 5490   2.742   7.317   7.156 -0.5737 -0.1770 -3.2685
   66SAPC  H19S 5491   2.583   7.389   7.156  0.0256  0.2112  1.3373
   66SAPC  C220 5492   2.595   7.198   7.057  0.7589  0.1319 -0.3353
   66SAPC  H20R 5493   2.488   7.167   7.049  0.4354  1.0548  0.4118
   66SAPC  H20S 5494   2.637   7.098   7.080  2.5655  0.7620 -0.8162
   66SAPC  H20T 5495   2.630   7.239   6.960 -0.0828  3.0504  0.5583
   66SAPC   C33 5496   2.927   6.550   6.669 -0.5138 -0.4495 -0.5777
   66SAPC   H3X 5497   2.945   6.660   6.676  0.4580 -0.6234 -0.3596
   66SAPC   H3Y 5498   2.987   6.512   6.584 -1.7125  1.6111 -2.4242
   66SAPC   C34 5499   2.966   6.490   6.804  0.4040  0.5444  0.1522
   66SAPC   H4X 5500   3.075   6.478   6.821 -0.0492 -1.3452  1.9209
   66SAPC   H4Y 5501   2.921   6.389   6.815  1.0647  0.6693  4.9963
   66SAPC   C35 5502   2.914   6.577   6.921  1.1580  0.4276  0.6041
   66SAPC   H5X 5503   2.805   6.559   6.938  1.2225 -0.3696  0.1992
   66SAPC   H5Y 5504   2.926   6.684   6.892  0.7537  0.3525  0.1438
   66SAPC   C36 5505   2.981   6.559   7.055  0.9102  0.0568  0.2239
   66SAPC   H6X 5506   3.090   6.582   7.051  1.2215 -1.2776  0.6676
   66SAPC   H6Y 5507   2.983   6.449   7.068  2.0786  0.3105  2.4841
   66SAPC   C37 5508   2.910   6.622   7.174  0.6919 -0.3036  0.1235
   66SAPC   H7X 5509   2.801   6.601   7.172  0.7546 -0.7316  1.3482
   66SAPC   H7Y 5510   2.910   6.733   7.170 -1.4424 -0.3435 -1.9677
   66SAPC   C38 5511   2.976   6.571   7.304 -0.2066 -0.6393 -0.3439
   66SAPC   H8X 5512   3.076   6.620   7.309 -0.1874 -0.7880  0.8647
   66SAPC   H8Y 5513   3.000   6.463   7.303 -0.1784 -0.7078  3.0161
   66SAPC   C39 5514   2.910   6.622   7.435  0.0586 -0.0213 -0.7660
   66SAPC   H9X 5515   2.810   6.577   7.452 -0.0066  1.4396  3.0993
   66SAPC   H9Y 5516   2.891   6.731   7.437 -2.3267 -0.4232 -0.3805
   66SAPC  C310 5517   2.987   6.585   7.561 -0.3289 -0.8467 -0.0590
   66SAPC  H10X 5518   3.084   6.639   7.552 -0.2575 -1.0699 -0.6729
   66SAPC  H10Y 5519   3.006   6.476   7.567  2.9985 -0.3635 -0.3631
   66SAPC  C311 5520   2.917   6.645   7.682 -0.4793 -0.0366 -0.5247
   66SAPC  H11X 5521   2.838   6.574   7.714  0.1013 -0.0334  0.9812
   66SAPC  H11Y 5522   2.863   6.738   7.652  1.0271  1.0432  0.0312
   66SAPC  C312 5523   3.009   6.688   7.793  0.3975 -0.1476  0.0375
   66SAPC  H12X 5524   3.078   6.765   7.753  0.1340 -0.2568 -0.6351
   66SAPC  H12Y 5525   3.062   6.598   7.830  0.2820 -0.0415  0.4667
   66SAPC  C313 5526   2.941   6.749   7.910  0.1646 -0.2272  0.4315
   66SAPC  H13X 5527   2.856   6.688   7.949  0.2588  0.3388  1.5634
   66SAPC  H13Y 5528   2.914   6.849   7.870 -1.4171 -0.7820  0.0848
   66SAPC  C314 5529   3.032   6.770   8.029 -0.3711 -0.0208 -0.3190
   66SAPC  H14X 5530   3.090   6.864   8.017 -0.8059  0.2004 -0.6965
   66SAPC  H14Y 5531   3.104   6.688   8.045  0.6590  0.9166 -0.0866
   66SAPC  C315 5532   2.957   6.800   8.161  0.2438 -0.1474  0.1333
   66SAPC  H15X 5533   2.899   6.709   8.187  2.2301 -1.2045  1.0067
   66SAPC  H15Y 5534   2.882   6.878   8.137 -0.8750 -0.7054  1.7148
   66SAPC  C316 5535   3.048   6.864   8.272 -0.2226  0.2066 -0.5721
   66SAPC  H16X 5536   2.978   6.918   8.339 -0.5591  0.5111 -1.1704
   66SAPC  H16Y 5537   3.133   6.924   8.233  2.5391 -0.5405  3.8649
   66SAPC  C317 5538   3.111   6.748   8.349  0.3377  0.5887 -0.8106
   66SAPC  H17X 5539   3.195   6.788   8.410 -0.6212 -0.0954  0.9971
   66SAPC  H17Y 5540   3.146   6.661   8.290  2.8907  0.7815  0.3840
   66SAPC  C318 5541   3.005   6.688   8.445  0.6935  0.3063 -0.2052
   66SAPC  H18X 5542   2.957   6.770   8.502  0.6218 -2.3974  3.8657
   66SAPC  H18Y 5543   3.048   6.616   8.518 -2.0628 -1.7361 -0.5158
   66SAPC  H18Z 5544   2.927   6.629   8.393  0.8609  0.4557 -0.6352
   67SAPC     N 5545   5.620   1.829   6.328  0.4406  0.1434 -0.0142
   67SAPC   C12 5546   5.596   1.882   6.471  0.1772  0.2942  0.2341
   67SAPC  H12A 5547   5.613   1.989   6.472  0.2763  0.3088 -1.2121
   67SAPC  H12B 5548   5.670   1.832   6.531 -0.3753  1.3548  1.8209
   67SAPC   C13 5549   5.747   1.879   6.259 -0.7763  0.5791 -0.0757
   67SAPC  H13A 5550   5.725   1.973   6.211  0.9518 -0.3949 -2.9029
   67SAPC  H13B 5551   5.827   1.881   6.332 -0.0810  0.5063 -0.8252
   67SAPC  H13C 5552   5.781   1.811   6.182  0.8286  0.6553  0.5480
   67SAPC   C14 5553   5.619   1.679   6.339  0.1594 -0.0155  0.0031
   67SAPC  H14A 5554   5.529   1.648   6.390  0.2524  0.4947  0.4824
   67SAPC  H14B 5555   5.627   1.634   6.241  1.2134  1.2163 -0.4984
   67SAPC  H14C 5556   5.714   1.650   6.382  2.3440  3.9199 -1.8999
   67SAPC   C15 5557   5.509   1.869   6.236  0.0737  0.1766 -0.4711
   67SAPC  H15A 5558   5.420   1.851   6.295  0.8965 -0.8503  0.4980
   67SAPC  H15B 5559   5.525   1.967   6.194 -1.5530 -0.5802 -2.9283
   67SAPC  H15C 5560   5.505   1.798   6.155  1.8789  0.5881 -0.9588
   67SAPC   C11 5561   5.453   1.853   6.539 -1.0309  0.3032 -0.0627
   67SAPC  H11A 5562   5.457   1.878   6.647 -1.0577 -0.2266  0.0651
   67SAPC  H11B 5563   5.432   1.746   6.516 -1.7192  0.3168  0.4716
   67SAPC     P 5564   5.304   2.068   6.517 -0.4769  0.2095  0.0906
   67SAPC   O13 5565   5.420   2.155   6.539  0.3148  0.0431 -0.0440
   67SAPC   O14 5566   5.208   2.121   6.425 -0.4596 -0.5242 -0.1709
   67SAPC   O12 5567   5.354   1.924   6.466 -0.5860  0.4270  0.3369
   67SAPC   O11 5568   5.230   2.041   6.653  0.9262  0.5629  0.0754
   67SAPC    C1 5569   5.158   1.916   6.662 -0.1202 -0.5328  0.3413
   67SAPC    HA 5570   5.114   1.882   6.566  0.8459 -1.4122  0.1976
   67SAPC    HB 5571   5.214   1.836   6.716 -0.6278 -0.2193  1.3524
   67SAPC    C2 5572   5.033   1.941   6.742 -0.5057  0.2078  0.2375
   67SAPC    HS 5573   4.983   2.027   6.695  0.2422  1.1244  1.0873
   67SAPC   O21 5574   5.072   1.985   6.872  0.7252 -0.0041 -0.5174
   67SAPC   C21 5575   4.978   2.032   6.945 -0.1606 -0.2426 -0.4051
   67SAPC   O22 5576   4.856   2.054   6.910  0.3091 -0.2522  0.3213
   67SAPC   C22 5577   5.034   2.067   7.086  0.3168  0.0991 -0.0332
   67SAPC   H2R 5578   5.144   2.051   7.090  0.4555  1.1001  0.1559
   67SAPC   H2S 5579   5.018   2.176   7.090  0.6150  0.1693 -0.6045
   67SAPC    C3 5580   4.939   1.820   6.744 -0.6898 -0.9488  0.5090
   67SAPC    HX 5581   4.918   1.775   6.645 -1.8838 -0.1535  0.3897
   67SAPC    HY 5582   4.837   1.856   6.770  0.1893  2.2102 -0.2570
   67SAPC   O31 5583   4.972   1.725   6.848  0.0181  0.1766 -0.0933
   67SAPC   C31 5584   5.024   1.616   6.797  0.0850  0.0350 -0.4627
   67SAPC   O32 5585   5.062   1.590   6.684  0.1728  0.4205 -0.1233
   67SAPC   C32 5586   5.017   1.509   6.905 -0.0479  0.1516 -0.7049
   67SAPC   H2X 5587   5.098   1.523   6.980  0.7889  0.1830 -1.6035
   67SAPC   H2Y 5588   5.031   1.416   6.847 -1.4908 -1.7163  1.8517
   67SAPC   C23 5589   4.960   2.011   7.209  0.1275 -0.1242 -0.2658
   67SAPC   H3R 5590   4.853   2.013   7.181 -0.1903  0.5152  0.9924
   67SAPC   H3S 5591   4.992   2.056   7.305  2.5225  1.0804 -1.5771
   67SAPC   C24 5592   4.982   1.854   7.217  0.7216 -0.0643  0.2631
   67SAPC   H4R 5593   4.969   1.810   7.116 -0.8642  1.9132 -0.4351
   67SAPC   H4S 5594   4.904   1.821   7.289 -0.1901 -1.9788 -1.5859
   67SAPC   C25 5595   5.125   1.818   7.266  0.6323  0.0023  0.1755
   67SAPC   H5R 5596   5.201   1.793   7.191 -0.4031 -1.8632 -0.2982
   67SAPC   C26 5597   5.167   1.825   7.393 -0.4511  0.0521 -0.3110
   67SAPC   H6R 5598   5.269   1.792   7.417  0.0731  2.5374  1.0472
   67SAPC   C27 5599   5.086   1.866   7.516  0.1046 -0.3914 -0.6481
   67SAPC   H7R 5600   4.983   1.886   7.479 -0.0189 -1.7428 -1.0708
   67SAPC   H7S 5601   5.122   1.967   7.544 -1.3824  0.1942 -0.8201
   67SAPC   C28 5602   5.105   1.777   7.638  0.6642 -0.0751  0.3831
   67SAPC   H8R 5603   5.182   1.699   7.622  0.8051  0.0438  0.4805
   67SAPC   C29 5604   5.028   1.782   7.743  0.2510  0.1466 -0.5425
   67SAPC   H9R 5605   5.048   1.720   7.832 -0.7272  0.8966  0.2096
   67SAPC  C210 5606   4.914   1.875   7.757 -0.2824 -0.8671  0.4454
   67SAPC  H10R 5607   4.851   1.865   7.666 -0.2381  0.5269  0.2397
   67SAPC  H10S 5608   4.945   1.981   7.741  1.7931 -1.4978  0.2001
   67SAPC  C211 5609   4.827   1.867   7.875  0.6064  0.0531  0.2106
   67SAPC  H11R 5610   4.734   1.810   7.858  1.3698 -1.6197  1.4887
   67SAPC  C212 5611   4.845   1.911   8.001 -0.0633 -0.0024 -0.3481
   67SAPC  H12R 5612   4.765   1.909   8.076  1.7495 -0.1209  1.5966
   67SAPC  C213 5613   4.966   1.983   8.051  0.2486 -0.2661 -0.4431
   67SAPC  H13R 5614   5.042   1.954   7.976 -0.0436 -0.7334 -0.5614
   67SAPC  H13S 5615   4.993   1.936   8.148 -0.7301 -2.5584 -1.2593
   67SAPC  C214 5616   4.945   2.137   8.038  0.0202 -0.0412  0.3565
   67SAPC  H14R 5617   4.955   2.168   7.932  0.6301 -1.1770  0.0783
   67SAPC  C215 5618   4.948   2.221   8.135  0.2441 -0.1628  0.2054
   67SAPC  H15R 5619   4.934   2.327   8.109 -3.1117 -0.8511 -1.0786
   67SAPC  C216 5620   4.968   2.201   8.279 -0.4733 -0.5395  0.3523
   67SAPC  H16R 5621   4.992   2.096   8.306 -0.5594 -0.4032  0.9686
   67SAPC  H16S 5622   4.869   2.226   8.324 -1.1209  3.0934 -2.8220
   67SAPC  C217 5623   5.069   2.297   8.351 -0.2466  0.6062  0.0344
   67SAPC  H17R 5624   5.051   2.272   8.458  3.0295  2.4810  1.0990
   67SAPC  H17S 5625   5.034   2.402   8.341 -1.8577  0.0872 -0.0670
   67SAPC  C218 5626   5.213   2.268   8.312 -0.0703 -0.2769  0.6508
   67SAPC  H18R 5627   5.219   2.290   8.204  1.3421  1.1958  1.0193
   67SAPC  H18S 5628   5.240   2.161   8.326 -1.7180 -0.7384  0.4147
   67SAPC  C219 5629   5.329   2.351   8.384  0.0893 -0.7735 -0.7183
   67SAPC  H19R 5630   5.307   2.337   8.492  1.7253  2.1376  0.0465
   67SAPC  H19S 5631   5.321   2.462   8.385  0.0748 -0.7752 -0.6417
   67SAPC  C220 5632   5.471   2.297   8.358  0.2849 -0.0415 -0.8799
   67SAPC  H20R 5633   5.483   2.205   8.419  1.0314  1.9758  2.1186
   67SAPC  H20S 5634   5.558   2.359   8.387  0.2065 -0.8854  1.2668
   67SAPC  H20T 5635   5.483   2.272   8.251 -0.0030  0.2852 -0.9887
   67SAPC   C33 5636   4.887   1.512   6.986  0.3875  0.2755  0.0235
   67SAPC   H3X 5637   4.793   1.495   6.930 -0.6041  2.0593  1.0983
   67SAPC   H3Y 5638   4.884   1.614   7.030  0.2583 -0.4200  1.6839
   67SAPC   C34 5639   4.896   1.429   7.114  0.2801  0.8611  0.4145
   67SAPC   H4X 5640   4.811   1.454   7.182 -0.2454  1.1632 -0.3383
   67SAPC   H4Y 5641   4.995   1.448   7.159 -0.2514  1.4491  1.3457
   67SAPC   C35 5642   4.880   1.279   7.088 -0.3041 -0.1098  0.3873
   67SAPC   H5X 5643   4.965   1.230   7.035 -1.6876 -1.2635 -0.8437
   67SAPC   H5Y 5644   4.791   1.261   7.024  1.4469  0.4986 -2.3023
   67SAPC   C36 5645   4.845   1.210   7.227 -0.0813  0.4238  0.3624
   67SAPC   H6X 5646   4.817   1.104   7.206 -1.0733  1.0999 -1.8982
   67SAPC   H6Y 5647   4.763   1.271   7.270 -0.6058  0.3394 -0.4978
   67SAPC   C37 5648   4.964   1.210   7.327  0.3144  0.0590 -0.1308
   67SAPC   H7X 5649   4.955   1.312   7.372  0.3311 -0.7464  1.7240
   67SAPC   H7Y 5650   5.067   1.200   7.286  0.6965  1.6802  0.3508
   67SAPC   C38 5651   4.949   1.093   7.425  0.4025 -0.3219  0.4637
   67SAPC   H8X 5652   4.953   0.996   7.371 -0.3602  0.3140 -0.7704
   67SAPC   H8Y 5653   4.855   1.111   7.481  0.7980  0.5508  0.8588
   67SAPC   C39 5654   5.060   1.117   7.541 -1.0456  0.0556 -0.0615
   67SAPC   H9X 5655   5.048   1.219   7.581  1.7554 -0.2103  1.5642
   67SAPC   H9Y 5656   5.162   1.120   7.496 -1.1879  0.1325 -0.3780
   67SAPC  C310 5657   5.080   1.009   7.649  0.5696 -0.3429  0.7502
   67SAPC  H10X 5658   5.099   0.910   7.601 -1.4821 -0.7192  0.6585
   67SAPC  H10Y 5659   4.983   0.982   7.696 -1.3777  1.0046 -2.3032
   67SAPC  C311 5660   5.198   1.036   7.748 -0.2416  0.2031 -0.7059
   67SAPC  H11X 5661   5.189   1.129   7.809 -2.5818  1.1809 -2.4390
   67SAPC  H11Y 5662   5.289   1.033   7.685  0.3788 -0.5303  0.2110
   67SAPC  C312 5663   5.204   0.910   7.837 -0.4955 -0.7298 -0.9980
   67SAPC  H12X 5664   5.313   0.891   7.850 -0.3471  0.4218 -0.5495
   67SAPC  H12Y 5665   5.179   0.816   7.782  2.2204 -1.6397 -0.8062
   67SAPC  C313 5666   5.121   0.915   7.964  0.1189  0.7570  0.1172
   67SAPC  H13X 5667   5.017   0.931   7.928 -0.6084 -1.4607  1.1188
   67SAPC  H13Y 5668   5.148   1.007   8.020 -1.3946  0.6624  1.0605
   67SAPC  C314 5669   5.124   0.793   8.056  0.6349  0.2531 -0.9651
   67SAPC  H14X 5670   5.229   0.761   8.065  0.7175  0.5803 -0.7488
   67SAPC  H14Y 5671   5.068   0.705   8.016  0.9577 -1.0251  1.3037
   67SAPC  C315 5672   5.058   0.821   8.199  0.3212  0.3964 -0.3213
   67SAPC  H15X 5673   4.947   0.824   8.205  0.3283 -0.7167  0.4895
   67SAPC  H15Y 5674   5.083   0.926   8.225  0.3763  0.1449  0.6439
   67SAPC  C316 5675   5.114   0.730   8.309 -0.2959  0.4797 -0.8740
   67SAPC  H16X 5676   5.224   0.717   8.316 -0.5521 -1.9614 -0.7308
   67SAPC  H16Y 5677   5.084   0.626   8.283  1.1839 -0.1288 -0.2340
   67SAPC  C317 5678   5.064   0.775   8.450  0.1918  0.2530  0.7654
   67SAPC  H17X 5679   5.079   0.689   8.518 -0.1193  0.5052  1.1598
   67SAPC  H17Y 5680   4.955   0.791   8.435 -0.0230 -1.9788 -0.1486
   67SAPC  C318 5681   5.123   0.907   8.512  0.3752 -0.1238 -0.0579
   67SAPC  H18X 5682   5.230   0.918   8.482  0.5807 -2.3469 -0.2809
   67SAPC  H18Y 5683   5.113   0.907   8.623 -0.0345  1.7050 -0.0855
   67SAPC  H18Z 5684   5.061   0.992   8.477 -0.2208 -0.4867  0.1038
   68SAPC     N 5685   2.537   1.760   6.175  0.6996  0.1182  0.2562
   68SAPC   C12 5686   2.508   1.678   6.302 -0.6355  0.1163 -0.4464
   68SAPC  H12A 5687   2.430   1.737   6.347 -0.4406  0.3196 -0.3728
   68SAPC  H12B 5688   2.595   1.678   6.366 -0.0745 -0.2682 -1.2032
   68SAPC   C13 5689   2.419   1.763   6.083  0.3868 -0.4237 -0.2782
   68SAPC  H13A 5690   2.368   1.668   6.086  1.9984 -1.3085 -0.4764
   68SAPC  H13B 5691   2.343   1.832   6.117 -1.4399 -1.5320 -2.0347
   68SAPC  H13C 5692   2.448   1.797   5.985 -2.3612 -0.7471 -1.2411
   68SAPC   C14 5693   2.581   1.907   6.198 -0.6207  0.8493 -0.1224
   68SAPC  H14A 5694   2.495   1.967   6.227 -0.7947  1.3549 -1.6229
   68SAPC  H14B 5695   2.654   1.918   6.277 -0.9466  0.7517  0.1947
   68SAPC  H14C 5696   2.616   1.945   6.103 -0.3626 -3.0260 -1.6706
   68SAPC   C15 5697   2.642   1.693   6.094 -0.2832  1.0342 -0.2520
   68SAPC  H15A 5698   2.742   1.707   6.130  0.1659 -2.5132  0.1011
   68SAPC  H15B 5699   2.628   1.586   6.102  0.3066  1.2022  4.3615
   68SAPC  H15C 5700   2.645   1.725   5.991  0.9039  1.5041 -0.0719
   68SAPC   C11 5701   2.446   1.538   6.298  0.4087 -0.4401  0.2783
   68SAPC  H11A 5702   2.358   1.551   6.231  0.1321  1.7845  1.0294
   68SAPC  H11B 5703   2.412   1.508   6.400 -1.0606 -1.8536 -0.5839
   68SAPC     P 5704   2.658   1.397   6.339  0.1016  0.1440  0.1848
   68SAPC   O13 5705   2.766   1.411   6.243 -0.0067 -0.3234  0.4435
   68SAPC   O14 5706   2.670   1.460   6.474  0.3353 -0.5268  0.7551
   68SAPC   O12 5707   2.527   1.439   6.262 -0.3880  0.2263  0.5403
   68SAPC   O11 5708   2.628   1.244   6.366 -0.8376 -0.3773 -0.0791
   68SAPC    C1 5709   2.689   1.140   6.291 -0.0389 -0.0845  0.7081
   68SAPC    HA 5710   2.618   1.056   6.272 -0.1981  0.2231 -0.0889
   68SAPC    HB 5711   2.724   1.181   6.194 -2.0404 -1.0537 -0.4506
   68SAPC    C2 5712   2.812   1.075   6.366 -0.5790  0.3842  0.3835
   68SAPC    HS 5713   2.852   0.989   6.307  2.7488  1.2436  1.2940
   68SAPC   O21 5714   2.775   1.033   6.505 -0.3990 -0.6965  0.5488
   68SAPC   C21 5715   2.716   0.918   6.507 -0.2274  0.2057  0.8021
   68SAPC   O22 5716   2.690   0.854   6.404  0.6865 -0.0021 -0.1043
   68SAPC   C22 5717   2.696   0.859   6.652 -0.4960 -0.5282  0.7115
   68SAPC   H2R 5718   2.601   0.900   6.692 -0.0545  0.8127  0.4257
   68SAPC   H2S 5719   2.679   0.750   6.644 -0.2207 -0.5834  0.8615
   68SAPC    C3 5720   2.934   1.169   6.379 -0.1371  0.0408  0.1897
   68SAPC    HX 5721   2.908   1.275   6.403  0.0050 -0.1961  1.4110
   68SAPC    HY 5722   2.969   1.188   6.275  2.2541  0.4498  1.0292
   68SAPC   O31 5723   3.050   1.106   6.450  0.3746 -0.6147  0.4299
   68SAPC   C31 5724   3.057   1.153   6.574  0.5891  0.6617 -0.5838
   68SAPC   O32 5725   2.984   1.236   6.620 -0.1271 -0.1280  0.3150
   68SAPC   C32 5726   3.174   1.083   6.653  0.6499  0.1366 -0.2580
   68SAPC   H2X 5727   3.249   1.066   6.573 -0.6287 -1.2833 -1.2112
   68SAPC   H2Y 5728   3.147   0.984   6.697 -0.4016  1.2171  1.5993
   68SAPC   C23 5729   2.817   0.895   6.731  0.2479 -0.4859 -0.1557
   68SAPC   H3R 5730   2.832   1.005   6.730 -4.3916  0.2386 -1.8114
   68SAPC   H3S 5731   2.918   0.857   6.704 -0.2694 -1.3291 -0.9089
   68SAPC   C24 5732   2.793   0.845   6.882  0.1094 -0.5378  0.4146
   68SAPC   H4R 5733   2.686   0.853   6.910  0.1035 -1.7893  0.7825
   68SAPC   H4S 5734   2.857   0.907   6.948  0.6350 -2.4267  1.7274
   68SAPC   C25 5735   2.823   0.700   6.900  0.5859  0.4212  0.3930
   68SAPC   H5R 5736   2.743   0.636   6.860  0.8857 -0.7588  1.6555
   68SAPC   C26 5737   2.942   0.653   6.951 -0.1239  0.3664  0.0890
   68SAPC   H6R 5738   2.948   0.545   6.972 -3.7012  0.0168 -0.3222
   68SAPC   C27 5739   3.054   0.739   7.002 -0.1363  0.0534 -0.0637
   68SAPC   H7R 5740   3.055   0.836   6.948 -2.7642  0.0837 -0.1079
   68SAPC   H7S 5741   3.152   0.692   6.979  0.2961  0.4760  0.9024
   68SAPC   C28 5742   3.040   0.756   7.151  0.4591  0.0678 -0.6933
   68SAPC   H8R 5743   2.936   0.757   7.185  0.6747  0.2108 -0.0320
   68SAPC   C29 5744   3.130   0.761   7.253 -0.5125  0.3762  0.0814
   68SAPC   H9R 5745   3.088   0.768   7.354  2.2123  0.4478  1.2462
   68SAPC  C210 5746   3.281   0.753   7.249  0.1447  0.1050  0.3717
   68SAPC  H10R 5747   3.318   0.855   7.226 -0.5836  0.2429 -0.2375
   68SAPC  H10S 5748   3.299   0.696   7.155 -0.3579 -0.4135  0.5834
   68SAPC  C211 5749   3.358   0.708   7.374  0.5204  0.1346  0.0962
   68SAPC  H11R 5750   3.408   0.613   7.350  1.0774  0.9382 -2.0822
   68SAPC  C212 5751   3.370   0.770   7.496  0.3521 -0.2393 -0.7637
   68SAPC  H12R 5752   3.415   0.716   7.581 -1.5519  1.4339  1.3880
   68SAPC  C213 5753   3.304   0.904   7.530  0.1989  0.3861 -0.0414
   68SAPC  H13R 5754   3.211   0.917   7.471 -0.2481 -0.9586  0.3427
   68SAPC  H13S 5755   3.366   0.993   7.506  0.8704  0.1683  0.8471
   68SAPC  C214 5756   3.256   0.897   7.677 -0.5055 -0.0417 -0.2129
   68SAPC  H14R 5757   3.149   0.901   7.700 -0.3592  0.8214  0.3367
   68SAPC  C215 5758   3.335   0.916   7.786 -0.1280  0.3202 -1.0720
   68SAPC  H15R 5759   3.297   0.912   7.889  1.7934  1.3920 -0.2967
   68SAPC  C216 5760   3.482   0.928   7.780  0.3912  0.5693  0.0065
   68SAPC  H16R 5761   3.510   1.036   7.783  0.9990  0.4840 -2.2818
   68SAPC  H16S 5762   3.531   0.897   7.685 -2.5741  1.9015 -2.0043
   68SAPC  C217 5763   3.549   0.838   7.886  0.1157  0.3626  0.3883
   68SAPC  H17R 5764   3.660   0.829   7.884  0.0735  0.0628 -0.8230
   68SAPC  H17S 5765   3.497   0.741   7.875  0.9751 -0.0758  0.1310
   68SAPC  C218 5766   3.514   0.889   8.025 -0.8892  0.0120 -0.5159
   68SAPC  H18R 5767   3.405   0.906   8.040 -0.3998  2.7476  0.1978
   68SAPC  H18S 5768   3.566   0.986   8.038  2.6579 -1.7582 -1.0673
   68SAPC  C219 5769   3.564   0.800   8.138 -1.3995  0.9264  0.1179
   68SAPC  H19R 5770   3.669   0.783   8.106 -1.4332  1.9973 -0.5962
   68SAPC  H19S 5771   3.524   0.696   8.131 -1.5133  1.1036 -2.0749
   68SAPC  C220 5772   3.562   0.857   8.286  0.1978  0.1155 -0.0201
   68SAPC  H20R 5773   3.592   0.778   8.358  1.6332  0.4170 -0.2723
   68SAPC  H20S 5774   3.460   0.891   8.313  0.1809 -0.9587  1.3231
   68SAPC  H20T 5775   3.630   0.945   8.300  2.3555 -1.3561 -0.9644
   68SAPC   C33 5776   3.246   1.159   6.769  1.0098 -0.0062  0.2783
   68SAPC   H3X 5777   3.276   1.263   6.744 -0.6703  1.0934  2.6180
   68SAPC   H3Y 5778   3.340   1.102   6.784 -0.4377 -1.3896  5.1170
   68SAPC   C34 5779   3.157   1.162   6.893  0.2894  0.1260  0.4269
   68SAPC   H4X 5780   3.138   1.054   6.910  4.8719 -1.1038 -1.4605
   68SAPC   H4Y 5781   3.063   1.213   6.863 -0.3373 -1.7476 -0.8471
   68SAPC   C35 5782   3.228   1.227   7.010  0.2240 -0.3796 -0.5739
   68SAPC   H5X 5783   3.283   1.319   6.980  0.4360 -0.3982 -0.2442
   68SAPC   H5Y 5784   3.311   1.165   7.049 -0.4689 -1.5275 -0.9037
   68SAPC   C36 5785   3.150   1.273   7.138 -1.2314  1.0942 -0.3251
   68SAPC   H6X 5786   3.085   1.190   7.173 -2.6218  2.6111  0.7528
   68SAPC   H6Y 5787   3.085   1.357   7.109 -1.0175  1.1248 -0.7196
   68SAPC   C37 5788   3.244   1.324   7.252 -0.6673  0.0059  0.2543
   68SAPC   H7X 5789   3.306   1.404   7.206  0.0262 -0.8696 -0.3497
   68SAPC   H7Y 5790   3.320   1.249   7.280 -0.2556  0.2424 -0.2184
   68SAPC   C38 5791   3.173   1.386   7.370  0.4982 -0.1013 -0.1164
   68SAPC   H8X 5792   3.101   1.316   7.417 -0.0626  0.9577  0.6224
   68SAPC   H8Y 5793   3.118   1.475   7.334  1.8966  1.2657  1.0547
   68SAPC   C39 5794   3.268   1.427   7.484 -0.9029 -0.1771 -1.0801
   68SAPC   H9X 5795   3.346   1.489   7.435  0.1121  0.0349  0.7570
   68SAPC   H9Y 5796   3.319   1.341   7.533 -0.2837  2.0275  2.3144
   68SAPC  C310 5797   3.200   1.512   7.594 -0.2472  0.1735  0.4065
   68SAPC  H10X 5798   3.166   1.603   7.540 -1.4656 -0.4441  0.1190
   68SAPC  H10Y 5799   3.279   1.538   7.667  0.4794 -0.4017 -0.1606
   68SAPC  C311 5800   3.090   1.451   7.670  0.7493 -0.1279 -0.2296
   68SAPC  H11X 5801   3.010   1.414   7.602  1.6082  2.0921 -2.5679
   68SAPC  H11Y 5802   3.047   1.532   7.733  1.4332 -0.0367  0.1195
   68SAPC  C312 5803   3.129   1.350   7.775  0.4346  0.4622 -0.4463
   68SAPC  H12X 5804   3.230   1.373   7.813  0.5488 -0.9271  0.1030
   68SAPC  H12Y 5805   3.131   1.255   7.718 -0.6223  0.3346 -0.2812
   68SAPC  C313 5806   3.022   1.349   7.890 -0.6959 -0.2765  0.8646
   68SAPC  H13X 5807   2.923   1.328   7.845 -0.8026 -0.9829  1.4143
   68SAPC  H13Y 5808   3.005   1.440   7.952  2.2392  1.1692 -0.3531
   68SAPC  C314 5809   3.065   1.250   7.998 -0.4057 -0.4304 -0.4975
   68SAPC  H14X 5810   3.063   1.142   7.971  0.3956 -0.4076 -0.6693
   68SAPC  H14Y 5811   2.997   1.254   8.085  0.7317 -0.5668  0.4211
   68SAPC  C315 5812   3.210   1.269   8.051 -0.0362  0.6368  0.6816
   68SAPC  H15X 5813   3.282   1.247   7.969 -2.1015  1.0849 -1.3017
   68SAPC  H15Y 5814   3.224   1.191   8.129 -0.8096 -1.0755 -0.8533
   68SAPC  C316 5815   3.240   1.406   8.101 -0.1652  0.0205  0.3049
   68SAPC  H16X 5816   3.256   1.468   8.009 -0.6246  0.8951  0.8100
   68SAPC  H16Y 5817   3.341   1.408   8.148 -0.3361 -1.8083  0.7862
   68SAPC  C317 5818   3.137   1.475   8.199 -0.4716  0.2564  0.1974
   68SAPC  H17X 5819   3.039   1.473   8.146  0.6829  1.3940 -2.0693
   68SAPC  H17Y 5820   3.175   1.579   8.211  2.7783 -0.8132 -0.2998
   68SAPC  C318 5821   3.115   1.408   8.336 -0.9582  0.3943 -0.1036
   68SAPC  H18X 5822   3.220   1.402   8.372 -1.1286 -1.5649  0.0947
   68SAPC  H18Y 5823   3.085   1.302   8.327  1.5684 -0.3903  0.3813
   68SAPC  H18Z 5824   3.032   1.456   8.392 -0.4163 -0.0957  1.1430
   69SLPC     N 5825   1.073   6.347  10.787 -0.1349  0.1495  0.3505
   69SLPC   C13 5826   1.195   6.398  10.861 -0.0525  0.2542 -0.1457
   69SLPC  H13A 5827   1.194   6.377  10.967 -1.2820 -0.3661 -0.2707
   69SLPC  H13B 5828   1.283   6.346  10.826  0.1301  0.8970 -0.6502
   69SLPC  H13C 5829   1.212   6.503  10.843  0.8269  0.1305 -0.0462
   69SLPC   C14 5830   1.065   6.197  10.798  0.5370  0.2710  0.2887
   69SLPC  H14A 5831   1.030   6.165  10.895  0.2131 -1.1472 -0.2840
   69SLPC  H14B 5832   0.992   6.153  10.733  1.6726  0.1211 -0.9012
   69SLPC  H14C 5833   1.163   6.153  10.785  1.0251  1.7079 -1.0756
   69SLPC   C15 5834   1.076   6.372  10.637 -0.6361 -0.1336 -0.3021
   69SLPC  H15A 5835   1.066   6.478  10.621  1.7592  0.2065  0.2445
   69SLPC  H15B 5836   1.165   6.329  10.593 -0.6041  0.4430 -0.8095
   69SLPC  H15C 5837   0.993   6.324  10.588 -0.2754  0.7553 -1.8188
   69SLPC   C12 5838   0.949   6.422  10.842 -0.6830 -0.3428  0.2477
   69SLPC  H12A 5839   0.865   6.405  10.776 -1.2998  2.6325  0.2107
   69SLPC  H12B 5840   0.972   6.526  10.826  1.2063 -0.9671 -1.3186
   69SLPC   C11 5841   0.915   6.397  10.984 -0.0089 -0.2245 -0.0071
   69SLPC  H11A 5842   0.997   6.424  11.054 -1.0017  0.9322  0.7209
   69SLPC  H11B 5843   0.891   6.289  11.000 -0.3060 -0.3725 -1.3940
   69SLPC     P 5844   0.655   6.440  10.993 -0.0438  0.0006  0.3300
   69SLPC   O13 5845   0.633   6.309  11.061 -0.1933 -0.6022 -0.5167
   69SLPC   O14 5846   0.567   6.554  11.036  0.1104 -0.3999 -0.3596
   69SLPC   O12 5847   0.805   6.485  11.010  0.3966 -0.0246  0.2915
   69SLPC   O11 5848   0.634   6.415  10.840  0.3849 -0.1784 -0.0215
   69SLPC    C1 5849   0.505   6.377  10.785 -0.1166  0.0162  0.0040
   69SLPC    HA 5850   0.457   6.298  10.847  2.7362 -1.8129 -0.0472
   69SLPC    HB 5851   0.444   6.469  10.776  0.0778  0.0720 -0.7631
   69SLPC    C2 5852   0.512   6.325  10.640 -0.3091 -0.1620 -0.0842
   69SLPC    HS 5853   0.569   6.230  10.629 -0.2869 -0.2256  0.5740
   69SLPC   O21 5854   0.555   6.438  10.557 -0.3283  0.4674  0.3797
   69SLPC   C21 5855   0.686   6.446  10.532  0.4618 -0.0770  0.2301
   69SLPC   O22 5856   0.775   6.376  10.577 -0.4516  0.0475 -0.1375
   69SLPC   C22 5857   0.697   6.532  10.407 -0.3545 -0.2175  0.3830
   69SLPC   H2R 5858   0.597   6.536  10.358 -0.5834 -0.9769  0.7862
   69SLPC   H2S 5859   0.704   6.638  10.439 -2.5587 -0.4172  1.6086
   69SLPC    C3 5860   0.375   6.271  10.576 -0.0830 -1.4360  0.3795
   69SLPC    HX 5861   0.305   6.355  10.597 -0.1426 -1.6771  1.1311
   69SLPC    HY 5862   0.345   6.176  10.623 -1.6732 -0.7045  0.8690
   69SLPC   O31 5863   0.393   6.269  10.432 -0.4312 -0.5601  0.0790
   69SLPC   C31 5864   0.469   6.169  10.390  0.0367  0.3453 -0.2499
   69SLPC   O32 5865   0.513   6.076  10.455  0.2783 -0.0496  0.3568
   69SLPC   C32 5866   0.511   6.188  10.241 -0.7050 -0.7770  0.9850
   69SLPC   H2X 5867   0.614   6.148  10.231  0.2564  1.1585  2.8415
   69SLPC   H2Y 5868   0.519   6.297  10.224 -2.1839 -0.8646 -0.4728
   69SLPC   C23 5869   0.806   6.472  10.303  0.4051  0.1655  0.4599
   69SLPC   H3R 5870   0.768   6.372  10.275  0.8223 -0.1650  1.0446
   69SLPC   H3S 5871   0.910   6.457  10.340  0.5284  0.5155  0.2587
   69SLPC   C24 5872   0.808   6.567  10.181  0.2586 -0.7878  0.3198
   69SLPC   H4R 5873   0.897   6.546  10.117 -0.3376  2.2581 -1.6481
   69SLPC   H4S 5874   0.800   6.675  10.207 -0.6588 -0.9621  0.7709
   69SLPC   C25 5875   0.692   6.553  10.087 -0.3437  0.2023 -0.0896
   69SLPC   H5R 5876   0.594   6.588  10.125  0.7368  2.2716  0.8684
   69SLPC   H5S 5877   0.691   6.443  10.071  0.9984 -0.0334  1.3309
   69SLPC   C26 5878   0.722   6.625   9.954  0.2334  0.2209 -0.0665
   69SLPC   H6R 5879   0.827   6.614   9.919 -0.0108 -1.9150 -0.1842
   69SLPC   H6S 5880   0.696   6.733   9.961  1.8437  0.6157 -0.0253
   69SLPC   C27 5881   0.634   6.568   9.839  0.6752 -0.5150 -0.9832
   69SLPC   H7R 5882   0.530   6.600   9.864  1.8539  0.9929  2.3575
   69SLPC   H7S 5883   0.633   6.457   9.841 -0.7542 -0.5047  0.9144
   69SLPC   C28 5884   0.656   6.631   9.694  0.0279  0.5082  0.0669
   69SLPC   H8R 5885   0.688   6.735   9.719 -0.8483  0.3275  2.0477
   69SLPC   H8S 5886   0.557   6.635   9.644  0.0094 -1.1674 -0.0515
   69SLPC   C29 5887   0.765   6.567   9.609  0.4677  0.2909 -0.0739
   69SLPC   H9R 5888   0.867   6.557   9.650  0.0812 -1.2583  0.5457
   69SLPC  C210 5889   0.758   6.561   9.477  0.1512  0.0092 -0.0341
   69SLPC  H10R 5890   0.842   6.523   9.417  0.5215  1.4213 -0.4307
   69SLPC  C211 5891   0.634   6.589   9.389  0.4901 -0.0347 -0.2733
   69SLPC  H11R 5892   0.574   6.672   9.431 -0.8389 -1.6910  1.1302
   69SLPC  H11S 5893   0.569   6.499   9.390 -2.7159  2.2197  0.0642
   69SLPC  C212 5894   0.675   6.624   9.247 -0.2959 -0.0997 -0.3021
   69SLPC  H12R 5895   0.726   6.721   9.235 -0.5516 -0.0429 -0.9616
   69SLPC  C213 5896   0.652   6.549   9.136 -0.0944 -0.0446 -0.5156
   69SLPC  H13R 5897   0.700   6.579   9.042  0.9197 -1.0913 -0.3471
   69SLPC  C214 5898   0.578   6.419   9.116 -0.0735 -0.2990  0.6261
   69SLPC  H14R 5899   0.474   6.437   9.080 -0.3439 -0.5438  1.2747
   69SLPC  H14S 5900   0.571   6.364   9.212 -0.6114 -1.5160 -0.1022
   69SLPC  C215 5901   0.653   6.326   9.019 -0.0210  0.1894  0.6589
   69SLPC  H15R 5902   0.583   6.240   9.014 -2.1096  1.9615 -1.4503
   69SLPC  H15S 5903   0.749   6.286   9.057 -0.0908 -0.7141 -0.1192
   69SLPC  C216 5904   0.664   6.371   8.874  0.5455 -0.4267  0.8930
   69SLPC  H16R 5905   0.730   6.460   8.877  2.4685 -1.8610  2.4930
   69SLPC  H16S 5906   0.562   6.409   8.851 -0.0884 -1.4014  1.9817
   69SLPC  C217 5907   0.723   6.265   8.778  0.3275 -0.5076  0.8977
   69SLPC  H17R 5908   0.822   6.236   8.819  0.0640 -2.5141  0.1492
   69SLPC  H17S 5909   0.735   6.302   8.674  0.9006  0.2668  1.2364
   69SLPC  C218 5910   0.631   6.144   8.763  0.2437  0.1823 -0.1253
   69SLPC  H18R 5911   0.534   6.164   8.713 -0.2761 -1.7062  0.0782
   69SLPC  H18S 5912   0.604   6.103   8.863 -0.2056  0.4672 -0.1299
   69SLPC  H18T 5913   0.684   6.058   8.717  0.4613 -0.5260  1.4064
   69SLPC   C33 5914   0.408   6.134  10.133  0.0645 -0.2850 -0.5364
   69SLPC   H3X 5915   0.304   6.170  10.149  0.4829  0.2371  1.0797
   69SLPC   H3Y 5916   0.408   6.024  10.145  2.1104 -0.4875 -2.0554
   69SLPC   C34 5917   0.452   6.170   9.987  0.0202  0.7373 -0.6782
   69SLPC   H4X 5918   0.557   6.136   9.973 -1.0856 -2.3939 -1.8739
   69SLPC   H4Y 5919   0.451   6.280   9.971 -2.7255  1.1227  1.7411
   69SLPC   C35 5920   0.366   6.102   9.874  0.3437 -0.5994  0.0373
   69SLPC   H5X 5921   0.270   6.156   9.883  0.3616 -0.4782 -0.5259
   69SLPC   H5Y 5922   0.345   5.998   9.906  0.8920 -0.4540  0.9159
   69SLPC   C36 5923   0.414   6.136   9.734  0.2165 -0.0106  0.4944
   69SLPC   H6X 5924   0.484   6.055   9.701 -1.9656 -1.7768  0.0521
   69SLPC   H6Y 5925   0.469   6.232   9.746  0.2414  0.1913 -1.0614
   69SLPC   C37 5926   0.310   6.134   9.620  0.4464 -0.6332  0.0078
   69SLPC   H7X 5927   0.235   6.206   9.659  0.3537 -0.4293 -0.5427
   69SLPC   H7Y 5928   0.265   6.032   9.624 -0.6301 -0.2916 -2.6267
   69SLPC   C38 5929   0.361   6.169   9.483 -0.7927  0.1035  0.6012
   69SLPC   H8X 5930   0.436   6.090   9.460 -0.5048  0.6662 -0.4036
   69SLPC   H8Y 5931   0.418   6.265   9.488  0.4141 -0.4486 -1.6809
   69SLPC   C39 5932   0.237   6.177   9.388  0.0514  0.5381  0.5373
   69SLPC   H9X 5933   0.158   6.241   9.432 -0.9407  0.0127 -0.4660
   69SLPC   H9Y 5934   0.206   6.070   9.389 -1.1490  0.8877  0.6953
   69SLPC  C310 5935   0.276   6.209   9.244  0.7275 -0.1483  0.0687
   69SLPC  H10X 5936   0.365   6.165   9.194 -0.3503 -1.4006 -0.7399
   69SLPC  H10Y 5937   0.318   6.312   9.257 -0.8484  0.4749  0.3680
   69SLPC  C311 5938   0.157   6.225   9.152 -0.5568 -0.0544  0.6982
   69SLPC  H11X 5939   0.097   6.309   9.195  0.1319  0.1933  1.1980
   69SLPC  H11Y 5940   0.090   6.137   9.153 -1.0763  0.3084 -0.5485
   69SLPC  C312 5941   0.188   6.257   9.004  0.2209  0.2756  0.9339
   69SLPC  H12X 5942   0.267   6.191   8.962 -0.0784  0.8026 -0.4725
   69SLPC  H12Y 5943   0.239   6.355   9.001 -0.4572  0.5790 -0.8155
   69SLPC  C313 5944   0.068   6.263   8.916 -0.2747  0.5981 -0.5409
   69SLPC  H13X 5945   0.008   6.344   8.963 -0.0248  1.1319 -1.1413
   69SLPC  H13Y 5946   0.001   6.174   8.912  1.2586 -0.7379  2.0134
   69SLPC  C314 5947   0.100   6.311   8.770  0.1834  0.8749  0.5683
   69SLPC  H14X 5948   0.145   6.412   8.775 -1.2738  1.7714 -2.5083
   69SLPC  H14Y 5949   0.005   6.314   8.711  1.1877  0.4476 -1.0979
   69SLPC  C315 5950   0.194   6.220   8.687 -0.3774  0.3093 -0.3050
   69SLPC  H15X 5951   0.296   6.227   8.731  0.0665  1.3483 -1.4860
   69SLPC  H15Y 5952   0.191   6.261   8.584 -3.1608  0.3551 -0.2327
   69SLPC  C316 5953   0.154   6.071   8.685  0.3462 -0.2742 -0.4660
   69SLPC  H16X 5954   0.044   6.067   8.677  0.2281 -0.7800  1.2859
   69SLPC  H16Y 5955   0.186   6.032   8.784  1.5320  0.4568 -0.5383
   69SLPC  C317 5956   0.228   5.989   8.590 -0.6312  0.7285 -0.1470
   69SLPC  H17X 5957   0.336   5.993   8.617 -1.0809 -0.7055  1.8940
   69SLPC  H17Y 5958   0.218   6.023   8.484 -1.4136  1.5334  0.1834
   69SLPC  C318 5959   0.170   5.844   8.599  0.4830  0.9769 -0.0321
   69SLPC  H18X 5960   0.063   5.849   8.627  0.8770 -0.0373  1.7610
   69SLPC  H18Y 5961   0.220   5.796   8.687  0.7446 -2.0223 -1.7516
   69SLPC  H18Z 5962   0.178   5.788   8.504  2.0989 -1.4741  1.4647
   70SLPC     N 5963   2.242   3.235  10.799  0.2543 -0.5420  0.2316
   70SLPC   C13 5964   2.092   3.268  10.813 -0.1758 -0.8669  0.2576
   70SLPC  H13A 5965   2.081   3.375  10.805 -2.0197 -1.1269 -1.1422
   70SLPC  H13B 5966   2.030   3.224  10.736  2.1227 -3.4772 -0.1713
   70SLPC  H13C 5967   2.054   3.251  10.913 -2.4909  1.4341 -0.1773
   70SLPC   C14 5968   2.287   3.280  10.668  0.0655  0.3409 -0.6821
   70SLPC  H14A 5969   2.236   3.236  10.584 -0.4005  1.7211 -1.1179
   70SLPC  H14B 5970   2.288   3.387  10.655 -0.2816  0.2958 -1.1100
   70SLPC  H14C 5971   2.389   3.249  10.650  0.3980  2.0745 -1.8472
   70SLPC   C15 5972   2.261   3.085  10.814  0.5545  0.5006  0.1514
   70SLPC  H15A 5973   2.184   3.035  10.870  3.3398 -1.5288  2.2986
   70SLPC  H15B 5974   2.259   3.044  10.714 -0.5795  3.3226 -1.0455
   70SLPC  H15C 5975   2.356   3.058  10.857 -1.2314 -3.5784  1.7234
   70SLPC   C12 5976   2.331   3.299  10.910  0.0954 -0.4101 -0.5687
   70SLPC  H12A 5977   2.432   3.279  10.876  0.7352 -0.2556  1.1949
   70SLPC  H12B 5978   2.307   3.248  11.002  1.5644  2.3511  1.4234
   70SLPC   C11 5979   2.313   3.447  10.937  0.3139 -0.4729 -0.7647
   70SLPC  H11A 5980   2.404   3.473  10.995 -0.6713  1.1207  0.1148
   70SLPC  H11B 5981   2.225   3.452  11.005  0.7493  1.4579 -0.3176
   70SLPC     P 5982   2.246   3.663  10.811  0.3478  0.5101  0.7116
   70SLPC   O13 5983   2.109   3.654  10.874  0.0518  0.1438  0.0265
   70SLPC   O14 5984   2.348   3.752  10.872  0.3302 -0.0238 -0.0783
   70SLPC   O12 5985   2.310   3.530  10.812 -0.0325  0.3805 -0.5094
   70SLPC   O11 5986   2.226   3.690  10.654  0.0349 -0.5851  0.1859
   70SLPC    C1 5987   2.173   3.589  10.573  0.1223  0.5001 -0.1384
   70SLPC    HA 5988   2.257   3.525  10.538  0.8316  1.5142 -0.3476
   70SLPC    HB 5989   2.101   3.523  10.625 -0.7817  0.2358 -1.6861
   70SLPC    C2 5990   2.093   3.647  10.454  0.1563  0.2827  0.6477
   70SLPC    HS 5991   2.039   3.564  10.405  0.9541  0.6489 -0.8788
   70SLPC   O21 5992   2.189   3.697  10.353 -0.1447  0.0499 -0.3105
   70SLPC   C21 5993   2.242   3.609  10.273 -0.8667  0.1902  0.0727
   70SLPC   O22 5994   2.229   3.489  10.277 -0.2021 -0.0255  0.3313
   70SLPC   C22 5995   2.328   3.685  10.165  0.6547 -0.5353 -0.4001
   70SLPC   H2R 5996   2.287   3.781  10.125 -1.2478 -0.2536  2.1133
   70SLPC   H2S 5997   2.426   3.713  10.208  0.4573 -2.1429  1.1396
   70SLPC    C3 5998   1.985   3.752  10.483  0.5642 -0.2466  0.4451
   70SLPC    HX 5999   2.044   3.836  10.525 -1.1737 -0.3491  3.1900
   70SLPC    HY 6000   1.911   3.713  10.556  0.5928  0.3274  0.7862
   70SLPC   O31 6001   1.916   3.782  10.348 -0.0242 -0.5101 -0.3924
   70SLPC   C31 6002   1.870   3.906  10.342 -0.2019  0.5996  0.2312
   70SLPC   O32 6003   1.864   3.988  10.434 -0.4413 -0.0674 -0.1381
   70SLPC   C32 6004   1.842   3.934  10.195 -0.6444 -0.2901  0.5070
   70SLPC   H2X 6005   1.894   3.861  10.129 -1.4944 -0.9359  0.5416
   70SLPC   H2Y 6006   1.871   4.036  10.162  0.4350 -0.9765 -0.7100
   70SLPC   C23 6007   2.349   3.585  10.045 -0.1567 -0.3998 -0.4377
   70SLPC   H3R 6008   2.383   3.489  10.088  0.9809  1.0995  2.1501
   70SLPC   H3S 6009   2.427   3.623   9.975 -1.5498  1.6435 -0.9260
   70SLPC   C24 6010   2.230   3.571   9.946  0.0916 -0.6469 -0.4481
   70SLPC   H4R 6011   2.176   3.667   9.931 -0.9678 -1.1084  0.3706
   70SLPC   H4S 6012   2.156   3.497   9.983 -0.8243  0.7256  0.4803
   70SLPC   C25 6013   2.281   3.530   9.814 -0.1721 -0.4630  0.1168
   70SLPC   H5R 6014   2.321   3.427   9.825  1.1483  0.0064 -0.2338
   70SLPC   H5S 6015   2.369   3.593   9.787  0.0825 -1.3693 -1.1921
   70SLPC   C26 6016   2.176   3.522   9.697  0.5114 -0.7017 -0.5536
   70SLPC   H6R 6017   2.144   3.625   9.671  1.7744  0.9430  3.9570
   70SLPC   H6S 6018   2.094   3.470   9.752 -0.2031  0.6017 -0.3572
   70SLPC   C27 6019   2.215   3.448   9.562  0.2757 -0.3185 -0.6745
   70SLPC   H7R 6020   2.230   3.340   9.584 -0.4046 -0.3893 -0.5377
   70SLPC   H7S 6021   2.308   3.502   9.534 -1.6734  1.9463 -2.9757
   70SLPC   C28 6022   2.102   3.471   9.457  0.5610  0.3821 -0.9012
   70SLPC   H8R 6023   2.002   3.442   9.497  0.1822  2.0878 -0.5904
   70SLPC   H8S 6024   2.139   3.404   9.376  3.1724  0.8178 -0.1114
   70SLPC   C29 6025   2.094   3.620   9.411  0.6323 -0.4095 -0.0971
   70SLPC   H9R 6026   2.074   3.699   9.485  2.9870 -0.3152  0.4751
   70SLPC  C210 6027   2.110   3.658   9.283  0.7335 -0.4600  0.2318
   70SLPC  H10R 6028   2.123   3.763   9.255 -1.9533 -0.3643 -0.8550
   70SLPC  C211 6029   2.147   3.567   9.167  0.2565  0.1377 -0.0653
   70SLPC  H11R 6030   2.178   3.462   9.187  1.0870  0.3000 -0.4739
   70SLPC  H11S 6031   2.231   3.616   9.114  0.3649  1.6226  1.4110
   70SLPC  C212 6032   2.034   3.556   9.070  0.0146 -1.2982  0.5100
   70SLPC  H12R 6033   1.942   3.611   9.096 -0.2874 -1.7509  0.3939
   70SLPC  C213 6034   2.023   3.491   8.953  0.2604  0.2690  0.3485
   70SLPC  H13R 6035   1.940   3.526   8.890  1.3507  2.3836  0.0180
   70SLPC  C214 6036   2.129   3.407   8.894 -0.4479 -0.0919 -0.4806
   70SLPC  H14R 6037   2.089   3.393   8.791  0.0902 -1.0231 -0.5707
   70SLPC  H14S 6038   2.126   3.309   8.947  2.0516  0.7122  1.2485
   70SLPC  C215 6039   2.278   3.448   8.870 -0.0044  0.4012 -0.2541
   70SLPC  H15R 6040   2.332   3.375   8.806 -0.2962 -0.2699  0.2513
   70SLPC  H15S 6041   2.332   3.435   8.966  0.2791  0.0540 -0.4620
   70SLPC  C216 6042   2.276   3.592   8.814  0.1269 -0.2110  0.3123
   70SLPC  H16R 6043   2.225   3.661   8.885 -1.2547  3.8844 -4.3792
   70SLPC  H16S 6044   2.210   3.589   8.724 -2.0924  0.7812  1.8430
   70SLPC  C217 6045   2.409   3.648   8.777 -0.2579  0.3201 -0.0324
   70SLPC  H17R 6046   2.401   3.733   8.707 -0.5460  0.2168 -0.1233
   70SLPC  H17S 6047   2.470   3.569   8.728  0.5711  1.2549 -0.5351
   70SLPC  C218 6048   2.493   3.711   8.895  0.4867  0.0652 -0.3013
   70SLPC  H18R 6049   2.588   3.748   8.850  1.7809 -0.0261  2.3096
   70SLPC  H18S 6050   2.515   3.639   8.977  0.2332  0.3249 -0.0095
   70SLPC  H18T 6051   2.439   3.799   8.935 -1.4526 -1.3059  0.1698
   70SLPC   C33 6052   1.694   3.915  10.157 -0.7429  0.0583  0.4540
   70SLPC   H3X 6053   1.647   3.814  10.169 -0.6812 -0.1865 -1.2674
   70SLPC   H3Y 6054   1.693   3.940  10.049  1.8066  0.8083  0.5802
   70SLPC   C34 6055   1.597   4.019  10.210  0.6837  0.3318  0.2368
   70SLPC   H4X 6056   1.606   4.127  10.184  0.3975  0.3001  0.0077
   70SLPC   H4Y 6057   1.618   4.018  10.319  2.2308  0.0290 -0.0509
   70SLPC   C35 6058   1.440   3.990  10.207 -0.0602  0.1986  0.1276
   70SLPC   H5X 6059   1.380   4.079  10.236 -0.1295  0.9284 -2.1443
   70SLPC   H5Y 6060   1.415   3.913  10.283  1.7976  0.1326  0.6995
   70SLPC   C36 6061   1.385   3.931  10.076  0.1928  0.0410 -0.0815
   70SLPC   H6X 6062   1.463   3.863  10.038 -1.0353 -2.1431  1.2080
   70SLPC   H6Y 6063   1.358   4.005   9.997  1.0337 -0.2096 -0.6054
   70SLPC   C37 6064   1.266   3.836  10.100 -0.1306 -0.0003  0.1564
   70SLPC   H7X 6065   1.176   3.889  10.138 -0.0617 -0.7743  1.4464
   70SLPC   H7Y 6066   1.284   3.754  10.172 -0.2742  1.0968  1.4670
   70SLPC   C38 6067   1.217   3.773   9.964 -0.5316  0.3012 -0.1062
   70SLPC   H8X 6068   1.211   3.853   9.887 -0.3792  1.2158  0.8377
   70SLPC   H8Y 6069   1.114   3.733   9.980  0.2573 -1.3845  0.8526
   70SLPC   C39 6070   1.319   3.680   9.906  0.2859 -0.9164  0.1116
   70SLPC   H9X 6071   1.353   3.611   9.986  0.0727  0.7138  1.6446
   70SLPC   H9Y 6072   1.404   3.725   9.850 -1.2063  1.9730  0.0838
   70SLPC  C310 6073   1.259   3.589   9.794 -0.3212  0.4931 -0.4097
   70SLPC  H10X 6074   1.171   3.533   9.832  0.4321 -0.6149 -0.2654
   70SLPC  H10Y 6075   1.332   3.508   9.771 -2.1995 -0.6050 -2.7397
   70SLPC  C311 6076   1.223   3.651   9.656 -0.0434  0.9872  0.0516
   70SLPC  H11X 6077   1.315   3.710   9.635  0.6835  0.1809  0.9574
   70SLPC  H11Y 6078   1.138   3.719   9.681 -0.4812  0.5793 -0.3246
   70SLPC  C312 6079   1.205   3.547   9.550  0.4179 -0.5291  0.2584
   70SLPC  H12X 6080   1.108   3.494   9.560  1.3310 -2.1570  0.7405
   70SLPC  H12Y 6081   1.285   3.470   9.558  1.1295  0.1480 -0.2537
   70SLPC  C313 6082   1.215   3.611   9.409 -0.2334 -0.4147 -0.8791
   70SLPC  H13X 6083   1.314   3.662   9.407 -0.1180 -0.4528  1.9095
   70SLPC  H13Y 6084   1.129   3.679   9.393 -1.0498 -0.5910  2.2822
   70SLPC  C314 6085   1.214   3.513   9.295  0.0553  0.0854 -0.5506
   70SLPC  H14X 6086   1.134   3.442   9.322 -0.8927  0.3991 -2.5054
   70SLPC  H14Y 6087   1.310   3.456   9.295 -0.0113 -0.0315 -1.4145
   70SLPC  C315 6088   1.174   3.581   9.166 -0.6393  0.2050 -0.2073
   70SLPC  H15X 6089   1.254   3.645   9.123  0.2017 -1.6328 -1.4817
   70SLPC  H15Y 6090   1.088   3.650   9.176 -0.7958  0.1599 -1.1976
   70SLPC  C316 6091   1.121   3.474   9.064  0.7536 -0.6471 -0.5880
   70SLPC  H16X 6092   1.028   3.417   9.086 -0.8388  2.0836  0.0482
   70SLPC  H16Y 6093   1.199   3.403   9.030  1.4084 -0.4106  0.3825
   70SLPC  C317 6094   1.068   3.543   8.934  0.2456  0.8177  0.1653
   70SLPC  H17X 6095   0.972   3.597   8.949 -0.4364  0.2043 -1.7540
   70SLPC  H17Y 6096   1.036   3.458   8.870  1.4821  1.5560 -1.4760
   70SLPC  C318 6097   1.167   3.639   8.863 -0.1057  0.1000 -0.1368
   70SLPC  H18X 6098   1.266   3.590   8.852 -0.8469 -1.2171 -1.0677
   70SLPC  H18Y 6099   1.175   3.733   8.922 -0.8395  0.8630 -1.2168
   70SLPC  H18Z 6100   1.111   3.660   8.769 -2.2454 -2.6020  0.4650
   71SLPC     N 6101   1.803   2.647  10.791  0.3481  0.3468  0.1187
   71SLPC   C13 6102   1.735   2.768  10.853 -0.0293  0.7558 -0.1542
   71SLPC  H13A 6103   1.754   2.854  10.791  0.7898  0.8261  0.1906
   71SLPC  H13B 6104   1.629   2.746  10.861 -0.0033  0.5909 -0.2822
   71SLPC  H13C 6105   1.778   2.797  10.948 -0.9546  0.1471  0.4571
   71SLPC   C14 6106   1.791   2.532  10.887  0.3004 -0.3936 -0.2993
   71SLPC  H14A 6107   1.851   2.454  10.844 -1.7106 -2.8334  1.2013
   71SLPC  H14B 6108   1.814   2.557  10.990 -3.6488  0.8550  0.3381
   71SLPC  H14C 6109   1.689   2.499  10.879 -1.6987  5.0063  0.5321
   71SLPC   C15 6110   1.944   2.672  10.774  0.3689 -0.9950 -0.0775
   71SLPC  H15A 6111   2.001   2.672  10.866 -0.8456  0.4422  0.6892
   71SLPC  H15B 6112   1.996   2.601  10.712  0.0893 -2.0231  0.8510
   71SLPC  H15C 6113   1.970   2.767  10.731 -0.1899  0.5851  2.9177
   71SLPC   C12 6114   1.739   2.624  10.657 -0.2664 -0.1898 -0.3083
   71SLPC  H12A 6115   1.796   2.539  10.620  0.7035 -1.3110  3.6011
   71SLPC  H12B 6116   1.753   2.702  10.584 -0.6166  0.9940  0.8762
   71SLPC   C11 6117   1.586   2.592  10.649 -0.8452 -0.7416 -0.1228
   71SLPC  H11A 6118   1.555   2.583  10.542  1.3794  1.9663 -1.0892
   71SLPC  H11B 6119   1.524   2.672  10.694  1.2662  0.5038  0.6776
   71SLPC     P 6120   1.593   2.324  10.665 -0.1746 -0.2106  0.1750
   71SLPC   O13 6121   1.723   2.320  10.592 -0.4191  0.5244  0.2776
   71SLPC   O14 6122   1.575   2.223  10.775  0.0720 -0.1646 -0.6599
   71SLPC   O12 6123   1.556   2.467  10.724  0.3066 -0.1261  0.2527
   71SLPC   O11 6124   1.488   2.313  10.547  0.4682  0.0630 -0.3731
   71SLPC    C1 6125   1.352   2.320  10.594 -0.5955 -0.8226  0.5181
   71SLPC    HA 6126   1.320   2.229  10.649  0.0486 -0.7746  0.9738
   71SLPC    HB 6127   1.332   2.409  10.658  0.1807  1.8357 -2.7864
   71SLPC    C2 6128   1.261   2.363  10.479 -0.2385  0.2863 -0.1332
   71SLPC    HS 6129   1.158   2.371  10.521 -0.9003  0.5781 -1.7828
   71SLPC   O21 6130   1.262   2.267  10.371  0.3065 -0.1678 -0.5396
   71SLPC   C21 6131   1.207   2.152  10.391  0.0406 -0.2705 -0.3540
   71SLPC   O22 6132   1.140   2.119  10.490 -0.3083  0.0753 -0.0331
   71SLPC   C22 6133   1.219   2.077  10.257  0.2307  0.4825  0.1733
   71SLPC   H2R 6134   1.324   2.077  10.222 -0.2174  1.8437 -1.1889
   71SLPC   H2S 6135   1.178   1.976  10.280 -2.7675  1.4398 -0.6818
   71SLPC    C3 6136   1.297   2.501  10.422 -0.2552  0.6204 -0.2193
   71SLPC    HX 6137   1.395   2.486  10.372 -1.2680  1.7392 -2.6402
   71SLPC    HY 6138   1.313   2.577  10.502  0.3786  1.1026 -0.7976
   71SLPC   O31 6139   1.199   2.541  10.328  0.4214  0.2470 -0.2114
   71SLPC   C31 6140   1.220   2.651  10.265 -0.0958 -0.0590  0.0457
   71SLPC   O32 6141   1.316   2.723  10.291  0.0023  0.3148 -0.2702
   71SLPC   C32 6142   1.118   2.686  10.164 -0.3228  0.4431 -0.2395
   71SLPC   H2X 6143   1.070   2.783  10.188  2.0796  2.1170 -1.9802
   71SLPC   H2Y 6144   1.038   2.608  10.165  0.2876 -0.1934  1.0486
   71SLPC   C23 6145   1.144   2.148  10.144 -0.0451 -0.0758 -0.2839
   71SLPC   H3R 6146   1.194   2.247  10.140  0.2774  0.0810  4.5356
   71SLPC   H3S 6147   1.035   2.144  10.165  0.0467  1.1343  0.4665
   71SLPC   C24 6148   1.172   2.080  10.008 -0.0315 -0.5105  0.6113
   71SLPC   H4R 6149   1.142   1.973  10.015  2.5868 -1.3367 -0.0367
   71SLPC   H4S 6150   1.283   2.083  10.006 -0.0588  0.4422  0.0432
   71SLPC   C25 6151   1.115   2.154   9.886  0.1488 -0.3374 -0.0891
   71SLPC   H5R 6152   1.157   2.257   9.879  1.2677 -0.7673  0.2390
   71SLPC   H5S 6153   1.004   2.150   9.880 -0.1740  0.7705  3.8183
   71SLPC   C26 6154   1.171   2.084   9.759  0.2519 -0.7383  0.2157
   71SLPC   H6R 6155   1.147   1.976   9.766  1.0216 -0.8567  1.0971
   71SLPC   H6S 6156   1.280   2.087   9.780  0.3428  1.2470 -0.3936
   71SLPC   C27 6157   1.140   2.144   9.623 -0.6397 -0.5584 -0.8793
   71SLPC   H7R 6158   1.192   2.242   9.611 -1.6837  0.0998 -0.1551
   71SLPC   H7S 6159   1.030   2.161   9.616 -1.0066 -2.3298  0.5283
   71SLPC   C28 6160   1.185   2.058   9.502 -0.4097 -0.1498  0.3920
   71SLPC   H8R 6161   1.133   1.960   9.504 -2.1690  0.7486 -0.3431
   71SLPC   H8S 6162   1.292   2.034   9.521 -0.5656 -1.6882 -0.6450
   71SLPC   C29 6163   1.159   2.139   9.370 -0.3014  0.0182 -0.7512
   71SLPC   H9R 6164   1.064   2.195   9.372 -0.5160 -0.4005  2.4138
   71SLPC  C210 6165   1.237   2.145   9.258 -0.1253  0.0690  0.0871
   71SLPC  H10R 6166   1.207   2.210   9.175  1.2787 -2.4896 -2.5434
   71SLPC  C211 6167   1.368   2.073   9.245  0.1145  0.7979  0.2501
   71SLPC  H11R 6168   1.352   1.978   9.191  0.0870  0.5235  0.7344
   71SLPC  H11S 6169   1.409   2.048   9.346  2.8149  1.4538 -0.6577
   71SLPC  C212 6170   1.478   2.157   9.186  0.7056 -0.5293  0.4824
   71SLPC  H12R 6171   1.550   2.174   9.267 -0.6270 -0.2083  1.6227
   71SLPC  C213 6172   1.488   2.195   9.060 -0.2292 -0.3394  0.5937
   71SLPC  H13R 6173   1.575   2.257   9.034 -1.1422  0.4242 -0.6719
   71SLPC  C214 6174   1.400   2.166   8.943 -0.1205  0.0807  0.0691
   71SLPC  H14R 6175   1.365   2.264   8.903 -0.6159  0.0433  0.4006
   71SLPC  H14S 6176   1.310   2.107   8.971  1.2853 -1.2379  1.8868
   71SLPC  C215 6177   1.477   2.103   8.824 -0.4397 -0.0843  0.4895
   71SLPC  H15R 6178   1.527   2.007   8.850 -1.5966 -1.1519 -1.1345
   71SLPC  H15S 6179   1.551   2.176   8.784 -0.4951  0.1199  0.7590
   71SLPC  C216 6180   1.395   2.062   8.708  0.6080  0.0213 -0.6944
   71SLPC  H16R 6181   1.457   2.014   8.630 -0.9718  1.6050 -2.9845
   71SLPC  H16S 6182   1.349   2.153   8.664 -0.8970  0.4928  1.7303
   71SLPC  C217 6183   1.283   1.961   8.735  0.2014  0.2804  0.0436
   71SLPC  H17R 6184   1.199   2.022   8.774  1.0059  0.9956  0.6771
   71SLPC  H17S 6185   1.305   1.891   8.819 -0.4932 -1.0188 -0.8304
   71SLPC  C218 6186   1.248   1.879   8.616  0.0501  0.4095 -0.2492
   71SLPC  H18R 6187   1.336   1.830   8.570 -0.3301  0.1406 -0.7001
   71SLPC  H18S 6188   1.209   1.957   8.547  0.1904 -0.6268 -1.5191
   71SLPC  H18T 6189   1.193   1.783   8.625  1.3147 -0.3901 -0.9297
   71SLPC   C33 6190   1.162   2.670  10.014 -0.6333 -0.7228 -0.9334
   71SLPC   H3X 6191   1.231   2.754   9.996 -0.7224 -0.0079  1.7700
   71SLPC   H3Y 6192   1.080   2.680   9.940 -1.4999 -1.1973 -0.0622
   71SLPC   C34 6193   1.244   2.539   9.989  0.7627 -1.1311  0.3809
   71SLPC   H4X 6194   1.164   2.462   9.999 -1.0989  0.8739  1.4858
   71SLPC   H4Y 6195   1.322   2.527  10.067 -1.8900 -1.4942  3.0798
   71SLPC   C35 6196   1.318   2.523   9.852  0.9196 -0.0802  0.0550
   71SLPC   H5X 6197   1.384   2.434   9.849  0.2529 -0.5380 -3.1442
   71SLPC   H5Y 6198   1.388   2.609   9.842 -0.1556  0.8269  0.1483
   71SLPC   C36 6199   1.228   2.506   9.723  0.6037 -0.0370  0.2385
   71SLPC   H6X 6200   1.153   2.587   9.709  1.1965 -0.1094 -3.8074
   71SLPC   H6Y 6201   1.168   2.412   9.728  2.5261 -1.4838 -2.4728
   71SLPC   C37 6202   1.320   2.502   9.598 -0.3543 -0.6201  0.4782
   71SLPC   H7X 6203   1.370   2.403   9.603  2.2061  0.6007 -0.3241
   71SLPC   H7Y 6204   1.389   2.589   9.598 -0.1575 -0.7328  3.5051
   71SLPC   C38 6205   1.238   2.489   9.470  0.1522 -0.4433 -0.4947
   71SLPC   H8X 6206   1.156   2.564   9.464 -1.7530 -2.4300 -0.2949
   71SLPC   H8Y 6207   1.182   2.393   9.472  0.2396 -0.4931 -0.4263
   71SLPC   C39 6208   1.328   2.482   9.342 -0.3215 -0.5455  0.6615
   71SLPC   H9X 6209   1.253   2.468   9.261  0.5138 -1.4593  0.0263
   71SLPC   H9Y 6210   1.398   2.395   9.341 -0.1522 -0.4158 -1.6246
   71SLPC  C310 6211   1.406   2.612   9.309 -0.4608  0.7150 -0.5828
   71SLPC  H10X 6212   1.465   2.625   9.402 -1.7879  0.8017  0.2676
   71SLPC  H10Y 6213   1.334   2.697   9.305 -1.0540  0.2516  0.1303
   71SLPC  C311 6214   1.500   2.600   9.189 -0.4756  0.8392  0.6658
   71SLPC  H11X 6215   1.563   2.511   9.209 -1.3481  0.6090  2.4670
   71SLPC  H11Y 6216   1.566   2.688   9.195 -1.3678  1.5330  0.3982
   71SLPC  C312 6217   1.447   2.601   9.043 -0.9941  0.0588  0.4030
   71SLPC  H12X 6218   1.396   2.700   9.037 -1.3072 -0.0195  1.5682
   71SLPC  H12Y 6219   1.370   2.524   9.023 -0.9402  0.0090  0.3909
   71SLPC  C313 6220   1.564   2.593   8.937 -0.5052 -0.2786  0.1867
   71SLPC  H13X 6221   1.626   2.501   8.934 -0.8619 -0.4893 -2.3359
   71SLPC  H13Y 6222   1.628   2.682   8.954 -1.5165  0.4612  0.1797
   71SLPC  C314 6223   1.513   2.596   8.789  0.7909 -0.2455 -0.0487
   71SLPC  H14X 6224   1.446   2.685   8.777 -0.2336 -0.8193  1.2049
   71SLPC  H14Y 6225   1.444   2.510   8.779 -1.7125  1.5306  1.2256
   71SLPC  C315 6226   1.624   2.593   8.683  0.2745  0.0018  0.4316
   71SLPC  H15X 6227   1.691   2.679   8.704 -2.5959  2.7271 -1.1968
   71SLPC  H15Y 6228   1.585   2.618   8.582  2.2718 -0.7510 -0.5350
   71SLPC  C316 6229   1.687   2.454   8.670  0.3636  0.1268 -0.6302
   71SLPC  H16X 6230   1.616   2.368   8.669  0.2840  0.1695  1.2626
   71SLPC  H16Y 6231   1.746   2.438   8.763 -0.6346 -1.1014 -0.1934
   71SLPC  C317 6232   1.778   2.438   8.545  0.3053  0.4276  0.6411
   71SLPC  H17X 6233   1.858   2.514   8.559  2.8275 -2.2476  1.2476
   71SLPC  H17Y 6234   1.718   2.455   8.453  0.8499  0.2272  0.2490
   71SLPC  C318 6235   1.849   2.303   8.534  1.0929 -0.0575 -0.0914
   71SLPC  H18X 6236   1.786   2.212   8.521 -0.3264  0.8693  0.2710
   71SLPC  H18Y 6237   1.905   2.292   8.630  1.9989 -1.2656 -0.7540
   71SLPC  H18Z 6238   1.916   2.289   8.447 -0.1260 -1.8071 -0.7826
   72SLPC     N 6239   2.993   1.508  10.754 -0.1849 -0.0921 -0.0659
   72SLPC   C13 6240   2.965   1.645  10.755  0.0915 -0.5870  0.5225
   72SLPC  H13A 6241   2.923   1.680  10.662  1.2219 -1.3045 -0.2676
   72SLPC  H13B 6242   2.892   1.675  10.829  0.1053  0.9923 -0.0710
   72SLPC  H13C 6243   3.055   1.698  10.783 -1.1686  0.9786  1.7426
   72SLPC   C14 6244   3.042   1.454  10.887  0.5076 -0.1275  0.1279
   72SLPC  H14A 6245   3.142   1.478  10.919  1.0988  0.4856 -2.0633
   72SLPC  H14B 6246   2.971   1.457  10.968  1.8989  0.1292  1.3629
   72SLPC  H14C 6247   3.058   1.349  10.864  4.5858  0.7767 -1.6922
   72SLPC   C15 6248   3.097   1.481  10.640  0.3936  0.2145  0.0509
   72SLPC  H15A 6249   3.107   1.561  10.568 -0.2060 -0.4651 -0.7950
   72SLPC  H15B 6250   3.194   1.474  10.686  1.4847  2.6024 -1.7359
   72SLPC  H15C 6251   3.077   1.388  10.590  1.7408  1.3210 -2.6629
   72SLPC   C12 6252   2.856   1.444  10.718 -0.4274 -0.1537  0.6981
   72SLPC  H12A 6253   2.812   1.513  10.647  0.9907  0.4374  0.3740
   72SLPC  H12B 6254   2.792   1.449  10.804 -0.2431  1.1380  0.7637
   72SLPC   C11 6255   2.860   1.305  10.658 -0.1037  0.2102  0.3421
   72SLPC  H11A 6256   2.899   1.308  10.554 -0.2746 -2.8216  0.1378
   72SLPC  H11B 6257   2.753   1.279  10.644 -0.1171  1.7492 -2.8467
   72SLPC     P 6258   2.877   1.074  10.775 -0.4799  0.1166  0.5777
   72SLPC   O13 6259   2.990   0.980  10.769  0.4490  0.3640  0.2782
   72SLPC   O14 6260   2.807   1.082  10.907  0.0613 -0.1946  0.4888
   72SLPC   O12 6261   2.936   1.216  10.735 -0.0253 -0.0417  0.2217
   72SLPC   O11 6262   2.777   1.034  10.664 -0.1239  0.2253  0.3162
   72SLPC    C1 6263   2.813   0.974  10.540  0.1178 -0.0342  0.3195
   72SLPC    HA 6264   2.887   1.035  10.485 -0.6306  0.8711  0.3071
   72SLPC    HB 6265   2.871   0.884  10.571 -1.7212 -0.7507  1.7809
   72SLPC    C2 6266   2.695   0.934  10.451 -0.2937  0.1428  0.1243
   72SLPC    HS 6267   2.746   0.878  10.370  0.6658 -0.1265  0.8988
   72SLPC   O21 6268   2.623   1.048  10.405 -0.0405 -0.3172  0.1563
   72SLPC   C21 6269   2.671   1.097  10.286  0.0718  0.0889 -0.3474
   72SLPC   O22 6270   2.764   1.049  10.226 -0.0410  0.9476 -0.7501
   72SLPC   C22 6271   2.598   1.221  10.237 -0.1417 -0.1406 -0.3320
   72SLPC   H2R 6272   2.492   1.187  10.238 -0.1558 -0.2617 -3.0634
   72SLPC   H2S 6273   2.620   1.299  10.313 -1.5281  0.2221 -0.2930
   72SLPC    C3 6274   2.596   0.838  10.517  0.5215  0.6462  0.2071
   72SLPC    HX 6275   2.534   0.885  10.596 -1.4569  0.3984 -1.1696
   72SLPC    HY 6276   2.653   0.755  10.565 -1.1310  0.0882  1.2432
   72SLPC   O31 6277   2.511   0.786  10.415 -0.1867  0.5372  0.5202
   72SLPC   C31 6278   2.438   0.684  10.455 -0.0451 -0.3228 -0.0816
   72SLPC   O32 6279   2.431   0.636  10.569  0.3240  0.2368 -0.0584
   72SLPC   C32 6280   2.359   0.628  10.336  0.8481  0.1482 -0.4296
   72SLPC   H2X 6281   2.386   0.677  10.240 -1.4244  1.9690 -0.1876
   72SLPC   H2Y 6282   2.254   0.660  10.354  0.2359 -1.6888 -0.6371
   72SLPC   C23 6283   2.627   1.274  10.101 -0.3652 -0.1390  0.5906
   72SLPC   H3R 6284   2.732   1.309  10.107  0.9108 -3.8147  0.4778
   72SLPC   H3S 6285   2.562   1.364  10.090  1.4053  1.3438  1.9598
   72SLPC   C24 6286   2.600   1.179   9.984  0.0014  0.3630 -0.0168
   72SLPC   H4R 6287   2.500   1.137  10.010 -0.4501  0.7183 -1.1757
   72SLPC   H4S 6288   2.677   1.099   9.984 -2.0605 -1.6848  0.1720
   72SLPC   C25 6289   2.578   1.255   9.856  0.2884  0.0903 -0.2387
   72SLPC   H5R 6290   2.668   1.309   9.819  1.3508 -0.1552  1.9095
   72SLPC   H5S 6291   2.500   1.334   9.863 -0.9534 -0.9285 -2.0933
   72SLPC   C26 6292   2.525   1.165   9.746  0.2227  0.4462  0.7342
   72SLPC   H6R 6293   2.442   1.102   9.784  0.4185 -2.6455 -3.7097
   72SLPC   H6S 6294   2.595   1.087   9.709 -1.0589 -1.0636  1.4096
   72SLPC   C27 6295   2.459   1.246   9.630  0.3844 -0.0746 -0.3539
   72SLPC   H7R 6296   2.367   1.291   9.675  0.8744 -0.0128  0.6007
   72SLPC   H7S 6297   2.420   1.171   9.557  3.0830 -0.1738 -1.7606
   72SLPC   C28 6298   2.551   1.341   9.552 -0.4864  0.1815  0.6566
   72SLPC   H8R 6299   2.641   1.279   9.532 -0.7720  0.5837 -2.1227
   72SLPC   H8S 6300   2.582   1.422   9.622  5.5591  0.1596 -1.7300
   72SLPC   C29 6301   2.493   1.407   9.432 -0.4589  0.0085  0.2378
   72SLPC   H9R 6302   2.439   1.498   9.461  1.3390  0.1180  3.5577
   72SLPC  C210 6303   2.501   1.360   9.302  0.6728 -0.1055  0.2828
   72SLPC  H10R 6304   2.458   1.421   9.221 -0.3173 -2.7322 -1.2222
   72SLPC  C211 6305   2.564   1.237   9.241 -0.2354 -0.0398 -0.5930
   72SLPC  H11R 6306   2.489   1.195   9.170  1.8501 -0.7255 -2.4346
   72SLPC  H11S 6307   2.583   1.171   9.328 -1.2995  1.0094  0.4570
   72SLPC  C212 6308   2.697   1.288   9.183 -0.0666  1.0357 -0.7523
   72SLPC  H12R 6309   2.749   1.369   9.235  2.1226 -1.0405  0.3445
   72SLPC  C213 6310   2.748   1.237   9.067  0.1498 -0.9060  0.7909
   72SLPC  H13R 6311   2.850   1.270   9.044 -0.4158 -0.7187 -1.5084
   72SLPC  C214 6312   2.686   1.128   8.980 -0.5862  0.2593 -0.2022
   72SLPC  H14R 6313   2.615   1.157   8.899 -1.7726 -0.3323  0.6181
   72SLPC  H14S 6314   2.631   1.057   9.045 -1.4038  0.3244 -0.8141
   72SLPC  C215 6315   2.796   1.031   8.917  0.2028  0.2902  0.4372
   72SLPC  H15R 6316   2.875   1.102   8.885  0.3940 -0.1798 -0.1407
   72SLPC  H15S 6317   2.745   1.001   8.823  3.1578 -1.8364 -0.5474
   72SLPC  C216 6318   2.859   0.914   9.001  0.1832 -0.3411  0.7234
   72SLPC  H16R 6319   2.887   0.944   9.104  0.0697 -0.0061  0.6580
   72SLPC  H16S 6320   2.951   0.876   8.951 -0.0520 -1.3851  1.0643
   72SLPC  C217 6321   2.759   0.796   9.012 -0.0983  0.1122  0.1809
   72SLPC  H17R 6322   2.678   0.826   9.081  0.4285  0.6697  0.5651
   72SLPC  H17S 6323   2.806   0.704   9.053 -1.6802 -0.6350  0.3667
   72SLPC  C218 6324   2.705   0.753   8.874 -0.3900  0.6402 -0.3806
   72SLPC  H18R 6325   2.788   0.717   8.809 -1.4963  0.5621 -1.7862
   72SLPC  H18S 6326   2.618   0.801   8.824 -0.1261  0.3816 -1.0896
   72SLPC  H18T 6327   2.663   0.651   8.892 -0.8589  1.2021  1.8042
   72SLPC   C33 6328   2.361   0.476  10.324 -0.4389 -0.5154 -0.2451
   72SLPC   H3X 6329   2.268   0.449  10.271 -1.0007  1.6466 -0.4320
   72SLPC   H3Y 6330   2.366   0.426  10.423 -1.2657  0.1123  0.1197
   72SLPC   C34 6331   2.471   0.413  10.241  0.0820  0.0656  0.3507
   72SLPC   H4X 6332   2.559   0.394  10.306 -0.0050 -2.1593 -0.1426
   72SLPC   H4Y 6333   2.502   0.479  10.158  3.3925 -0.4489  1.0911
   72SLPC   C35 6334   2.433   0.275  10.182  0.0147  0.4331 -0.0710
   72SLPC   H5X 6335   2.402   0.205  10.262  1.7724  0.6052  0.7841
   72SLPC   H5Y 6336   2.524   0.233  10.135 -1.4038 -1.4006 -1.2406
   72SLPC   C36 6337   2.320   0.276  10.070 -0.2346 -0.2322  0.5334
   72SLPC   H6X 6338   2.335   0.357   9.996 -1.5157 -0.1060  0.3997
   72SLPC   H6Y 6339   2.218   0.289  10.114 -1.3217  0.7910 -2.1612
   72SLPC   C37 6340   2.329   0.148   9.990  0.1621 -0.2077  0.5003
   72SLPC   H7X 6341   2.308   0.067  10.063 -0.1977  0.6549  1.3477
   72SLPC   H7Y 6342   2.430   0.144   9.944  0.1261 -0.7807  0.4619
   72SLPC   C38 6343   2.235   0.153   9.869 -0.1056  0.5171 -0.9702
   72SLPC   H8X 6344   2.285   0.219   9.795  0.4524  0.0717 -0.9925
   72SLPC   H8Y 6345   2.131   0.180   9.895 -0.7672 -1.0455 -1.8840
   72SLPC   C39 6346   2.212   0.018   9.801 -0.2665  0.3182 -1.2358
   72SLPC   H9X 6347   2.152  -0.045   9.871  1.5341  0.0866  0.1474
   72SLPC   H9Y 6348   2.308  -0.036   9.784 -1.1292 -0.9121 -2.2746
   72SLPC  C310 6349   2.135   0.048   9.677 -0.8809 -0.3523  0.8910
   72SLPC  H10X 6350   2.184   0.137   9.631 -1.2159 -0.1841  0.8600
   72SLPC  H10Y 6351   2.033   0.078   9.708 -1.0365 -1.7229  1.7256
   72SLPC  C311 6352   2.128  -0.067   9.572 -0.0147  0.6488 -0.2544
   72SLPC  H11X 6353   2.076  -0.159   9.605 -0.0554  0.2467 -1.4168
   72SLPC  H11Y 6354   2.232  -0.095   9.545 -0.1518 -1.7591  1.5963
   72SLPC  C312 6355   2.090  -0.011   9.435 -0.2171  0.3906 -0.4207
   72SLPC  H12X 6356   2.130   0.092   9.433 -0.2879  0.4859  1.7205
   72SLPC  H12Y 6357   1.979  -0.009   9.427 -0.2766 -0.1553  0.1874
   72SLPC  C313 6358   2.147  -0.100   9.321  0.0767 -0.5138 -0.1809
   72SLPC  H13X 6359   2.124  -0.208   9.336  1.8048 -0.9242 -0.3278
   72SLPC  H13Y 6360   2.258  -0.088   9.322 -0.0986  1.1814 -0.3274
   72SLPC  C314 6361   2.089  -0.067   9.186  0.1013  0.0654  0.4196
   72SLPC  H14X 6362   2.105   0.041   9.170 -1.2833  0.0554 -1.2423
   72SLPC  H14Y 6363   1.983  -0.093   9.163 -0.0196 -1.7926  2.9213
   72SLPC  C315 6364   2.165  -0.137   9.067  1.0945  0.1412  0.2168
   72SLPC  H15X 6365   2.163  -0.241   9.107 -2.3460  0.0506 -0.0346
   72SLPC  H15Y 6366   2.265  -0.094   9.047  1.3151 -0.7476 -0.6468
   72SLPC  C316 6367   2.087  -0.160   8.938  0.0738 -0.2698 -0.1648
   72SLPC  H16X 6368   1.976  -0.167   8.946 -0.0477  0.8338 -0.8178
   72SLPC  H16Y 6369   2.118  -0.257   8.893 -0.4120 -0.1576 -0.7505
   72SLPC  C317 6370   2.117  -0.045   8.850 -0.0100 -0.1718  0.3820
   72SLPC  H17X 6371   2.225  -0.032   8.832 -0.0790 -1.1432 -0.7707
   72SLPC  H17Y 6372   2.094   0.051   8.901 -0.3557  0.2457 -0.5444
   72SLPC  C318 6373   2.046  -0.056   8.713  0.1877 -0.1887 -0.3059
   72SLPC  H18X 6374   1.942  -0.019   8.724  0.8939  1.6706  0.2759
   72SLPC  H18Y 6375   2.056  -0.158   8.669  0.6732 -0.6365  0.8315
   72SLPC  H18Z 6376   2.084   0.015   8.636  0.2168  1.1336  0.8979
   73SLPC     N 6377   2.393   6.278  11.068 -0.5437 -0.1591 -0.0426
   73SLPC   C13 6378   2.315   6.172  11.135  0.1804  0.0768 -0.0001
   73SLPC  H13A 6379   2.288   6.097  11.062  1.8882 -1.8448  1.2891
   73SLPC  H13B 6380   2.369   6.122  11.214  0.2304  0.6777  0.3547
   73SLPC  H13C 6381   2.224   6.212  11.178 -1.2928 -1.2790 -1.7954
   73SLPC   C14 6382   2.451   6.364  11.165 -0.5008 -0.1395  0.0534
   73SLPC  H14A 6383   2.518   6.435  11.118  0.5173 -0.6459  0.7334
   73SLPC  H14B 6384   2.385   6.429  11.221  1.1207  0.9406  0.7526
   73SLPC  H14C 6385   2.516   6.315  11.236  1.0537  0.2692 -1.0753
   73SLPC   C15 6386   2.300   6.349  10.984 -0.5859  0.6010  0.3709
   73SLPC  H15A 6387   2.234   6.411  11.043  0.0416  0.6734  0.9966
   73SLPC  H15B 6388   2.358   6.418  10.924  0.9790  0.4850  1.7180
   73SLPC  H15C 6389   2.262   6.280  10.909 -0.9973 -0.7542  1.8142
   73SLPC   C12 6390   2.500   6.205  10.986  0.9494 -0.0964  0.5784
   73SLPC  H12A 6391   2.463   6.112  10.946  1.7187 -0.1403 -0.0425
   73SLPC  H12B 6392   2.590   6.179  11.038  1.0903  0.4627  0.6162
   73SLPC   C11 6393   2.543   6.274  10.849 -0.5018 -0.5914  0.4205
   73SLPC  H11A 6394   2.648   6.250  10.824  0.3175  1.0738  2.1011
   73SLPC  H11B 6395   2.552   6.382  10.874 -0.6955 -0.8569  1.6949
   73SLPC     P 6396   2.461   6.118  10.661  0.1699 -0.0890 -0.0072
   73SLPC   O13 6397   2.582   6.113  10.573  0.1744 -0.2647 -0.2385
   73SLPC   O14 6398   2.443   6.005  10.757 -0.6887  0.5225 -0.4841
   73SLPC   O12 6399   2.448   6.251  10.740 -0.0229  0.1476  0.1764
   73SLPC   O11 6400   2.329   6.119  10.578 -0.0311 -0.1770  0.0013
   73SLPC    C1 6401   2.267   6.221  10.501 -0.0561  0.2546 -0.6270
   73SLPC    HA 6402   2.157   6.214  10.517  0.2943 -1.7121  1.2160
   73SLPC    HB 6403   2.298   6.320  10.541 -0.5530 -0.4733  1.6744
   73SLPC    C2 6404   2.279   6.195  10.347 -0.2744  0.5200  0.7159
   73SLPC    HS 6405   2.203   6.240  10.279  0.4400  1.4483  0.5134
   73SLPC   O21 6406   2.287   6.054  10.325 -0.6378 -0.1636  0.5728
   73SLPC   C21 6407   2.180   6.004  10.358  0.3904  0.2759 -0.7624
   73SLPC   O22 6408   2.070   6.052  10.364 -0.2856 -0.1190 -0.8386
   73SLPC   C22 6409   2.210   5.854  10.387 -0.1494  0.9355 -0.6334
   73SLPC   H2R 6410   2.281   5.851  10.472 -0.3028  0.0157 -0.5340
   73SLPC   H2S 6411   2.114   5.804  10.414 -0.3305  0.9060 -1.3167
   73SLPC    C3 6412   2.406   6.267  10.298  0.5649  0.2959  0.5762
   73SLPC    HX 6413   2.500   6.221  10.335  0.3065 -0.4234  0.3467
   73SLPC    HY 6414   2.398   6.369  10.343 -2.3061 -0.0193  0.8946
   73SLPC   O31 6415   2.400   6.289  10.153 -0.0711  0.5101 -0.0483
   73SLPC   C31 6416   2.495   6.222  10.085 -0.1197 -0.3989  0.0793
   73SLPC   O32 6417   2.589   6.162  10.133 -0.2817  0.1530  0.4794
   73SLPC   C32 6418   2.468   6.242   9.933  0.4064 -0.5609 -0.4557
   73SLPC   H2X 6419   2.408   6.154   9.905  0.9378 -0.8298 -0.7621
   73SLPC   H2Y 6420   2.568   6.245   9.883  0.5301  0.7171 -0.1505
   73SLPC   C23 6421   2.269   5.780  10.266  0.3933 -0.7992 -0.1014
   73SLPC   H3R 6422   2.291   5.676  10.299 -1.0421 -1.1616 -0.2118
   73SLPC   H3S 6423   2.356   5.833  10.223 -0.6313  0.0856 -1.1153
   73SLPC   C24 6424   2.162   5.770  10.153  0.0908  0.7685  0.3683
   73SLPC   H4R 6425   2.113   5.867  10.131  2.8524  1.8571 -1.1458
   73SLPC   H4S 6426   2.087   5.699  10.195 -1.2590  0.8880 -1.7498
   73SLPC   C25 6427   2.220   5.697  10.028 -0.2278 -0.5014 -0.6023
   73SLPC   H5R 6428   2.239   5.590  10.052 -0.2840  0.0205  1.8966
   73SLPC   H5S 6429   2.311   5.758  10.009  1.2703 -1.4864  3.0303
   73SLPC   C26 6430   2.115   5.693   9.913 -0.0173 -0.4933  0.0261
   73SLPC   H6R 6431   2.090   5.796   9.879 -0.0777  0.4486  2.7514
   73SLPC   H6S 6432   2.024   5.658   9.966 -0.2166  1.2439  0.8924
   73SLPC   C27 6433   2.140   5.601   9.798  0.0150  0.2623  0.0215
   73SLPC   H7R 6434   2.039   5.586   9.756  0.2901  1.4425 -1.0987
   73SLPC   H7S 6435   2.172   5.505   9.844  1.1823 -0.4448 -2.1870
   73SLPC   C28 6436   2.242   5.644   9.686  0.3564  0.4930 -0.9757
   73SLPC   H8R 6437   2.240   5.552   9.624 -0.5642 -0.5245  0.5577
   73SLPC   H8S 6438   2.337   5.665   9.739 -0.9570 -0.4588  1.8579
   73SLPC   C29 6439   2.204   5.770   9.605  0.4777 -0.0213 -0.0583
   73SLPC   H9R 6440   2.221   5.858   9.669  0.5085 -1.2007  1.5974
   73SLPC  C210 6441   2.145   5.778   9.486  0.7174  0.2168  0.3462
   73SLPC  H10R 6442   2.121   5.876   9.442  0.5190  0.6259  1.3656
   73SLPC  C211 6443   2.111   5.663   9.395  0.3362  0.2014 -0.3642
   73SLPC  H11R 6444   2.048   5.696   9.310 -1.8837 -1.0079  0.7480
   73SLPC  H11S 6445   2.045   5.590   9.449 -0.7074  0.2311 -1.5771
   73SLPC  C212 6446   2.229   5.593   9.333 -0.1552  0.0487  0.6570
   73SLPC  H12R 6447   2.319   5.587   9.397 -1.3409 -1.9582  2.2141
   73SLPC  C213 6448   2.222   5.520   9.222  0.9355  0.9905  0.3380
   73SLPC  H13R 6449   2.312   5.462   9.196 -0.3030 -0.5010 -0.6795
   73SLPC  C214 6450   2.098   5.499   9.132 -1.0853  0.0960 -0.0505
   73SLPC  H14R 6451   2.007   5.520   9.192 -0.9219 -1.4526  0.7519
   73SLPC  H14S 6452   2.103   5.395   9.095  0.4061 -0.6776  2.2064
   73SLPC  C215 6453   2.109   5.605   9.018 -0.2614  0.1779  0.3058
   73SLPC  H15R 6454   2.188   5.563   8.951 -1.4931 -0.2972 -0.8622
   73SLPC  H15S 6455   2.151   5.696   9.064  2.4167 -1.2709  0.8828
   73SLPC  C216 6456   1.977   5.630   8.947  0.1116  0.2362  0.3853
   73SLPC  H16R 6457   1.996   5.703   8.865  1.8414  0.1131  0.6450
   73SLPC  H16S 6458   1.905   5.672   9.020  1.4957  1.9952  0.7722
   73SLPC  C217 6459   1.908   5.508   8.879  0.5151  1.1091 -0.8090
   73SLPC  H17R 6460   1.911   5.423   8.951  0.5367  2.6377  1.0472
   73SLPC  H17S 6461   1.970   5.487   8.790  0.1172  3.2916 -1.6338
   73SLPC  C218 6462   1.762   5.525   8.842  0.2652 -0.2798 -0.2213
   73SLPC  H18R 6463   1.719   5.432   8.798  1.1771  0.0087 -1.7826
   73SLPC  H18S 6464   1.754   5.602   8.762  1.4524  0.0197 -0.0695
   73SLPC  H18T 6465   1.714   5.563   8.934  0.7472 -2.8926  1.1567
   73SLPC   C33 6466   2.395   6.373   9.893 -0.7540 -0.0291 -0.2274
   73SLPC   H3X 6467   2.441   6.465   9.935 -1.4300  0.9840 -1.7012
   73SLPC   H3Y 6468   2.289   6.362   9.927 -0.3431  2.8428  2.2141
   73SLPC   C34 6469   2.379   6.388   9.744 -1.0952  0.0299 -0.4049
   73SLPC   H4X 6470   2.484   6.404   9.713 -0.6274 -0.7531  0.7274
   73SLPC   H4Y 6471   2.327   6.485   9.730  1.1708  1.4403  0.7567
   73SLPC   C35 6472   2.301   6.269   9.670 -0.0624 -0.4437  1.1854
   73SLPC   H5X 6473   2.203   6.262   9.722 -0.1308  0.4505  1.1817
   73SLPC   H5Y 6474   2.363   6.179   9.690 -1.8307 -1.8410  0.4287
   73SLPC   C36 6475   2.281   6.299   9.522 -0.7120 -0.2937 -0.1919
   73SLPC   H6X 6476   2.383   6.307   9.481 -1.2186  4.4846 -0.8151
   73SLPC   H6Y 6477   2.236   6.401   9.512  1.2985  0.6545  0.1505
   73SLPC   C37 6478   2.216   6.192   9.441  0.0135  0.1791 -0.4685
   73SLPC   H7X 6479   2.108   6.189   9.467  0.3093  1.7198  0.9493
   73SLPC   H7Y 6480   2.269   6.098   9.468  2.9488  2.1814  1.1057
   73SLPC   C38 6481   2.227   6.204   9.286 -0.6014 -0.3313 -0.6235
   73SLPC   H8X 6482   2.336   6.219   9.270 -0.1319 -3.6461 -0.8807
   73SLPC   H8Y 6483   2.175   6.292   9.242  2.0905  0.0013 -3.2424
   73SLPC   C39 6484   2.191   6.073   9.223 -0.0613 -0.5469  0.4248
   73SLPC   H9X 6485   2.082   6.062   9.206 -0.7968  4.5770  1.0098
   73SLPC   H9Y 6486   2.215   5.986   9.286  1.9967 -2.5983 -3.0004
   73SLPC  C310 6487   2.263   6.047   9.089 -0.6633 -0.3209  0.0663
   73SLPC  H10X 6488   2.219   5.956   9.044 -2.0239  0.0905  0.5474
   73SLPC  H10Y 6489   2.372   6.031   9.104 -1.0626 -1.8452  1.4354
   73SLPC  C311 6490   2.255   6.167   8.993  0.5953  0.0308 -0.1652
   73SLPC  H11X 6491   2.283   6.266   9.036  0.0690  0.4189 -0.7042
   73SLPC  H11Y 6492   2.147   6.184   8.977 -0.0344  1.3638  4.6969
   73SLPC  C312 6493   2.333   6.136   8.862 -0.2186 -0.0024  0.6313
   73SLPC  H12X 6494   2.317   6.036   8.817 -0.2696 -0.4166  1.5434
   73SLPC  H12Y 6495   2.438   6.150   8.894 -0.3281  0.9674  0.5984
   73SLPC  C313 6496   2.321   6.236   8.746 -0.2463  0.1376 -0.1870
   73SLPC  H13X 6497   2.412   6.219   8.684  0.3600 -0.8325  0.9591
   73SLPC  H13Y 6498   2.334   6.338   8.787  0.6038 -0.9979  2.4836
   73SLPC  C314 6499   2.191   6.220   8.666  0.1443 -0.0257  0.1022
   73SLPC  H14X 6500   2.100   6.223   8.730  0.6202 -1.4334  0.8474
   73SLPC  H14Y 6501   2.191   6.123   8.611  1.9991 -0.1211  0.2302
   73SLPC  C315 6502   2.187   6.320   8.556 -0.1995  0.5565 -0.7785
   73SLPC  H15X 6503   2.196   6.422   8.599 -0.9644  0.2692  0.1046
   73SLPC  H15Y 6504   2.087   6.313   8.508 -0.6817  0.1787  0.2425
   73SLPC  C316 6505   2.311   6.315   8.461  0.5117  0.7912 -0.3755
   73SLPC  H16X 6506   2.318   6.216   8.413  0.7501  0.9839 -0.7375
   73SLPC  H16Y 6507   2.406   6.344   8.511  1.1168  1.0693 -1.6855
   73SLPC  C317 6508   2.290   6.418   8.349 -0.5965 -0.4094 -0.2786
   73SLPC  H17X 6509   2.258   6.513   8.397  1.1206 -1.8504  3.9948
   73SLPC  H17Y 6510   2.201   6.383   8.294 -0.8254 -2.4017  1.3229
   73SLPC  C318 6511   2.415   6.430   8.263 -0.1552 -0.2441 -0.1621
   73SLPC  H18X 6512   2.436   6.328   8.227 -0.0947 -0.3793  0.2540
   73SLPC  H18Y 6513   2.498   6.482   8.315 -2.3414  2.9894  0.3185
   73SLPC  H18Z 6514   2.397   6.493   8.173 -0.5381  1.5892  1.1686
   74SLPC     N 6515   3.381   0.410  10.356  0.2657 -0.8004  0.2615
   74SLPC   C13 6516   3.310   0.389  10.226 -0.1588  0.5948 -0.3965
   74SLPC  H13A 6517   3.375   0.333  10.160  1.3740  0.4285  1.2010
   74SLPC  H13B 6518   3.217   0.338  10.245 -0.4135  1.8471  1.8084
   74SLPC  H13C 6519   3.282   0.483  10.183 -2.3551  0.0712 -0.1397
   74SLPC   C14 6520   3.441   0.281  10.404  0.7281 -0.0074 -0.0787
   74SLPC  H14A 6521   3.360   0.209  10.398  0.0257  0.7425  0.2826
   74SLPC  H14B 6522   3.523   0.246  10.344  0.4785  0.2794 -0.5948
   74SLPC  H14C 6523   3.477   0.281  10.505  0.5207  1.3809  0.0083
   74SLPC   C15 6524   3.280   0.457  10.456 -0.7175 -0.2480 -0.2714
   74SLPC  H15A 6525   3.245   0.559  10.445 -0.3599 -0.2411 -1.5198
   74SLPC  H15B 6526   3.190   0.397  10.462 -1.3497  0.8222  1.2290
   74SLPC  H15C 6527   3.328   0.456  10.552 -0.3757  0.5157 -0.4304
   74SLPC   C12 6528   3.501   0.507  10.349  0.4239  0.1016  0.1011
   74SLPC  H12A 6529   3.579   0.458  10.293 -0.7703  0.1058 -1.6114
   74SLPC  H12B 6530   3.541   0.517  10.449 -0.4783 -1.0158  0.5882
   74SLPC   C11 6531   3.477   0.641  10.278  0.6001 -0.4261  0.2595
   74SLPC  H11A 6532   3.445   0.611  10.176  1.0395 -0.2840  0.0801
   74SLPC  H11B 6533   3.573   0.694  10.259 -0.4809  1.1791 -0.8687
   74SLPC     P 6534   3.451   0.832  10.449 -0.1277 -0.0192  0.3379
   74SLPC   O13 6535   3.344   0.889  10.531 -0.2305 -0.1225 -0.1966
   74SLPC   O14 6536   3.559   0.756  10.520  0.1910  0.2105 -0.2472
   74SLPC   O12 6537   3.385   0.729  10.342 -1.0645 -0.1446 -0.7241
   74SLPC   O11 6538   3.513   0.942  10.347  0.4185 -0.7967 -0.0431
   74SLPC    C1 6539   3.421   1.025  10.276  0.3711  0.2350 -0.1145
   74SLPC    HA 6540   3.330   1.045  10.337  0.1697 -1.8966  0.3365
   74SLPC    HB 6541   3.473   1.122  10.260  2.4370 -0.3714  2.5543
   74SLPC    C2 6542   3.396   0.962  10.138  0.4253 -0.1195  0.0263
   74SLPC    HS 6543   3.347   0.864  10.158  1.2512 -0.6771 -0.6648
   74SLPC   O21 6544   3.513   0.958  10.052 -0.1503 -0.0340 -0.3498
   74SLPC   C21 6545   3.511   0.855   9.969  0.4084  0.4866 -0.1729
   74SLPC   O22 6546   3.424   0.769   9.964  0.0661 -0.1360  0.2289
   74SLPC   C22 6547   3.630   0.867   9.876 -0.3299 -0.1008 -0.5943
   74SLPC   H2R 6548   3.683   0.964   9.892 -3.2568  1.3848  0.4728
   74SLPC   H2S 6549   3.706   0.788   9.895  1.5717  2.1558  1.7596
   74SLPC    C3 6550   3.299   1.061  10.067 -0.1518  0.1216  0.3198
   74SLPC    HX 6551   3.356   1.155  10.053 -0.4757  0.2598 -0.0903
   74SLPC    HY 6552   3.218   1.082  10.140  0.8229 -0.8117  1.7117
   74SLPC   O31 6553   3.260   1.016   9.937  0.1668  0.3103  0.0830
   74SLPC   C31 6554   3.172   0.922   9.934  0.7792 -0.3397 -0.5081
   74SLPC   O32 6555   3.118   0.866  10.031 -0.2401 -0.3506 -0.1531
   74SLPC   C32 6556   3.151   0.886   9.784  0.2633 -0.4400  0.3692
   74SLPC   H2X 6557   3.246   0.832   9.762  0.2414 -0.2634 -0.1638
   74SLPC   H2Y 6558   3.159   0.982   9.728 -0.9460  0.3305  1.4965
   74SLPC   C23 6559   3.606   0.864   9.722  0.0683 -0.0384 -0.3139
   74SLPC   H3R 6560   3.577   0.760   9.694  1.2444 -0.7916  1.1946
   74SLPC   H3S 6561   3.708   0.871   9.679 -0.1171  2.4853 -0.4153
   74SLPC   C24 6562   3.507   0.960   9.657 -0.2625  0.0253  0.6903
   74SLPC   H4R 6563   3.533   1.058   9.703  0.8895  0.3266 -0.5690
   74SLPC   H4S 6564   3.408   0.933   9.699 -0.2919 -1.0859 -0.0741
   74SLPC   C25 6565   3.507   0.977   9.507 -0.4085 -0.6598  0.4122
   74SLPC   H5R 6566   3.604   1.026   9.482 -0.1974 -0.5893  1.3653
   74SLPC   H5S 6567   3.430   1.047   9.467 -1.6977 -2.6924 -0.7506
   74SLPC   C26 6568   3.490   0.841   9.430 -0.9136 -0.1250 -0.1767
   74SLPC   H6R 6569   3.551   0.759   9.472 -1.0890 -0.9156 -1.4205
   74SLPC   H6S 6570   3.516   0.847   9.322  1.9548 -4.5219  0.1475
   74SLPC   C27 6571   3.347   0.790   9.459 -0.4322  0.0209 -0.0828
   74SLPC   H7R 6572   3.281   0.876   9.433  1.5379  2.0037  1.1827
   74SLPC   H7S 6573   3.350   0.768   9.568  0.4876 -0.0406 -0.1159
   74SLPC   C28 6574   3.334   0.669   9.360 -0.5206  0.5440  0.5609
   74SLPC   H8R 6575   3.410   0.601   9.403  1.2865  1.5557 -0.9489
   74SLPC   H8S 6576   3.383   0.687   9.262  2.7528 -0.7601  1.8944
   74SLPC   C29 6577   3.196   0.606   9.331  0.1692 -0.1595  0.1772
   74SLPC   H9R 6578   3.140   0.584   9.423 -0.4145  1.8088  0.3266
   74SLPC  C210 6579   3.126   0.597   9.211 -0.2123 -0.3363  0.2085
   74SLPC  H10R 6580   3.026   0.550   9.211  0.7354 -2.5526 -2.6527
   74SLPC  C211 6581   3.179   0.646   9.081  0.1200 -0.0872 -0.0108
   74SLPC  H11R 6582   3.275   0.702   9.086  2.1001 -3.4042  0.7591
   74SLPC  H11S 6583   3.102   0.711   9.036  2.0779  2.0793 -0.3336
   74SLPC  C212 6584   3.204   0.521   8.994  0.0095 -0.1356  0.0799
   74SLPC  H12R 6585   3.224   0.429   9.051 -1.4537 -0.8610 -0.5571
   74SLPC  C213 6586   3.219   0.516   8.856  0.3947 -0.5979  0.2162
   74SLPC  H13R 6587   3.230   0.412   8.822  0.2572 -0.5173 -0.0730
   74SLPC  C214 6588   3.204   0.631   8.759 -0.3235  1.0760 -0.0491
   74SLPC  H14R 6589   3.222   0.725   8.816 -2.6646  1.2164  0.5027
   74SLPC  H14S 6590   3.097   0.642   8.732 -0.3563  0.0799 -0.3137
   74SLPC  C215 6591   3.287   0.637   8.629 -0.9833  0.2855 -0.2947
   74SLPC  H15R 6592   3.389   0.602   8.657 -2.1553 -0.8827  2.6777
   74SLPC  H15S 6593   3.294   0.738   8.583  0.2207 -0.0471 -0.8614
   74SLPC  C216 6594   3.237   0.538   8.521  0.6257 -0.4894  0.2016
   74SLPC  H16R 6595   3.140   0.571   8.477  0.8097  1.8130  1.4620
   74SLPC  H16S 6596   3.222   0.447   8.582  2.0077 -1.4393 -0.8392
   74SLPC  C217 6597   3.331   0.526   8.399 -0.3679  0.3026 -0.3693
   74SLPC  H17R 6598   3.434   0.498   8.431 -0.6027 -1.0484 -0.7540
   74SLPC  H17S 6599   3.347   0.621   8.345 -0.1891 -0.2747 -1.3322
   74SLPC  C218 6600   3.283   0.426   8.290  0.2072  0.6695 -0.7072
   74SLPC  H18R 6601   3.281   0.321   8.328  0.0979  0.6074 -0.8805
   74SLPC  H18S 6602   3.347   0.438   8.200  1.1980  0.7476  0.0006
   74SLPC  H18T 6603   3.178   0.452   8.262 -0.5794  1.5394  2.8783
   74SLPC   C33 6604   3.017   0.810   9.758 -0.1246 -0.7753  0.3652
   74SLPC   H3X 6605   2.943   0.881   9.801  1.5193  1.2040  0.0164
   74SLPC   H3Y 6606   3.017   0.718   9.821 -1.7536 -0.3022  1.0998
   74SLPC   C34 6607   2.991   0.782   9.610 -0.2559 -0.7032  0.7159
   74SLPC   H4X 6608   3.053   0.695   9.579 -0.6797 -0.5657 -0.5687
   74SLPC   H4Y 6609   3.032   0.864   9.548  0.4156 -1.0486  0.6998
   74SLPC   C35 6610   2.839   0.762   9.577 -0.5361  0.0045 -0.1206
   74SLPC   H5X 6611   2.777   0.847   9.613  0.2356  0.3141  0.4889
   74SLPC   H5Y 6612   2.820   0.671   9.638  0.3873  0.8001  1.3977
   74SLPC   C36 6613   2.827   0.746   9.430 -0.5588  1.1945  0.3174
   74SLPC   H6X 6614   2.909   0.678   9.398 -0.9727  0.6240  0.4493
   74SLPC   H6Y 6615   2.847   0.840   9.375  3.4356  0.3859  0.2438
   74SLPC   C37 6616   2.687   0.704   9.368  0.3672  0.0792  0.6035
   74SLPC   H7X 6617   2.647   0.630   9.441  0.1830 -0.2515  0.1650
   74SLPC   H7Y 6618   2.711   0.664   9.268  0.6273 -1.7872  1.3983
   74SLPC   C38 6619   2.581   0.820   9.376 -0.5649  0.3417  0.1135
   74SLPC   H8X 6620   2.616   0.898   9.306 -3.2294  1.0012 -0.5369
   74SLPC   H8Y 6621   2.569   0.851   9.482  0.9613  1.1933  0.0464
   74SLPC   C39 6622   2.447   0.772   9.325  0.9771  0.0936  0.2100
   74SLPC   H9X 6623   2.407   0.686   9.384  1.1948 -0.3051 -0.2150
   74SLPC   H9Y 6624   2.457   0.731   9.223  2.2902 -1.2400  0.8467
   74SLPC  C310 6625   2.342   0.881   9.310 -0.2524  0.1891 -0.4081
   74SLPC  H10X 6626   2.388   0.967   9.257  0.0579  0.3244  0.0813
   74SLPC  H10Y 6627   2.317   0.921   9.410 -1.6316  1.0408 -1.0814
   74SLPC  C311 6628   2.212   0.826   9.242 -0.3254  0.2195 -0.0401
   74SLPC  H11X 6629   2.181   0.731   9.291 -0.6999  0.4722  0.2154
   74SLPC  H11Y 6630   2.230   0.788   9.139 -0.5880 -1.5060  0.5267
   74SLPC  C312 6631   2.095   0.929   9.257  0.2254 -0.0121 -0.4238
   74SLPC  H12X 6632   2.043   0.934   9.159  0.6142 -0.2113 -0.6399
   74SLPC  H12Y 6633   2.141   1.025   9.288  0.0933  0.2595 -1.0599
   74SLPC  C313 6634   1.994   0.897   9.367 -0.0529 -0.1265 -0.3261
   74SLPC  H13X 6635   1.935   0.805   9.349  0.1359  0.3583 -3.7347
   74SLPC  H13Y 6636   1.917   0.978   9.375  1.6544  1.4771  0.3935
   74SLPC  C314 6637   2.062   0.890   9.503  0.5620 -0.5313  0.4260
   74SLPC  H14X 6638   2.115   0.987   9.513 -0.9882  0.1689  1.9701
   74SLPC  H14Y 6639   2.138   0.809   9.510 -0.4353 -1.5849 -0.6380
   74SLPC  C315 6640   1.964   0.881   9.616 -0.2054 -0.0335  0.6295
   74SLPC  H15X 6641   1.902   0.791   9.601 -2.1719  1.5211 -0.9928
   74SLPC  H15Y 6642   1.896   0.968   9.601 -0.9226  0.0264  4.0121
   74SLPC  C316 6643   2.037   0.870   9.751 -0.2606 -0.0904  0.1878
   74SLPC  H16X 6644   2.100   0.958   9.777 -1.2027  1.2247 -1.8876
   74SLPC  H16Y 6645   2.113   0.789   9.741 -0.1373  0.2756 -2.1485
   74SLPC  C317 6646   1.942   0.848   9.867 -0.1076 -0.0111  0.0968
   74SLPC  H17X 6647   1.889   0.755   9.836 -1.7760  1.1472 -0.6168
   74SLPC  H17Y 6648   1.871   0.934   9.868 -0.5604 -0.3514 -1.5511
   74SLPC  C318 6649   2.002   0.835  10.007 -0.2764 -0.7293  0.6074
   74SLPC  H18X 6650   1.914   0.826  10.076 -0.5486 -0.0332  0.3645
   74SLPC  H18Y 6651   2.073   0.916  10.033  0.7566 -0.3676 -3.0952
   74SLPC  H18Z 6652   2.065   0.744  10.003 -0.2440 -0.7431  1.3874
   75SLPC     N 6653   1.267   3.495   6.225 -0.1190  0.7697  0.1078
   75SLPC   C13 6654   1.247   3.528   6.085  0.4563  0.2546 -0.8609
   75SLPC  H13A 6655   1.335   3.509   6.025  2.2695  1.1845  1.4355
   75SLPC  H13B 6656   1.170   3.462   6.048  0.5782 -0.4544  0.1286
   75SLPC  H13C 6657   1.225   3.633   6.072  2.3229  0.5958 -1.4371
   75SLPC   C14 6658   1.134   3.503   6.301 -0.0422 -0.1245 -0.3100
   75SLPC  H14A 6659   1.064   3.426   6.273 -0.0500 -0.1831 -0.1299
   75SLPC  H14B 6660   1.150   3.483   6.406  2.6509 -1.7594 -0.9901
   75SLPC  H14C 6661   1.082   3.597   6.289  0.6339  0.0214 -2.1047
   75SLPC   C15 6662   1.365   3.591   6.281 -0.8690 -0.4291  0.1217
   75SLPC  H15A 6663   1.393   3.565   6.382  1.4680  0.2210 -0.3281
   75SLPC  H15B 6664   1.452   3.593   6.217 -0.8735  0.8505  0.1365
   75SLPC  H15C 6665   1.326   3.692   6.282 -4.0965 -1.5890 -0.5040
   75SLPC   C12 6666   1.311   3.346   6.238 -0.3369 -0.7489 -0.1853
   75SLPC  H12A 6667   1.416   3.330   6.218  0.3097  2.4264  0.3432
   75SLPC  H12B 6668   1.259   3.290   6.162 -1.1998  1.0223 -0.9494
   75SLPC   C11 6669   1.284   3.276   6.374 -0.7046  0.3826  0.6762
   75SLPC  H11A 6670   1.323   3.341   6.455 -2.2547 -0.3986  2.0736
   75SLPC  H11B 6671   1.345   3.184   6.380 -1.8502 -0.5026 -0.7742
   75SLPC     P 6672   1.078   3.230   6.541 -0.1393 -0.2146 -0.1459
   75SLPC   O13 6673   0.965   3.327   6.532 -0.1008  0.6911  0.4070
   75SLPC   O14 6674   1.041   3.091   6.571  0.8267 -0.0054 -0.4038
   75SLPC   O12 6675   1.145   3.239   6.395 -0.1522  0.2987  0.2713
   75SLPC   O11 6676   1.191   3.284   6.636  0.0268  0.0909 -0.8536
   75SLPC    C1 6677   1.231   3.219   6.756  0.1013 -0.5930  0.2617
   75SLPC    HA 6678   1.217   3.110   6.745  0.3599 -0.5765 -0.2163
   75SLPC    HB 6679   1.342   3.230   6.762  0.1398 -0.6946 -0.3031
   75SLPC    C2 6680   1.146   3.258   6.882  0.2155 -0.0389  0.6060
   75SLPC    HS 6681   1.042   3.239   6.848  0.4561 -0.1241 -0.0915
   75SLPC   O21 6682   1.165   3.397   6.918 -0.4877 -0.0739 -0.0412
   75SLPC   C21 6683   1.054   3.458   6.947  0.0280 -0.1585  0.4084
   75SLPC   O22 6684   0.946   3.404   6.962  0.4751 -0.1293 -0.1051
   75SLPC   C22 6685   1.065   3.613   6.956  0.2538 -0.2672 -0.3536
   75SLPC   H2R 6686   1.080   3.644   6.850  0.0978 -0.9173 -0.5663
   75SLPC   H2S 6687   0.966   3.645   6.995 -0.4635 -2.4133 -0.3758
   75SLPC    C3 6688   1.170   3.153   6.988  0.3375 -0.2388 -0.1672
   75SLPC    HX 6689   1.274   3.161   7.027  0.0275 -1.4480  0.9114
   75SLPC    HY 6690   1.160   3.049   6.951 -0.4152 -0.6372  1.1540
   75SLPC   O31 6691   1.072   3.166   7.097  0.3070  0.4766 -0.0906
   75SLPC   C31 6692   1.105   3.229   7.212  0.2225  0.1190  0.6653
   75SLPC   O32 6693   1.210   3.284   7.228  0.1988  0.5979  0.4572
   75SLPC   C32 6694   0.985   3.221   7.305  0.1232  0.3333 -0.8959
   75SLPC   H2X 6695   0.930   3.130   7.273 -0.7527  0.1272  1.1514
   75SLPC   H2Y 6696   0.917   3.307   7.292  0.0552 -0.0251 -3.1446
   75SLPC   C23 6697   1.180   3.665   7.047  0.6386 -0.0753  0.0234
   75SLPC   H3R 6698   1.177   3.776   7.045  2.0891  0.0001  1.7049
   75SLPC   H3S 6699   1.278   3.631   7.006 -0.4320 -2.4757 -0.6137
   75SLPC   C24 6700   1.169   3.617   7.200  0.7847 -0.2752  0.0562
   75SLPC   H4R 6701   1.273   3.627   7.239  1.8869  0.9346 -2.9617
   75SLPC   H4S 6702   1.140   3.512   7.181 -0.3780  0.1314 -0.4348
   75SLPC   C25 6703   1.077   3.710   7.283 -0.1264  1.1736  0.5179
   75SLPC   H5R 6704   0.983   3.729   7.228 -0.2876 -0.5954  0.1486
   75SLPC   H5S 6705   1.123   3.811   7.287  1.6375  0.4306 -0.2189
   75SLPC   C26 6706   1.056   3.652   7.426 -0.1216  0.7062 -0.0760
   75SLPC   H6R 6707   0.977   3.574   7.427  0.2529  0.3264  1.6967
   75SLPC   H6S 6708   1.012   3.726   7.496  0.0444  0.8121 -0.0840
   75SLPC   C27 6709   1.182   3.600   7.494  0.1707  1.1599 -0.0595
   75SLPC   H7R 6710   1.263   3.672   7.469  2.6810 -0.2887  3.3999
   75SLPC   H7S 6711   1.213   3.502   7.452 -2.7786  0.0729  0.2191
   75SLPC   C28 6712   1.189   3.605   7.649 -0.2323 -0.0458 -0.5853
   75SLPC   H8R 6713   1.184   3.714   7.670  1.8817  0.5321 -2.8369
   75SLPC   H8S 6714   1.292   3.575   7.679 -0.8753 -0.5378  1.1620
   75SLPC   C29 6715   1.079   3.523   7.706  0.3301  1.0242 -0.6951
   75SLPC   H9R 6716   1.046   3.438   7.643  0.3889  0.4669  0.0192
   75SLPC  C210 6717   1.010   3.535   7.826  0.2247 -0.8114  0.3915
   75SLPC  H10R 6718   0.932   3.461   7.850  0.0304  0.0484  2.5034
   75SLPC  C211 6719   1.048   3.643   7.927 -0.0864 -0.4156  0.4592
   75SLPC  H11R 6720   1.083   3.736   7.876 -0.3669  0.0441  1.0965
   75SLPC  H11S 6721   1.149   3.615   7.964  0.9581 -0.3620 -2.2552
   75SLPC  C212 6722   0.951   3.676   8.039 -0.6033 -0.3205  0.2348
   75SLPC  H12R 6723   0.847   3.647   8.020 -0.5613 -0.2313 -0.1379
   75SLPC  C213 6724   0.994   3.719   8.159  0.5476  0.1397 -0.3626
   75SLPC  H13R 6725   0.924   3.728   8.243  1.4488 -0.9082  0.5130
   75SLPC  C214 6726   1.137   3.752   8.203  0.2041  0.2329 -0.2461
   75SLPC  H14R 6727   1.213   3.688   8.153 -1.5774 -3.2187  1.2318
   75SLPC  H14S 6728   1.156   3.730   8.310 -1.1887 -2.4450 -0.5014
   75SLPC  C215 6729   1.176   3.903   8.198 -1.0525 -0.2678 -0.5527
   75SLPC  H15R 6730   1.091   3.974   8.201 -1.4361 -0.7020 -1.1539
   75SLPC  H15S 6731   1.215   3.918   8.095 -1.9499  0.1359 -0.8362
   75SLPC  C216 6732   1.309   3.947   8.268  0.0781 -0.6057  0.6225
   75SLPC  H16R 6733   1.312   4.057   8.258  0.6242 -0.4702  2.0402
   75SLPC  H16S 6734   1.405   3.907   8.229  0.5034 -0.1822  1.2225
   75SLPC  C217 6735   1.317   3.911   8.415 -0.0159 -0.0350 -0.2552
   75SLPC  H17R 6736   1.409   3.960   8.453 -1.0232  0.1616  2.0023
   75SLPC  H17S 6737   1.346   3.804   8.424 -0.6111 -0.2212 -0.5329
   75SLPC  C218 6738   1.206   3.952   8.510  0.4862  0.5795  0.6215
   75SLPC  H18R 6739   1.105   3.928   8.472  0.5958 -0.2783  0.8788
   75SLPC  H18S 6740   1.208   4.063   8.511  0.5507  0.5970 -0.5242
   75SLPC  H18T 6741   1.212   3.901   8.608  1.4369 -0.2716  0.1303
   75SLPC   C33 6742   1.028   3.201   7.452 -0.1007  0.4625  0.5540
   75SLPC   H3X 6743   1.103   3.120   7.461  0.5140  1.0610  0.9171
   75SLPC   H3Y 6744   1.083   3.294   7.478 -0.8306  0.2061  3.1468
   75SLPC   C34 6745   0.913   3.179   7.553  0.1616  0.2629  0.2449
   75SLPC   H4X 6746   0.866   3.082   7.525  2.1566 -1.2593  1.8780
   75SLPC   H4Y 6747   0.847   3.267   7.543  1.3531  1.2266  0.7523
   75SLPC   C35 6748   0.947   3.176   7.706  0.0179  0.0712  0.4937
   75SLPC   H5X 6749   1.014   3.261   7.730  1.1877 -0.3229 -1.2655
   75SLPC   H5Y 6750   1.005   3.088   7.740  0.7306 -0.2707 -1.5138
   75SLPC   C36 6751   0.825   3.176   7.792 -0.5759  0.7621  0.4334
   75SLPC   H6X 6752   0.786   3.074   7.773 -0.5413  1.0387 -1.2212
   75SLPC   H6Y 6753   0.757   3.262   7.775  1.3988  2.1416 -0.7060
   75SLPC   C37 6754   0.843   3.178   7.939  0.0490  0.4558 -0.3599
   75SLPC   H7X 6755   0.850   3.286   7.964  0.1096  1.1002 -3.0794
   75SLPC   H7Y 6756   0.944   3.134   7.958  0.4900  1.3358 -0.6141
   75SLPC   C38 6757   0.730   3.113   8.029 -0.1684  0.7185  0.3804
   75SLPC   H8X 6758   0.720   3.004   8.012  1.1034  0.5842  0.4658
   75SLPC   H8Y 6759   0.629   3.159   8.020  0.2856  2.0556  1.8704
   75SLPC   C39 6760   0.774   3.104   8.172  0.2513  0.0659 -0.4944
   75SLPC   H9X 6761   0.696   3.051   8.231 -0.3008  0.1647 -1.1250
   75SLPC   H9Y 6762   0.777   3.204   8.221  0.2694 -0.0795 -0.1954
   75SLPC  C310 6763   0.895   3.019   8.205  0.4014  0.5063 -0.3200
   75SLPC  H10X 6764   0.991   3.054   8.162  0.4621  1.0673  0.2663
   75SLPC  H10Y 6765   0.886   2.914   8.169 -0.8053  1.3132 -2.4329
   75SLPC  C311 6766   0.917   3.010   8.361  0.2512  0.0897  0.1419
   75SLPC  H11X 6767   0.820   2.966   8.394 -0.4633 -1.3653 -3.5876
   75SLPC  H11Y 6768   0.930   3.114   8.397  1.8217  0.1694 -0.6294
   75SLPC  C312 6769   1.040   2.938   8.414  0.1402 -0.4365 -0.1668
   75SLPC  H12X 6770   1.077   2.992   8.503  1.6015 -0.9354 -0.4576
   75SLPC  H12Y 6771   1.125   2.933   8.342 -0.3506 -1.0449 -0.7149
   75SLPC  C313 6772   1.021   2.804   8.484  0.0105 -0.3133 -0.2611
   75SLPC  H13X 6773   0.991   2.731   8.406 -1.8664  0.5942 -0.4236
   75SLPC  H13Y 6774   0.937   2.813   8.555  1.9958  3.1112  1.8015
   75SLPC  C314 6775   1.139   2.756   8.568 -0.1820  0.2014  0.1783
   75SLPC  H14X 6776   1.218   2.716   8.501  0.9050 -1.5186  2.4278
   75SLPC  H14Y 6777   1.083   2.679   8.626 -1.8992 -0.0840 -1.7956
   75SLPC  C315 6778   1.207   2.857   8.655 -0.5730 -0.5083  0.2466
   75SLPC  H15X 6779   1.254   2.817   8.747 -1.0556  0.3575  0.8748
   75SLPC  H15Y 6780   1.138   2.937   8.692  3.2943  2.5159  1.2208
   75SLPC  C316 6781   1.316   2.945   8.587  0.3336  0.0392  0.3115
   75SLPC  H16X 6782   1.278   3.019   8.513 -0.2828 -0.5215  0.0610
   75SLPC  H16Y 6783   1.374   2.869   8.532  0.7106 -0.4467  1.3707
   75SLPC  C317 6784   1.404   3.020   8.685 -0.0630 -0.1700  0.4366
   75SLPC  H17X 6785   1.493   3.060   8.630  0.3089  0.7430  1.6745
   75SLPC  H17Y 6786   1.439   2.939   8.752 -1.0075 -0.0354  1.0998
   75SLPC  C318 6787   1.341   3.135   8.765 -0.5005 -0.0083  0.6563
   75SLPC  H18X 6788   1.237   3.098   8.779 -1.2755  1.1436 -1.9032
   75SLPC  H18Y 6789   1.333   3.223   8.699 -0.2272  1.5796  2.7013
   75SLPC  H18Z 6790   1.381   3.163   8.865  0.5040 -1.8389  0.7962
   76SLPC     N 6791   3.604   1.649   5.910 -0.1932  1.1994  0.0213
   76SLPC   C13 6792   3.733   1.681   5.836  0.2504  0.6015  0.1108
   76SLPC  H13A 6793   3.793   1.591   5.828 -0.4728  0.3421 -3.1357
   76SLPC  H13B 6794   3.711   1.718   5.737 -0.2677 -0.0060 -0.0027
   76SLPC  H13C 6795   3.785   1.755   5.895 -0.4491 -0.8613  2.6167
   76SLPC   C14 6796   3.545   1.533   5.840 -0.3900  0.3809  0.3398
   76SLPC  H14A 6797   3.458   1.493   5.891 -0.7783  0.0141 -0.6067
   76SLPC  H14B 6798   3.524   1.563   5.739  2.5619 -0.8836 -0.7052
   76SLPC  H14C 6799   3.615   1.451   5.832 -0.7694  0.2168 -1.3803
   76SLPC   C15 6800   3.519   1.775   5.917 -0.1218  0.5533 -0.1210
   76SLPC  H15A 6801   3.578   1.845   5.974  2.4190 -3.2623  2.1686
   76SLPC  H15B 6802   3.497   1.816   5.820 -2.0746 -1.1175 -0.4296
   76SLPC  H15C 6803   3.424   1.757   5.966 -1.2062  0.2426 -2.2594
   76SLPC   C12 6804   3.638   1.607   6.050 -0.4561  0.5772 -0.4901
   76SLPC  H12A 6805   3.700   1.684   6.093  2.2807 -2.2784  0.8043
   76SLPC  H12B 6806   3.711   1.529   6.038 -1.0492 -0.0753  0.1076
   76SLPC   C11 6807   3.537   1.560   6.162 -0.0827  0.1500  0.0113
   76SLPC  H11A 6808   3.589   1.533   6.256 -0.6301  3.1278  1.2333
   76SLPC  H11B 6809   3.485   1.463   6.146 -0.3527  0.5830 -1.7845
   76SLPC     P 6810   3.476   1.771   6.295  0.0168  0.4104 -0.3345
   76SLPC   O13 6811   3.622   1.778   6.326  0.2655 -0.1080 -0.4380
   76SLPC   O14 6812   3.413   1.903   6.260  0.0942 -0.2717  0.0754
   76SLPC   O12 6813   3.437   1.661   6.194  0.1888 -0.3723  0.0103
   76SLPC   O11 6814   3.405   1.722   6.430  0.0608  0.5972  0.0039
   76SLPC    C1 6815   3.273   1.675   6.415  0.0588 -0.2557  0.0707
   76SLPC    HA 6816   3.206   1.740   6.355 -0.9436 -0.5388  0.8745
   76SLPC    HB 6817   3.275   1.571   6.376  0.5073  0.2485 -1.2497
   76SLPC    C2 6818   3.196   1.663   6.548  0.2830 -0.1859 -0.0443
   76SLPC    HS 6819   3.117   1.741   6.545  0.5952  0.1754  0.9438
   76SLPC   O21 6820   3.281   1.698   6.656 -0.7332  0.8550 -0.2588
   76SLPC   C21 6821   3.318   1.825   6.677  0.3271 -0.5515  0.3585
   76SLPC   O22 6822   3.281   1.921   6.610  0.0505 -0.0055  0.2907
   76SLPC   C22 6823   3.416   1.836   6.796  0.2078 -0.7092  0.4731
   76SLPC   H2R 6824   3.454   1.734   6.815  1.6180 -0.3033 -0.0895
   76SLPC   H2S 6825   3.493   1.910   6.767 -0.1338  0.5946  2.7561
   76SLPC    C3 6826   3.128   1.525   6.562 -0.2704 -0.5456  0.3330
   76SLPC    HX 6827   3.210   1.454   6.537  0.8983  0.1387  2.0513
   76SLPC    HY 6828   3.046   1.512   6.489 -0.8621 -1.3209  1.1275
   76SLPC   O31 6829   3.080   1.492   6.695 -0.0028 -0.3251 -0.1972
   76SLPC   C31 6830   2.971   1.563   6.731 -0.0445 -0.0642  0.2979
   76SLPC   O32 6831   2.921   1.654   6.669 -0.1964 -0.0239 -0.3882
   76SLPC   C32 6832   2.924   1.512   6.868  0.2581  0.4735 -1.0849
   76SLPC   H2X 6833   2.957   1.406   6.881  0.5487  0.8242  1.2824
   76SLPC   H2Y 6834   2.813   1.507   6.864  0.4025 -2.5014 -2.7016
   76SLPC   C23 6835   3.338   1.901   6.914  0.1334  0.0965 -0.6705
   76SLPC   H3R 6836   3.267   1.976   6.872  0.5302  0.4906 -0.6467
   76SLPC   H3S 6837   3.404   1.956   6.985 -1.1317  1.4297 -0.4783
   76SLPC   C24 6838   3.262   1.804   7.002 -0.2464 -0.0111 -0.4288
   76SLPC   H4R 6839   3.337   1.740   7.055 -0.8497 -2.2472 -2.1986
   76SLPC   H4S 6840   3.199   1.733   6.944  0.9885 -2.4088  1.0513
   76SLPC   C25 6841   3.168   1.869   7.107  0.3131 -0.5681 -0.0933
   76SLPC   H5R 6842   3.109   1.790   7.158  0.3450  0.1107  1.0091
   76SLPC   H5S 6843   3.105   1.943   7.053 -2.2102 -0.6471  2.6049
   76SLPC   C26 6844   3.239   1.944   7.216 -0.7103 -0.6903  0.6036
   76SLPC   H6R 6845   3.160   2.015   7.248 -1.6475 -1.2438 -0.4573
   76SLPC   H6S 6846   3.329   1.995   7.174 -1.5975 -0.4072 -1.0114
   76SLPC   C27 6847   3.272   1.859   7.338  0.2252 -0.9064  0.0066
   76SLPC   H7R 6848   3.364   1.798   7.326  1.9283  0.8572  3.4824
   76SLPC   H7S 6849   3.186   1.789   7.353 -0.8663  0.9155  2.6385
   76SLPC   C28 6850   3.291   1.937   7.471  0.9213 -0.4753 -0.0914
   76SLPC   H8R 6851   3.345   2.031   7.449 -0.8229  0.8086  0.9160
   76SLPC   H8S 6852   3.190   1.966   7.507  1.3539 -0.3279  1.0245
   76SLPC   C29 6853   3.370   1.860   7.567 -0.6587  0.1674 -0.6944
   76SLPC   H9R 6854   3.447   1.806   7.510  0.3586  1.2404 -0.3341
   76SLPC  C210 6855   3.364   1.855   7.702  0.6911  0.1538 -0.4684
   76SLPC  H10R 6856   3.432   1.784   7.751  0.4667 -0.8500 -1.5887
   76SLPC  C211 6857   3.256   1.917   7.790 -1.3513 -0.7477  0.7602
   76SLPC  H11R 6858   3.189   1.981   7.729  1.3065  2.0238  0.6597
   76SLPC  H11S 6859   3.300   1.988   7.863  3.3233 -0.0627 -2.4842
   76SLPC  C212 6860   3.184   1.797   7.857 -0.3255  0.2142 -0.4975
   76SLPC  H12R 6861   3.156   1.709   7.797  0.8094 -1.5716  1.5530
   76SLPC  C213 6862   3.147   1.782   7.985 -0.4840 -0.1630  1.0643
   76SLPC  H13R 6863   3.098   1.687   8.012 -1.4061  0.5305  1.9031
   76SLPC  C214 6864   3.168   1.881   8.097 -0.2942 -0.3774 -0.2921
   76SLPC  H14R 6865   3.229   1.964   8.056 -1.4252 -0.0369 -1.3227
   76SLPC  H14S 6866   3.236   1.839   8.174  0.5956 -0.6446 -1.2055
   76SLPC  C215 6867   3.039   1.934   8.173 -0.7994  0.8452 -0.2149
   76SLPC  H15R 6868   2.967   1.977   8.101 -1.1656  0.3111 -0.1726
   76SLPC  H15S 6869   3.064   2.015   8.244  1.8269  0.2618 -0.4259
   76SLPC  C216 6870   2.960   1.821   8.242  0.0057  0.0803 -0.2700
   76SLPC  H16R 6871   3.037   1.764   8.297 -0.2616  0.4974  0.5548
   76SLPC  H16S 6872   2.915   1.743   8.178  0.4533  0.3292 -0.8858
   76SLPC  C217 6873   2.852   1.878   8.335  0.1294 -0.4915  0.5617
   76SLPC  H17R 6874   2.793   1.956   8.281  1.0527 -0.1437  0.0548
   76SLPC  H17S 6875   2.899   1.947   8.408  0.0090  0.8795 -0.6400
   76SLPC  C218 6876   2.781   1.755   8.385  0.0925  0.0065  0.2263
   76SLPC  H18R 6877   2.739   1.699   8.299  1.9898 -1.8724  0.4696
   76SLPC  H18S 6878   2.697   1.788   8.450 -0.8819 -1.6391 -0.1758
   76SLPC  H18T 6879   2.848   1.685   8.440  2.5322  2.3597  0.3382
   76SLPC   C33 6880   2.951   1.598   6.991 -0.1600  0.5147  0.6956
   76SLPC   H3X 6881   2.918   1.701   6.967  2.5180  1.0937 -0.6738
   76SLPC   H3Y 6882   3.050   1.589   7.040 -0.7751 -1.8485  1.5823
   76SLPC   C34 6883   2.847   1.562   7.110 -0.1792  0.0120 -0.0194
   76SLPC   H4X 6884   2.889   1.463   7.137 -0.8526 -0.7446 -1.6652
   76SLPC   H4Y 6885   2.744   1.559   7.066 -0.5319 -0.6560  0.8436
   76SLPC   C35 6886   2.853   1.663   7.227  0.4409 -0.0675  0.4417
   76SLPC   H5X 6887   2.813   1.762   7.198  0.2182 -0.4168 -0.4562
   76SLPC   H5Y 6888   2.961   1.684   7.244 -0.2647  2.6667  1.8605
   76SLPC   C36 6889   2.780   1.631   7.359  0.1480  0.0526 -0.1492
   76SLPC   H6X 6890   2.820   1.533   7.394  0.6073 -0.1550 -1.2399
   76SLPC   H6Y 6891   2.672   1.636   7.335  0.2751 -0.6902 -0.9140
   76SLPC   C37 6892   2.810   1.733   7.469  0.7511  0.4689 -0.2770
   76SLPC   H7X 6893   2.755   1.828   7.452 -0.8757 -0.5148 -0.5835
   76SLPC   H7Y 6894   2.920   1.753   7.473  0.9613 -0.8752  1.5311
   76SLPC   C38 6895   2.760   1.682   7.604  0.3349 -0.3163  0.3123
   76SLPC   H8X 6896   2.826   1.597   7.632 -1.6057 -1.7417  0.6549
   76SLPC   H8Y 6897   2.656   1.644   7.595  0.7910 -1.0698 -2.2187
   76SLPC   C39 6898   2.770   1.789   7.721 -0.0578  0.4901 -0.2770
   76SLPC   H9X 6899   2.672   1.841   7.718  0.0855  0.7183 -1.5665
   76SLPC   H9Y 6900   2.850   1.863   7.698  1.4759 -1.6815 -2.3106
   76SLPC  C310 6901   2.796   1.727   7.855  0.2006  0.1241  0.3568
   76SLPC  H10X 6902   2.810   1.798   7.939 -1.4516  1.1679 -0.2391
   76SLPC  H10Y 6903   2.889   1.667   7.845  0.4062  0.5266 -0.1953
   76SLPC  C311 6904   2.683   1.632   7.904 -0.3425 -0.2265 -0.6754
   76SLPC  H11X 6905   2.664   1.561   7.821 -3.9892  0.5160 -0.5524
   76SLPC  H11Y 6906   2.587   1.683   7.923 -1.0434 -1.7373 -0.0456
   76SLPC  C312 6907   2.710   1.552   8.039  0.6701 -0.2666  0.3942
   76SLPC  H12X 6908   2.721   1.621   8.125 -0.1031  1.1087 -0.6052
   76SLPC  H12Y 6909   2.802   1.491   8.025  0.1854 -1.4158  2.0036
   76SLPC  C313 6910   2.587   1.457   8.059 -0.7057  0.1834  1.1056
   76SLPC  H13X 6911   2.547   1.408   7.967  1.4516  0.2448  0.1062
   76SLPC  H13Y 6912   2.509   1.513   8.115 -0.4886 -0.2990  1.8982
   76SLPC  C314 6913   2.631   1.335   8.138 -0.2757 -0.0880 -0.1083
   76SLPC  H14X 6914   2.713   1.285   8.082  0.7184 -0.0011  1.2268
   76SLPC  H14Y 6915   2.552   1.259   8.154 -0.7589  0.4168 -0.0960
   76SLPC  C315 6916   2.682   1.368   8.274  0.0377  0.3538  0.0928
   76SLPC  H15X 6917   2.596   1.410   8.330  0.2090  1.1322 -0.2188
   76SLPC  H15Y 6918   2.761   1.447   8.276  0.5792 -0.1748 -0.1719
   76SLPC  C316 6919   2.736   1.240   8.348 -0.2523 -0.4248  0.4535
   76SLPC  H16X 6920   2.821   1.195   8.291 -0.0293  0.6164 -0.0546
   76SLPC  H16Y 6921   2.655   1.165   8.355 -1.2048  0.6940  1.5582
   76SLPC  C317 6922   2.783   1.280   8.488  0.1427  0.1425  0.0741
   76SLPC  H17X 6923   2.695   1.305   8.551  0.8643  0.3137  1.0323
   76SLPC  H17Y 6924   2.838   1.376   8.485 -1.0814  0.8055 -2.0114
   76SLPC  C318 6925   2.867   1.176   8.555  0.3620 -0.8616  0.3325
   76SLPC  H18X 6926   2.964   1.144   8.513 -0.4030  0.5525 -2.5953
   76SLPC  H18Y 6927   2.804   1.084   8.560 -0.7752 -0.1058  0.1695
   76SLPC  H18Z 6928   2.886   1.201   8.662 -3.7167 -0.4010  1.0388
   77SLPC     N 6929   5.451   0.893   6.465  0.0834  0.3093 -0.3097
   77SLPC   C13 6930   5.302   0.889   6.449  0.9949  0.2945  0.0558
   77SLPC  H13A 6931   5.254   0.983   6.473 -1.3905 -0.9183  0.1810
   77SLPC  H13B 6932   5.278   0.878   6.345 -1.5321  0.8991  0.5499
   77SLPC  H13C 6933   5.258   0.806   6.503  4.7230 -0.9019  1.4265
   77SLPC   C14 6934   5.514   0.776   6.389  0.2578  0.4872 -0.5496
   77SLPC  H14A 6935   5.490   0.688   6.447 -2.8349  1.4455 -0.2706
   77SLPC  H14B 6936   5.482   0.767   6.287  0.9840 -0.4177 -0.6995
   77SLPC  H14C 6937   5.621   0.781   6.400  0.3447  0.6064 -1.4699
   77SLPC   C15 6938   5.487   0.874   6.617  0.3593  0.5438  0.1558
   77SLPC  H15A 6939   5.589   0.840   6.632  0.9824  2.3750  0.1971
   77SLPC  H15B 6940   5.455   0.955   6.680 -2.5643  1.0401 -1.8411
   77SLPC  H15C 6941   5.424   0.796   6.655 -0.7290  2.7824  3.0854
   77SLPC   C12 6942   5.515   1.024   6.412  0.6353 -0.4958 -0.0747
   77SLPC  H12A 6943   5.505   1.027   6.305  0.9225 -1.6120 -0.1323
   77SLPC  H12B 6944   5.621   1.023   6.435  0.6765  1.5607 -0.0941
   77SLPC   C11 6945   5.467   1.158   6.467 -0.4322  0.2992 -0.1666
   77SLPC  H11A 6946   5.444   1.142   6.575 -0.6855 -0.4543 -0.3289
   77SLPC  H11B 6947   5.365   1.185   6.431  0.5633  3.1293 -1.0259
   77SLPC     P 6948   5.712   1.259   6.469 -0.1684  0.2317  0.2117
   77SLPC   O13 6949   5.770   1.130   6.411 -0.1944 -0.8679  0.4431
   77SLPC   O14 6950   5.770   1.386   6.412 -0.2847 -0.0955 -0.2473
   77SLPC   O12 6951   5.559   1.262   6.439 -0.1105 -0.1324  0.6857
   77SLPC   O11 6952   5.711   1.259   6.626 -0.1778  0.0123 -0.0001
   77SLPC    C1 6953   5.626   1.357   6.691  0.2910 -0.4966  0.0722
   77SLPC    HA 6954   5.521   1.361   6.654  0.5772  0.5059 -0.6248
   77SLPC    HB 6955   5.610   1.332   6.799 -0.6185  1.8947  0.5168
   77SLPC    C2 6956   5.674   1.503   6.689  0.2414 -0.9113 -0.3283
   77SLPC    HS 6957   5.690   1.535   6.583  1.0799 -0.9968 -0.2327
   77SLPC   O21 6958   5.798   1.522   6.753  0.3652  0.8759 -0.3004
   77SLPC   C21 6959   5.857   1.636   6.725  0.3396  0.0982 -0.2370
   77SLPC   O22 6960   5.824   1.715   6.641 -0.5039  0.3169  0.8030
   77SLPC   C22 6961   5.965   1.652   6.826 -0.2833  0.0987  0.2397
   77SLPC   H2R 6962   6.024   1.560   6.844 -0.4004 -0.1495 -0.6224
   77SLPC   H2S 6963   6.024   1.730   6.773 -0.1875  1.1809  1.9008
   77SLPC    C3 6964   5.556   1.587   6.745  0.0241 -0.1437 -0.3511
   77SLPC    HX 6965   5.458   1.557   6.702 -1.0891 -1.4342  2.9389
   77SLPC    HY 6966   5.568   1.696   6.726  0.1843 -0.5344 -2.6948
   77SLPC   O31 6967   5.544   1.559   6.884  0.4511  0.9232  0.6160
   77SLPC   C31 6968   5.421   1.562   6.944 -0.9031 -0.4358 -0.0056
   77SLPC   O32 6969   5.323   1.592   6.878  0.2089  0.3822  0.5550
   77SLPC   C32 6970   5.414   1.485   7.086 -0.3812 -0.1697  0.5126
   77SLPC   H2X 6971   5.520   1.458   7.105 -0.5056 -1.5578 -0.7011
   77SLPC   H2Y 6972   5.359   1.392   7.062  0.0878 -0.2060 -0.4432
   77SLPC   C23 6973   5.911   1.714   6.959  0.5117 -0.0065  0.1782
   77SLPC   H3R 6974   5.810   1.758   6.944  1.5944  2.8395  1.0606
   77SLPC   H3S 6975   5.972   1.803   6.984 -1.0949  0.6490  1.8516
   77SLPC   C24 6976   5.908   1.619   7.082 -0.2410  0.6389 -0.0262
   77SLPC   H4R 6977   6.015   1.590   7.081  0.2120  2.2772 -0.4176
   77SLPC   H4S 6978   5.850   1.530   7.047  1.0324 -0.7031  1.2099
   77SLPC   C25 6979   5.872   1.679   7.217 -0.5819 -0.6313  0.6096
   77SLPC   H5R 6980   5.769   1.720   7.219 -1.6177 -3.1803  1.7483
   77SLPC   H5S 6981   5.946   1.761   7.227 -2.1438  0.8462  0.2610
   77SLPC   C26 6982   5.902   1.575   7.325  0.2880  0.6930 -0.2191
   77SLPC   H6R 6983   5.914   1.638   7.416  1.1221  0.2855 -0.0428
   77SLPC   H6S 6984   6.003   1.530   7.317  1.0852  2.3855  0.1237
   77SLPC   C27 6985   5.800   1.466   7.347  0.3647  1.0081 -0.4202
   77SLPC   H7R 6986   5.788   1.408   7.253  0.4098  2.1171 -1.1225
   77SLPC   H7S 6987   5.704   1.513   7.375 -0.4879 -1.4494  0.9304
   77SLPC   C28 6988   5.830   1.367   7.457 -0.5477 -0.0823 -0.6992
   77SLPC   H8R 6989   5.915   1.305   7.421 -0.2723  0.1588 -0.4719
   77SLPC   H8S 6990   5.750   1.290   7.470  1.2177 -1.5169  2.3588
   77SLPC   C29 6991   5.862   1.429   7.592  0.0396  0.0709  0.4388
   77SLPC   H9R 6992   5.780   1.484   7.640 -1.4749 -2.5816  1.0172
   77SLPC  C210 6993   5.980   1.401   7.656  0.1294 -0.9747 -0.3539
   77SLPC  H10R 6994   5.993   1.452   7.753 -0.7523  0.9949 -1.2450
   77SLPC  C211 6995   6.102   1.312   7.624  0.0020 -0.2973 -0.7964
   77SLPC  H11R 6996   6.178   1.379   7.578 -1.0194  1.6396  0.3075
   77SLPC  H11S 6997   6.067   1.236   7.551 -2.4553  0.1111 -0.1047
   77SLPC  C212 6998   6.171   1.251   7.740  0.4053 -0.2890  0.3369
   77SLPC  H12R 6999   6.108   1.259   7.830 -0.5733 -0.3423 -0.3413
   77SLPC  C213 7000   6.288   1.184   7.738 -0.1327  0.1787  0.5010
   77SLPC  H13R 7001   6.331   1.151   7.834  1.2198  1.6624  0.4181
   77SLPC  C214 7002   6.364   1.150   7.613 -1.0383 -0.0567 -0.7651
   77SLPC  H14R 7003   6.470   1.182   7.618 -0.2018 -2.3069 -2.9197
   77SLPC  H14S 7004   6.327   1.205   7.524 -1.7927 -3.2343 -2.5163
   77SLPC  C215 7005   6.358   0.994   7.588  0.2029  0.4459 -0.2640
   77SLPC  H15R 7006   6.257   0.950   7.576 -0.2200  1.2255  0.3741
   77SLPC  H15S 7007   6.415   0.950   7.673  1.4985  1.4233 -0.6063
   77SLPC  C216 7008   6.447   0.970   7.464 -0.7398  0.4719  0.1194
   77SLPC  H16R 7009   6.446   0.859   7.453 -1.3833  0.5658 -0.8005
   77SLPC  H16S 7010   6.549   1.004   7.490  0.6581 -0.3443 -3.9470
   77SLPC  C217 7011   6.398   1.032   7.329 -0.3442  0.1393  0.3653
   77SLPC  H17R 7012   6.422   1.139   7.346  2.2253 -0.8728  3.5225
   77SLPC  H17S 7013   6.296   1.004   7.296 -1.1987  1.4251  1.8560
   77SLPC  C218 7014   6.477   0.974   7.213 -0.5044 -0.1780  0.4114
   77SLPC  H18R 7015   6.584   0.969   7.239  0.8211 -1.1000 -4.6890
   77SLPC  H18S 7016   6.473   1.033   7.119  3.2804  0.1565  0.4123
   77SLPC  H18T 7017   6.428   0.878   7.185 -0.9464  0.4422 -1.0239
   77SLPC   C33 7018   5.345   1.574   7.188 -0.2004  0.5224 -0.5095
   77SLPC   H3X 7019   5.235   1.567   7.173 -0.3813 -0.0044  0.9650
   77SLPC   H3Y 7020   5.374   1.680   7.173  0.0714  0.6571  0.8660
   77SLPC   C34 7021   5.393   1.534   7.331 -0.2695 -0.0336  0.0038
   77SLPC   H4X 7022   5.317   1.588   7.391 -0.1418 -0.4650  0.5451
   77SLPC   H4Y 7023   5.487   1.585   7.361 -0.0208  0.3027 -1.2847
   77SLPC   C35 7024   5.388   1.390   7.356  0.6283  0.2591 -0.5954
   77SLPC   H5X 7025   5.482   1.342   7.321 -0.7313 -1.9131 -1.3147
   77SLPC   H5Y 7026   5.305   1.346   7.297 -0.5738 -1.8687  2.6077
   77SLPC   C36 7027   5.355   1.347   7.501  1.0859 -0.6065  0.2942
   77SLPC   H6X 7028   5.346   1.237   7.504 -2.6490 -0.3455  1.4335
   77SLPC   H6Y 7029   5.256   1.393   7.521  0.3309 -1.3729 -1.5398
   77SLPC   C37 7030   5.463   1.392   7.599  0.4995  0.5241 -0.9542
   77SLPC   H7X 7031   5.454   1.500   7.622 -0.9620  0.6153 -1.8977
   77SLPC   H7Y 7032   5.562   1.375   7.550  0.2339  0.5951 -1.5292
   77SLPC   C38 7033   5.459   1.310   7.724  0.9302  0.1845 -0.9798
   77SLPC   H8X 7034   5.457   1.202   7.698 -0.0890 -0.0462  0.0342
   77SLPC   H8Y 7035   5.362   1.342   7.768  0.6692 -0.7303 -0.8694
   77SLPC   C39 7036   5.564   1.358   7.832  0.5257  0.2442  0.1496
   77SLPC   H9X 7037   5.515   1.385   7.928 -1.0379 -1.7863 -0.0344
   77SLPC   H9Y 7038   5.604   1.453   7.792  0.3587 -0.3751 -1.5300
   77SLPC  C310 7039   5.680   1.265   7.854  0.9295  0.7270 -0.4241
   77SLPC  H10X 7040   5.740   1.251   7.761  0.6412 -1.4010 -0.3335
   77SLPC  H10Y 7041   5.633   1.164   7.858  1.8663  0.1593 -2.7294
   77SLPC  C311 7042   5.767   1.282   7.984  0.1632 -0.2352  0.7585
   77SLPC  H11X 7043   5.841   1.200   7.986 -1.3757 -1.6118  2.3908
   77SLPC  H11Y 7044   5.717   1.276   8.083  0.1984 -0.7227  0.7444
   77SLPC  C312 7045   5.846   1.412   8.001  0.3285 -0.1110  0.2874
   77SLPC  H12X 7046   5.770   1.479   8.045 -0.7536 -2.3418  1.9462
   77SLPC  H12Y 7047   5.865   1.447   7.897  1.7534 -0.7129  0.3329
   77SLPC  C313 7048   5.972   1.392   8.087 -0.1018 -0.5449 -0.2699
   77SLPC  H13X 7049   6.007   1.495   8.108  0.3944 -1.2307  2.4795
   77SLPC  H13Y 7050   6.047   1.325   8.038 -0.5604 -2.5669  1.7117
   77SLPC  C314 7051   5.956   1.334   8.227  0.0534 -0.0248  0.2924
   77SLPC  H14X 7052   5.893   1.242   8.230 -0.0685  0.0850  1.7999
   77SLPC  H14Y 7053   5.899   1.411   8.282  0.4381  0.8246 -0.4963
   77SLPC  C315 7054   6.088   1.313   8.308  0.5779 -0.7088 -0.1310
   77SLPC  H15X 7055   6.064   1.276   8.410 -0.3138  2.3329  0.8316
   77SLPC  H15Y 7056   6.147   1.407   8.311 -1.1006  0.3882 -0.4623
   77SLPC  C316 7057   6.183   1.217   8.242  0.4141 -0.3633 -0.1141
   77SLPC  H16X 7058   6.234   1.272   8.160 -0.5199  0.5347 -0.0983
   77SLPC  H16Y 7059   6.132   1.134   8.189  0.3755 -0.9410  0.8166
   77SLPC  C317 7060   6.287   1.153   8.345 -0.6065  0.1187 -0.2245
   77SLPC  H17X 7061   6.243   1.082   8.419 -1.2438 -1.3908 -2.0229
   77SLPC  H17Y 7062   6.326   1.236   8.408 -2.5573  0.0498  1.1334
   77SLPC  C318 7063   6.390   1.074   8.269 -0.2739 -0.5268  0.3948
   77SLPC  H18X 7064   6.447   1.010   8.341 -0.7001 -0.2453  0.9792
   77SLPC  H18Y 7065   6.460   1.153   8.234  1.3987 -2.1424  0.0078
   77SLPC  H18Z 7066   6.344   1.010   8.191  1.2173  0.3096 -1.1958
   78SLPC     N 7067   1.443   1.775   6.127  0.3823 -0.2083  0.2142
   78SLPC   C13 7068   1.589   1.752   6.111  0.9839 -1.2332 -0.0674
   78SLPC  H13A 7069   1.607   1.656   6.159 -3.4654 -2.4005 -0.5454
   78SLPC  H13B 7070   1.620   1.741   6.008  1.6637 -0.6764  0.0791
   78SLPC  H13C 7071   1.637   1.831   6.166  0.3415 -0.2537 -0.9040
   78SLPC   C14 7072   1.381   1.663   6.057  0.6339  0.0060 -0.2548
   78SLPC  H14A 7073   1.391   1.670   5.950  0.3299  1.9575 -0.1765
   78SLPC  H14B 7074   1.418   1.570   6.097  1.0517  0.6114  0.7615
   78SLPC  H14C 7075   1.274   1.665   6.076 -0.2021 -0.5506 -4.4376
   78SLPC   C15 7076   1.406   1.898   6.054 -0.4327  0.3949 -0.0846
   78SLPC  H15A 7077   1.456   1.900   5.958 -0.0631 -0.4744  0.0844
   78SLPC  H15B 7078   1.300   1.901   6.035 -0.5513 -1.2826  0.2339
   78SLPC  H15C 7079   1.431   1.984   6.114  0.1829 -0.7024  1.2450
   78SLPC   C12 7080   1.408   1.782   6.273  0.9772  0.5847 -0.0833
   78SLPC  H12A 7081   1.418   1.679   6.301  2.1725  0.1199 -2.1006
   78SLPC  H12B 7082   1.308   1.817   6.294  0.7160 -0.7760  0.9445
   78SLPC   C11 7083   1.500   1.868   6.362  0.1102 -0.4199 -0.3065
   78SLPC  H11A 7084   1.606   1.837   6.346  0.7161  1.4237 -0.0591
   78SLPC  H11B 7085   1.464   1.847   6.464  1.9188  0.2578  0.4873
   78SLPC     P 7086   1.605   2.105   6.342 -0.2081  0.0424  0.1554
   78SLPC   O13 7087   1.712   2.036   6.272 -0.0358  0.1203  0.8512
   78SLPC   O14 7088   1.552   2.227   6.272 -0.5015 -0.1618 -0.6342
   78SLPC   O12 7089   1.482   2.008   6.347  0.1651 -0.0511 -0.3584
   78SLPC   O11 7090   1.635   2.146   6.494 -0.1555 -0.3623 -0.0532
   78SLPC    C1 7091   1.543   2.111   6.599  0.0547 -0.1165  0.1627
   78SLPC    HA 7092   1.456   2.180   6.608 -0.1385 -0.5183  1.6173
   78SLPC    HB 7093   1.485   2.016   6.593 -2.2389  1.1326  1.3845
   78SLPC    C2 7094   1.596   2.139   6.746  0.6186 -0.6102  0.2523
   78SLPC    HS 7095   1.632   2.244   6.735  1.5500 -0.9131  0.4010
   78SLPC   O21 7096   1.698   2.044   6.773  0.0352  0.3594  0.0616
   78SLPC   C21 7097   1.820   2.098   6.801 -0.2509 -0.3122 -0.3277
   78SLPC   O22 7098   1.854   2.213   6.796 -0.1190  0.0467 -0.3146
   78SLPC   C22 7099   1.897   1.979   6.846 -0.8416 -0.1631  0.0258
   78SLPC   H2R 7100   1.838   1.915   6.916 -4.1489  2.5064 -0.2032
   78SLPC   H2S 7101   1.917   1.916   6.757 -0.4199 -1.3711  0.9634
   78SLPC    C3 7102   1.475   2.137   6.840  0.3375 -1.1138 -0.6938
   78SLPC    HX 7103   1.427   2.038   6.822  1.4199 -1.9431  0.8300
   78SLPC    HY 7104   1.403   2.215   6.809 -0.7957 -1.3350  1.2877
   78SLPC   O31 7105   1.505   2.145   6.986 -0.1563  0.2877  0.0096
   78SLPC   C31 7106   1.521   2.275   7.028 -0.8901  0.6331  0.3854
   78SLPC   O32 7107   1.519   2.368   6.950  0.6372 -0.6424 -0.1027
   78SLPC   C32 7108   1.562   2.277   7.175  0.9642 -0.0162 -0.0549
   78SLPC   H2X 7109   1.672   2.290   7.165  1.1673  0.2111  2.3028
   78SLPC   H2Y 7110   1.532   2.176   7.210 -0.7665  0.5740  0.1797
   78SLPC   C23 7111   2.038   1.999   6.915  0.1025  0.6849 -0.0875
   78SLPC   H3R 7112   2.058   1.918   6.989  1.7252  0.9963 -0.1698
   78SLPC   H3S 7113   2.035   2.099   6.964  3.1237  0.1030  1.4248
   78SLPC   C24 7114   2.154   1.991   6.811 -0.8151  0.6101  0.6681
   78SLPC   H4R 7115   2.148   2.072   6.735  2.0322  1.5836  1.4325
   78SLPC   H4S 7116   2.138   1.901   6.747  2.7351  1.4183 -1.5187
   78SLPC   C25 7117   2.301   1.991   6.857  0.5948 -0.4476  0.5191
   78SLPC   H5R 7118   2.335   2.096   6.845 -0.6308 -0.0409  0.5231
   78SLPC   H5S 7119   2.361   1.934   6.783 -1.0825  0.0064 -1.2080
   78SLPC   C26 7120   2.328   1.931   6.992  0.0805  0.7507  0.1427
   78SLPC   H6R 7121   2.254   1.975   7.063  0.0639  2.7234 -1.0508
   78SLPC   H6S 7122   2.426   1.965   7.032  1.0750  0.4594 -1.9513
   78SLPC   C27 7123   2.319   1.776   6.994 -0.1371  0.0849  0.1558
   78SLPC   H7R 7124   2.408   1.741   6.937 -0.8365 -1.2284 -0.1329
   78SLPC   H7S 7125   2.235   1.749   6.928 -0.3126  0.5769  0.1735
   78SLPC   C28 7126   2.295   1.723   7.132  0.5021 -0.0294 -0.1786
   78SLPC   H8R 7127   2.262   1.617   7.125 -0.2417  0.1505  0.5141
   78SLPC   H8S 7128   2.211   1.784   7.172 -0.5873 -1.8361  0.3197
   78SLPC   C29 7129   2.422   1.740   7.214  0.8423 -0.2061  0.8376
   78SLPC   H9R 7130   2.510   1.730   7.149  1.6335  2.1768  1.5042
   78SLPC  C210 7131   2.433   1.756   7.343  0.0870 -0.8693  0.7517
   78SLPC  H10R 7132   2.529   1.783   7.390  0.7171 -0.5887 -0.6670
   78SLPC  C211 7133   2.318   1.769   7.437  0.2969  0.1883 -0.0533
   78SLPC  H11R 7134   2.233   1.712   7.395  0.5202  0.8334 -1.4475
   78SLPC  H11S 7135   2.286   1.876   7.438 -0.2609  0.0163  1.8501
   78SLPC  C212 7136   2.369   1.724   7.574  0.2384 -0.6971 -0.0488
   78SLPC  H12R 7137   2.374   1.615   7.591 -0.3873 -0.7446 -0.1508
   78SLPC  C213 7138   2.383   1.799   7.680 -0.0921  0.2942 -0.2957
   78SLPC  H13R 7139   2.401   1.749   7.776 -0.8602  0.9064  0.1744
   78SLPC  C214 7140   2.345   1.943   7.696 -0.4005 -0.0461  0.5884
   78SLPC  H14R 7141   2.250   1.950   7.639 -1.4435 -0.5998  2.2316
   78SLPC  H14S 7142   2.413   2.014   7.644 -0.2915  0.8550  1.9219
   78SLPC  C215 7143   2.309   1.981   7.839  0.5302 -0.1100  0.1864
   78SLPC  H15R 7144   2.246   1.898   7.876  2.2919 -1.6368 -0.1241
   78SLPC  H15S 7145   2.244   2.070   7.850  0.6045  0.2330 -2.0015
   78SLPC  C216 7146   2.430   2.013   7.925  0.3581 -0.0691  0.8437
   78SLPC  H16R 7147   2.432   2.121   7.952 -1.5640  0.0508  0.6364
   78SLPC  H16S 7148   2.526   1.992   7.875  1.2521  2.8480  1.2252
   78SLPC  C217 7149   2.420   1.934   8.057 -0.7464 -0.0003 -0.5600
   78SLPC  H17R 7150   2.436   1.827   8.030  1.8647  0.5572 -1.3586
   78SLPC  H17S 7151   2.316   1.943   8.096 -0.5305  1.1636 -0.2238
   78SLPC  C218 7152   2.520   1.968   8.172  0.0602  0.4296 -0.2499
   78SLPC  H18R 7153   2.616   1.919   8.144  0.0447 -0.1603  0.7413
   78SLPC  H18S 7154   2.493   1.932   8.273 -1.9308 -0.1230 -0.9639
   78SLPC  H18T 7155   2.530   2.079   8.173 -0.5457  0.4806  1.7589
   78SLPC   C33 7156   1.507   2.399   7.246  0.8245  0.2375  0.4049
   78SLPC   H3X 7157   1.398   2.400   7.266  0.6353  0.1587 -0.5646
   78SLPC   H3Y 7158   1.527   2.488   7.182  0.2390 -1.0735 -1.6573
   78SLPC   C34 7159   1.579   2.414   7.379  0.5323 -0.4783 -0.5854
   78SLPC   H4X 7160   1.680   2.371   7.366  0.0167 -0.9586 -3.2093
   78SLPC   H4Y 7161   1.532   2.357   7.462  1.3239 -0.7510 -0.3246
   78SLPC   C35 7162   1.592   2.563   7.413 -0.5344  0.0256 -0.7518
   78SLPC   H5X 7163   1.495   2.617   7.412  0.0972  1.2626  1.2420
   78SLPC   H5Y 7164   1.651   2.612   7.332  0.4296  0.0969 -0.0158
   78SLPC   C36 7165   1.657   2.593   7.550  0.3109  0.4639  0.0007
   78SLPC   H6X 7166   1.754   2.537   7.549  0.8512  1.3412  1.6553
   78SLPC   H6Y 7167   1.600   2.548   7.634  2.9659 -0.9501  1.1183
   78SLPC   C37 7168   1.680   2.740   7.573  0.9713 -0.9017  0.0528
   78SLPC   H7X 7169   1.579   2.785   7.562  2.2707  1.7325 -1.3620
   78SLPC   H7Y 7170   1.732   2.784   7.486  1.4740 -0.7840  0.4117
   78SLPC   C38 7171   1.757   2.764   7.707 -0.1093  0.4017  0.0683
   78SLPC   H8X 7172   1.851   2.706   7.696  1.1806  1.9703  2.2444
   78SLPC   H8Y 7173   1.701   2.720   7.792 -1.1644 -0.9372 -1.2969
   78SLPC   C39 7174   1.776   2.913   7.718 -0.2796  0.2071 -0.6415
   78SLPC   H9X 7175   1.678   2.963   7.732  0.9270  1.9403  2.0744
   78SLPC   H9Y 7176   1.815   2.953   7.622  0.6412  1.9489  0.4324
   78SLPC  C310 7177   1.871   2.952   7.833 -0.3135 -0.0191 -0.3679
   78SLPC  H10X 7178   1.972   2.947   7.786  0.7614 -0.8346  1.9414
   78SLPC  H10Y 7179   1.863   2.873   7.911  0.3365 -0.7652 -1.0485
   78SLPC  C311 7180   1.847   3.091   7.904  0.3171  0.2794  0.7828
   78SLPC  H11X 7181   1.853   3.174   7.830  2.3602 -0.1303  0.4528
   78SLPC  H11Y 7182   1.935   3.115   7.968  1.6056  0.2885 -0.9630
   78SLPC  C312 7183   1.725   3.105   8.003  0.2720 -0.7151  0.2674
   78SLPC  H12X 7184   1.743   3.021   8.074  1.0315 -0.1528  0.7642
   78SLPC  H12Y 7185   1.627   3.074   7.963 -0.1762  0.3951  0.5060
   78SLPC  C313 7186   1.723   3.244   8.071 -0.0050 -0.0513 -0.0747
   78SLPC  H13X 7187   1.681   3.323   8.006 -2.2953 -1.3564 -0.2512
   78SLPC  H13Y 7188   1.827   3.273   8.096 -0.2398 -0.1004  0.9868
   78SLPC  C314 7189   1.652   3.249   8.209 -0.0621 -0.2989 -0.3733
   78SLPC  H14X 7190   1.699   3.170   8.273 -0.7821  0.1732  0.7438
   78SLPC  H14Y 7191   1.546   3.221   8.194  0.7685 -2.0092 -3.5498
   78SLPC  C315 7192   1.657   3.393   8.266  0.2929 -0.1165  0.2911
   78SLPC  H15X 7193   1.766   3.419   8.267 -0.1352  1.7899  0.4665
   78SLPC  H15Y 7194   1.615   3.402   8.369  1.8010  0.5333  0.8816
   78SLPC  C316 7195   1.571   3.494   8.182 -0.2065  0.3791 -0.1061
   78SLPC  H16X 7196   1.478   3.443   8.152  0.4834 -0.7380 -0.3756
   78SLPC  H16Y 7197   1.624   3.532   8.092 -0.8767  2.5643  0.3962
   78SLPC  C317 7198   1.530   3.627   8.244 -0.4080  0.2480 -0.0823
   78SLPC  H17X 7199   1.478   3.611   8.340  0.5226 -3.4788 -0.1387
   78SLPC  H17Y 7200   1.454   3.665   8.173 -1.4787  0.8692  1.3670
   78SLPC  C318 7201   1.645   3.727   8.257  0.5116 -0.3303  0.4419
   78SLPC  H18X 7202   1.655   3.765   8.153  0.9215 -1.4511  0.0606
   78SLPC  H18Y 7203   1.737   3.674   8.289  1.0265  0.5542  0.4459
   78SLPC  H18Z 7204   1.613   3.811   8.322 -1.8761  0.4886 -1.7127
   79SLPC     N 7205   5.798   3.992   6.441  0.2076  0.2625  0.3705
   79SLPC   C13 7206   5.856   3.892   6.338  0.2473  0.8277 -0.4356
   79SLPC  H13A 7207   5.949   3.843   6.365  1.1389  1.5453 -2.1293
   79SLPC  H13B 7208   5.788   3.813   6.309  1.3806 -0.7150  0.9541
   79SLPC  H13C 7209   5.873   3.941   6.243 -2.3427  0.6798 -1.0192
   79SLPC   C14 7210   5.792   3.927   6.572  0.3366  0.9758 -0.1293
   79SLPC  H14A 7211   5.752   3.989   6.651  1.2633  1.1339  0.2221
   79SLPC  H14B 7212   5.731   3.839   6.562 -0.6198  1.5346  0.6885
   79SLPC  H14C 7213   5.890   3.893   6.603  0.6983  0.5136 -1.6834
   79SLPC   C15 7214   5.653   4.033   6.399 -0.1388  0.6985 -0.4983
   79SLPC  H15A 7215   5.587   3.949   6.411  0.1380  0.5190 -0.2033
   79SLPC  H15B 7216   5.621   4.108   6.470  1.2367  1.0206 -0.1915
   79SLPC  H15C 7217   5.654   4.076   6.300  0.2371  1.8251 -0.0164
   79SLPC   C12 7218   5.885   4.117   6.454  0.3987 -0.5225  0.2825
   79SLPC  H12A 7219   5.890   4.166   6.358 -0.7235 -0.1039  0.4250
   79SLPC  H12B 7220   5.986   4.084   6.474  0.0078 -1.0205  1.4808
   79SLPC   C11 7221   5.854   4.232   6.558 -0.6000 -0.0407 -0.7415
   79SLPC  H11A 7222   5.940   4.302   6.559 -1.0364  0.5227  1.8549
   79SLPC  H11B 7223   5.848   4.183   6.657 -1.0257  0.9032 -0.2886
   79SLPC     P 7224   5.719   4.407   6.411  0.2133  0.0710  0.3936
   79SLPC   O13 7225   5.817   4.386   6.304  0.3946  0.0516  0.1472
   79SLPC   O14 7226   5.577   4.415   6.370 -0.3121 -0.1846 -0.0275
   79SLPC   O12 7227   5.734   4.301   6.515  0.1227  0.5023 -0.0016
   79SLPC   O11 7228   5.755   4.539   6.493  0.6989  1.4021  0.0806
   79SLPC    C1 7229   5.668   4.577   6.593  0.3583 -0.2493  0.7206
   79SLPC    HA 7230   5.585   4.640   6.554 -1.3322 -1.3880  2.3816
   79SLPC    HB 7231   5.631   4.494   6.657 -0.7795 -0.4789 -0.2404
   79SLPC    C2 7232   5.739   4.672   6.695 -0.1684  0.2980  0.1395
   79SLPC    HS 7233   5.775   4.759   6.636 -0.9499  1.4621  1.3259
   79SLPC   O21 7234   5.832   4.593   6.776  0.2396  0.3722  0.1444
   79SLPC   C21 7235   5.949   4.579   6.718 -0.1178 -0.0984 -0.2569
   79SLPC   O22 7236   5.984   4.646   6.621 -0.1233 -0.0903  0.1560
   79SLPC   C22 7237   6.032   4.466   6.773  0.1819 -0.1021  0.2783
   79SLPC   H2R 7238   6.073   4.424   6.678  1.1570  1.8096 -0.1824
   79SLPC   H2S 7239   6.118   4.513   6.826 -0.6565  0.8094  0.8388
   79SLPC    C3 7240   5.634   4.735   6.798 -0.1232 -0.2346 -0.0317
   79SLPC    HX 7241   5.577   4.647   6.835 -0.7982  0.4559  0.5805
   79SLPC    HY 7242   5.560   4.789   6.734 -0.1569  1.0718  1.0968
   79SLPC   O31 7243   5.703   4.808   6.903 -0.3728  0.3307 -0.0295
   79SLPC   C31 7244   5.622   4.817   7.012  0.3092 -0.4404  0.3503
   79SLPC   O32 7245   5.501   4.804   7.012 -0.1907  0.7478  0.0389
   79SLPC   C32 7246   5.713   4.840   7.131 -0.2369  0.1384  0.5204
   79SLPC   H2X 7247   5.792   4.902   7.082  0.3803  0.0443  1.3832
   79SLPC   H2Y 7248   5.746   4.735   7.148  1.4205  0.2310 -1.8722
   79SLPC   C23 7249   5.965   4.358   6.862 -0.6935  0.6161  0.3620
   79SLPC   H3R 7250   5.989   4.256   6.827 -0.8148  0.8022 -0.2657
   79SLPC   H3S 7251   5.857   4.365   6.835 -1.1462  1.6314  2.3277
   79SLPC   C24 7252   5.988   4.366   7.014 -0.5679  0.2845 -0.0007
   79SLPC   H4R 7253   6.099   4.368   7.024 -0.4955  1.0501 -0.9271
   79SLPC   H4S 7254   5.941   4.278   7.063 -0.6232  0.1462 -0.3021
   79SLPC   C25 7255   5.949   4.507   7.061  0.5598 -0.0364  0.1025
   79SLPC   H5R 7256   5.843   4.532   7.042  1.1654  2.3553 -0.3118
   79SLPC   H5S 7257   6.013   4.576   7.001  1.0547  0.3942  1.1037
   79SLPC   C26 7258   5.972   4.537   7.214  0.2179 -0.1883 -0.0394
   79SLPC   H6R 7259   5.918   4.460   7.272  1.3591 -0.1801  1.0512
   79SLPC   H6S 7260   5.926   4.637   7.235 -2.7452 -1.2771 -1.0208
   79SLPC   C27 7261   6.121   4.538   7.256  0.0873 -0.4280 -0.0618
   79SLPC   H7R 7262   6.186   4.598   7.189 -1.0333  1.6832  0.6918
   79SLPC   H7S 7263   6.152   4.432   7.239 -0.3767 -0.1672 -2.6400
   79SLPC   C28 7264   6.144   4.580   7.405  0.4719 -0.7425  0.6190
   79SLPC   H8R 7265   6.109   4.685   7.414 -1.4675 -1.3297  0.0422
   79SLPC   H8S 7266   6.254   4.580   7.424  0.9102  4.4867 -0.9366
   79SLPC   C29 7267   6.069   4.502   7.513  0.1077 -0.4407  0.0664
   79SLPC   H9R 7268   6.042   4.398   7.492  1.6083 -1.0469  1.0569
   79SLPC  C210 7269   6.026   4.553   7.632  0.2646 -0.3374  0.1671
   79SLPC  H10R 7270   5.972   4.482   7.696  2.5714  0.8089  3.4883
   79SLPC  C211 7271   6.039   4.691   7.675  0.3701 -0.1867  0.1710
   79SLPC  H11R 7272   5.943   4.732   7.711 -0.4653  1.0801 -3.2777
   79SLPC  H11S 7273   6.062   4.767   7.596 -1.6204 -0.7784 -1.0186
   79SLPC  C212 7274   6.145   4.711   7.782 -0.6999  0.0396  0.1610
   79SLPC  H12R 7275   6.244   4.728   7.737 -0.3419 -0.1521  0.8784
   79SLPC  C213 7276   6.139   4.717   7.916  0.1822 -0.5045 -0.4575
   79SLPC  H13R 7277   6.240   4.723   7.960  0.0863  2.7432 -0.5251
   79SLPC  C214 7278   6.022   4.718   8.011 -0.6295 -0.4497 -0.3761
   79SLPC  H14R 7279   5.929   4.715   7.950 -1.1063 -0.4016  0.3440
   79SLPC  H14S 7280   6.032   4.822   8.049 -2.5649 -0.1574 -0.6400
   79SLPC  C215 7281   6.036   4.635   8.140  0.3959  0.2516  0.6330
   79SLPC  H15R 7282   6.122   4.672   8.200  1.8001 -0.4377 -0.9173
   79SLPC  H15S 7283   6.046   4.528   8.113 -0.8262  0.0538  0.9469
   79SLPC  C216 7284   5.908   4.642   8.232 -0.6674  1.0255 -0.5092
   79SLPC  H16R 7285   5.816   4.605   8.183  0.8136 -1.9950 -1.0831
   79SLPC  H16S 7286   5.879   4.749   8.247 -0.4481  1.2064 -1.3201
   79SLPC  C217 7287   5.927   4.580   8.364 -0.3201  0.7278 -0.2417
   79SLPC  H17R 7288   5.988   4.488   8.361 -1.7186 -0.3579  2.7028
   79SLPC  H17S 7289   5.831   4.541   8.405 -0.3084 -0.5485 -1.3782
   79SLPC  C218 7290   5.981   4.687   8.472  0.6127 -0.0325 -0.4887
   79SLPC  H18R 7291   6.072   4.741   8.438  0.5203 -1.0101 -2.3752
   79SLPC  H18S 7292   5.992   4.646   8.575  2.3894  2.5592  0.3941
   79SLPC  H18T 7293   5.902   4.765   8.480 -0.9332 -1.5735 -0.4183
   79SLPC   C33 7294   5.654   4.905   7.255  0.1885  0.1323 -0.4401
   79SLPC   H3X 7295   5.574   4.843   7.302  0.4795 -0.1447 -0.3121
   79SLPC   H3Y 7296   5.609   5.004   7.231 -2.6342 -0.8733  0.4867
   79SLPC   C34 7297   5.763   4.925   7.355 -0.0269  0.2326 -0.6650
   79SLPC   H4X 7298   5.848   4.987   7.318 -0.2616  1.9156  1.4975
   79SLPC   H4Y 7299   5.801   4.827   7.391 -1.1116  0.1564  0.2845
   79SLPC   C35 7300   5.717   4.992   7.483  0.4552  0.3175  0.4701
   79SLPC   H5X 7301   5.628   4.937   7.520  0.5942 -0.0164  0.3103
   79SLPC   H5Y 7302   5.669   5.087   7.452 -2.3845 -1.7448 -1.7982
   79SLPC   C36 7303   5.813   5.007   7.597 -0.6051 -0.4033 -0.0645
   79SLPC   H6X 7304   5.898   5.076   7.583 -0.6625 -0.1637  0.7395
   79SLPC   H6Y 7305   5.848   4.908   7.634 -0.3743  0.4156  1.9886
   79SLPC   C37 7306   5.724   5.062   7.720 -0.3485  0.1577 -0.1755
   79SLPC   H7X 7307   5.639   4.992   7.738 -1.0590  0.3306 -2.7104
   79SLPC   H7Y 7308   5.693   5.163   7.689 -0.4530  0.3691  0.6077
   79SLPC   C38 7309   5.810   5.074   7.853 -0.1245  0.1911 -0.0850
   79SLPC   H8X 7310   5.911   5.117   7.835  0.8848 -2.5782 -1.5143
   79SLPC   H8Y 7311   5.837   4.970   7.882  3.3315  0.7527 -1.0077
   79SLPC   C39 7312   5.733   5.139   7.960 -0.3987 -0.7888 -0.7822
   79SLPC   H9X 7313   5.638   5.082   7.964 -0.1541 -1.0853  1.8503
   79SLPC   H9Y 7314   5.710   5.245   7.940  0.2497 -1.1315 -3.5658
   79SLPC  C310 7315   5.803   5.145   8.100  0.1046 -0.2020 -0.0743
   79SLPC  H10X 7316   5.894   5.208   8.091 -0.0453 -0.2412 -2.0492
   79SLPC  H10Y 7317   5.855   5.049   8.123 -1.0977  0.3498  5.5562
   79SLPC  C311 7318   5.711   5.196   8.209 -0.1614 -0.1625  0.1227
   79SLPC  H11X 7319   5.632   5.119   8.227  0.4470 -1.3118 -1.9729
   79SLPC  H11Y 7320   5.659   5.285   8.168 -0.7179  1.4610  4.1283
   79SLPC  C312 7321   5.773   5.256   8.339  0.4552  0.7726  0.4333
   79SLPC  H12X 7322   5.860   5.318   8.309 -1.3139  3.5062  0.7789
   79SLPC  H12Y 7323   5.804   5.174   8.406  1.0540  1.8790  1.5252
   79SLPC  C313 7324   5.679   5.362   8.405 -0.5699  0.4432 -0.1675
   79SLPC  H13X 7325   5.579   5.318   8.424 -0.7154  1.5442  1.6300
   79SLPC  H13Y 7326   5.667   5.453   8.343 -1.0579  1.3409  1.2282
   79SLPC  C314 7327   5.728   5.404   8.547 -0.3932 -0.1974  0.7135
   79SLPC  H14X 7328   5.835   5.434   8.542 -0.3687 -0.1990  1.2289
   79SLPC  H14Y 7329   5.717   5.316   8.614 -1.6696  0.7307  1.7471
   79SLPC  C315 7330   5.640   5.515   8.596 -0.3687  0.2307  0.2381
   79SLPC  H15X 7331   5.538   5.493   8.559 -1.1307  0.7963  1.9510
   79SLPC  H15Y 7332   5.665   5.615   8.555 -0.1399 -0.6208 -1.7165
   79SLPC  C316 7333   5.627   5.538   8.746 -0.1194  0.1023 -0.1654
   79SLPC  H16X 7334   5.563   5.623   8.775 -1.6774 -2.0865  3.0768
   79SLPC  H16Y 7335   5.728   5.568   8.784 -0.0396 -2.8667  2.1927
   79SLPC  C317 7336   5.572   5.412   8.819  0.1341  0.1437  0.6325
   79SLPC  H17X 7337   5.645   5.329   8.817 -0.4510 -0.3878  1.0875
   79SLPC  H17Y 7338   5.484   5.370   8.766  0.7370  0.1205 -0.3449
   79SLPC  C318 7339   5.541   5.448   8.967  0.2864 -0.5740 -0.9990
   79SLPC  H18X 7340   5.563   5.362   9.033 -0.8275 -0.0469  0.0833
   79SLPC  H18Y 7341   5.441   5.496   8.966  0.0188 -1.1119 -0.3732
   79SLPC  H18Z 7342   5.609   5.528   9.003  0.3693 -1.2808  0.4412
   80SLPC     N 7343   0.127   2.605   6.200  0.1197 -0.1147 -0.5294
   80SLPC   C13 7344  -0.010   2.639   6.131  0.0055  0.3806  0.7081
   80SLPC  H13A 7345  -0.069   2.549   6.124 -0.4196  0.7338 -0.3788
   80SLPC  H13B 7346  -0.058   2.721   6.182 -0.5036 -0.0279  0.8819
   80SLPC  H13C 7347   0.003   2.674   6.029  0.3566  0.9369  0.9388
   80SLPC   C14 7348   0.217   2.517   6.124  0.1659  0.1375  0.2381
   80SLPC  H14A 7349   0.242   2.560   6.028 -1.7868  1.2101  0.1837
   80SLPC  H14B 7350   0.303   2.490   6.184  0.5259  1.0932  0.1585
   80SLPC  H14C 7351   0.166   2.426   6.097 -0.1658  0.1412  0.8437
   80SLPC   C15 7352   0.096   2.548   6.332 -0.6698  0.0669  0.8199
   80SLPC  H15A 7353   0.061   2.445   6.324 -0.7216  0.2186 -1.1846
   80SLPC  H15B 7354   0.182   2.540   6.397 -0.4413 -0.4927  0.4593
   80SLPC  H15C 7355   0.028   2.615   6.382 -1.2772  0.8194 -0.9841
   80SLPC   C12 7356   0.202   2.727   6.235  0.0181 -0.9148 -0.0978
   80SLPC  H12A 7357   0.138   2.798   6.286 -0.2525  0.1816 -1.9456
   80SLPC  H12B 7358   0.237   2.782   6.149  1.7964 -1.1618  0.4623
   80SLPC   C11 7359   0.334   2.719   6.321 -0.0790 -0.3878 -0.1378
   80SLPC  H11A 7360   0.298   2.679   6.419  0.3779  2.5803  1.2919
   80SLPC  H11B 7361   0.361   2.825   6.337 -2.7297  0.0427  1.9002
   80SLPC     P 7362   0.578   2.653   6.340  0.0186  0.1124 -0.0688
   80SLPC   O13 7363   0.680   2.600   6.252 -0.4950  0.4631 -0.0673
   80SLPC   O14 7364   0.599   2.783   6.407  0.0522  0.0150  0.1431
   80SLPC   O12 7365   0.442   2.647   6.261 -0.2114 -0.9732 -0.8093
   80SLPC   O11 7366   0.560   2.550   6.456 -0.2556  0.2265 -0.1756
   80SLPC    C1 7367   0.507   2.419   6.419 -0.2876  0.0898  0.2552
   80SLPC    HA 7368   0.398   2.431   6.407 -0.2968 -0.7452 -0.5042
   80SLPC    HB 7369   0.546   2.382   6.322 -0.3310 -1.3512  0.7662
   80SLPC    C2 7370   0.543   2.317   6.529  0.4180  0.4037  0.4343
   80SLPC    HS 7371   0.500   2.220   6.497  0.1227 -0.0736  2.1936
   80SLPC   O21 7372   0.493   2.350   6.663  0.4185 -0.2249 -0.3933
   80SLPC   C21 7373   0.367   2.384   6.672 -0.1241  0.4563 -0.1638
   80SLPC   O22 7374   0.278   2.368   6.595 -0.2076 -0.2758  0.3177
   80SLPC   C22 7375   0.350   2.450   6.808  0.0442 -0.2344  0.2313
   80SLPC   H2R 7376   0.451   2.487   6.837  1.1699 -0.7037 -2.8427
   80SLPC   H2S 7377   0.281   2.533   6.784 -0.0610  0.2467  2.1178
   80SLPC    C3 7378   0.696   2.304   6.531 -0.5798 -0.5537 -0.6341
   80SLPC    HX 7379   0.736   2.406   6.545  0.0352 -0.6359 -1.7798
   80SLPC    HY 7380   0.730   2.275   6.430 -2.0391 -0.3308 -1.2090
   80SLPC   O31 7381   0.741   2.206   6.622  0.0310  0.2069  0.2342
   80SLPC   C31 7382   0.749   2.256   6.745  0.3526 -0.3051  0.7055
   80SLPC   O32 7383   0.767   2.372   6.775 -0.4520  0.3927  0.0178
   80SLPC   C32 7384   0.747   2.138   6.841  0.4355  0.4065  0.4018
   80SLPC   H2X 7385   0.848   2.093   6.837 -0.4466 -1.5123 -1.7672
   80SLPC   H2Y 7386   0.671   2.060   6.815  0.2015  1.1523 -1.2587
   80SLPC   C23 7387   0.289   2.359   6.919 -0.3907 -0.1829  0.2903
   80SLPC   H3R 7388   0.350   2.269   6.943 -0.5476 -0.5248 -0.5805
   80SLPC   H3S 7389   0.182   2.336   6.900 -0.8746  1.5216  0.8447
   80SLPC   C24 7390   0.296   2.443   7.049  0.1077 -0.8453 -0.6336
   80SLPC   H4R 7391   0.248   2.543   7.043 -2.5883 -2.0789 -0.2429
   80SLPC   H4S 7392   0.403   2.461   7.076 -0.1573 -0.2261  0.0413
   80SLPC   C25 7393   0.238   2.364   7.172  0.9251  0.3749 -0.3852
   80SLPC   H5R 7394   0.277   2.261   7.165  1.4670  0.6430 -1.5018
   80SLPC   H5S 7395   0.128   2.377   7.170  0.9950  0.8899 -1.7086
   80SLPC   C26 7396   0.278   2.423   7.308  0.1567  0.5417 -0.0619
   80SLPC   H6R 7397   0.208   2.379   7.382  0.4069  0.6567  0.2436
   80SLPC   H6S 7398   0.249   2.530   7.312  1.8761  1.1244 -2.2313
   80SLPC   C27 7399   0.416   2.382   7.358  0.4447  0.1676  0.0037
   80SLPC   H7R 7400   0.498   2.412   7.290  2.3097  0.4697  2.3253
   80SLPC   H7S 7401   0.423   2.271   7.363  0.0811  0.1513  0.2343
   80SLPC   C28 7402   0.454   2.428   7.506  0.2935  0.3775 -0.4567
   80SLPC   H8R 7403   0.428   2.535   7.519 -1.4006 -0.1332  0.5257
   80SLPC   H8S 7404   0.562   2.404   7.501  0.0580 -0.5336 -1.4531
   80SLPC   C29 7405   0.399   2.341   7.624  0.7829 -0.0703  0.3487
   80SLPC   H9R 7406   0.322   2.266   7.604  0.3241  0.3864  0.3878
   80SLPC  C210 7407   0.429   2.355   7.758  0.3097  0.4334  0.4361
   80SLPC  H10R 7408   0.382   2.292   7.834  2.8050 -2.2855 -0.1826
   80SLPC  C211 7409   0.529   2.455   7.822  0.0958 -0.3343  0.6962
   80SLPC  H11R 7410   0.592   2.499   7.742  0.5306 -2.4327 -0.1405
   80SLPC  H11S 7411   0.600   2.409   7.894  2.8799  4.0376  0.9609
   80SLPC  C212 7412   0.459   2.574   7.889 -1.0710 -0.2618  0.5246
   80SLPC  H12R 7413   0.396   2.631   7.819  0.1790  2.3714  1.4784
   80SLPC  C213 7414   0.487   2.627   8.007 -0.2580 -0.2168 -0.2406
   80SLPC  H13R 7415   0.427   2.715   8.036 -1.1624 -1.1191  0.7059
   80SLPC  C214 7416   0.591   2.584   8.107  0.0813 -0.1223  0.3698
   80SLPC  H14R 7417   0.644   2.679   8.130 -2.0951  1.3481 -0.5606
   80SLPC  H14S 7418   0.665   2.515   8.061  0.2552 -0.2541  0.8502
   80SLPC  C215 7419   0.528   2.515   8.226 -0.8239  0.1407  0.0244
   80SLPC  H15R 7420   0.465   2.435   8.181  1.5842 -2.8920  1.8753
   80SLPC  H15S 7421   0.457   2.582   8.279  0.8203  2.2748 -0.3885
   80SLPC  C216 7422   0.630   2.455   8.320 -0.0032  0.0222 -0.3906
   80SLPC  H16R 7423   0.680   2.370   8.269  0.2603  0.8684 -1.5704
   80SLPC  H16S 7424   0.575   2.415   8.408 -1.4813 -3.3916 -2.7706
   80SLPC  C217 7425   0.734   2.552   8.377 -0.1892 -0.3304 -0.5180
   80SLPC  H17R 7426   0.670   2.628   8.427 -1.2430 -2.3135  1.2101
   80SLPC  H17S 7427   0.804   2.607   8.311 -0.5282  0.3019 -0.3558
   80SLPC  C218 7428   0.822   2.489   8.477 -0.2239  0.6005 -0.6102
   80SLPC  H18R 7429   0.875   2.397   8.445 -2.2297 -1.1193  0.8587
   80SLPC  H18S 7430   0.758   2.452   8.561  0.9836 -2.1566 -0.8370
   80SLPC  H18T 7431   0.895   2.560   8.520 -0.4082  0.1547  0.4686
   80SLPC   C33 7432   0.722   2.193   6.983  0.0606  0.4181 -0.2553
   80SLPC   H3X 7433   0.619   2.236   6.979 -0.6502 -1.0840  1.0436
   80SLPC   H3Y 7434   0.787   2.273   7.024  0.2516  0.3723 -0.4728
   80SLPC   C34 7435   0.716   2.073   7.084  0.4215 -0.7567  0.4665
   80SLPC   H4X 7436   0.817   2.028   7.091  0.1780 -0.9922  2.9266
   80SLPC   H4Y 7437   0.635   1.998   7.065  1.3585 -1.7921  0.5206
   80SLPC   C35 7438   0.675   2.122   7.225 -0.3008 -0.6359  0.3178
   80SLPC   H5X 7439   0.578   2.175   7.225 -1.0511 -1.9690  1.9342
   80SLPC   H5Y 7440   0.752   2.196   7.258 -1.2822  0.4322  0.2336
   80SLPC   C36 7441   0.667   2.015   7.332  0.1506 -0.7600  0.1874
   80SLPC   H6X 7442   0.771   1.975   7.337 -0.4968 -2.4767  0.3561
   80SLPC   H6Y 7443   0.601   1.931   7.302 -1.5169  1.1089 -1.5609
   80SLPC   C37 7444   0.628   2.065   7.478 -0.0385  0.5046 -0.3164
   80SLPC   H7X 7445   0.600   1.986   7.551 -1.3057 -1.3423 -2.7506
   80SLPC   H7Y 7446   0.549   2.143   7.479 -0.2593  0.3069 -1.9480
   80SLPC   C38 7447   0.742   2.134   7.550  0.4683  0.1028  0.0191
   80SLPC   H8X 7448   0.688   2.195   7.626 -0.8801 -1.0973  0.0552
   80SLPC   H8Y 7449   0.796   2.200   7.480  0.0394  1.0907  0.6089
   80SLPC   C39 7450   0.852   2.038   7.612  0.2899 -0.3365  0.7058
   80SLPC   H9X 7451   0.936   2.034   7.539  0.1746 -1.5506  0.6362
   80SLPC   H9Y 7452   0.817   1.933   7.617 -0.6939  0.0283  1.5028
   80SLPC  C310 7453   0.887   2.068   7.761  0.3332 -0.2498  0.3766
   80SLPC  H10X 7454   0.885   2.179   7.772  0.9303 -0.3957  2.0700
   80SLPC  H10Y 7455   0.986   2.023   7.783 -0.4756 -2.2025  0.1287
   80SLPC  C311 7456   0.789   2.005   7.856  0.0235  0.4908 -0.3221
   80SLPC  H11X 7457   0.785   1.895   7.844  1.9044  0.6141 -2.2906
   80SLPC  H11Y 7458   0.684   2.036   7.835 -0.4893 -0.2378  1.0725
   80SLPC  C312 7459   0.812   2.037   8.007 -0.2536 -0.8963 -0.0732
   80SLPC  H12X 7460   0.725   2.033   8.076  0.3957 -0.6046  0.7720
   80SLPC  H12Y 7461   0.841   2.144   8.012  0.6605 -1.0925 -1.1128
   80SLPC  C313 7462   0.927   1.968   8.077 -0.4643 -0.6610 -0.0300
   80SLPC  H13X 7463   0.952   2.021   8.172  0.8884 -1.3901  0.0280
   80SLPC  H13Y 7464   1.016   1.985   8.012 -0.5172 -1.0031 -0.1881
   80SLPC  C314 7465   0.892   1.826   8.123 -0.5634  0.1238  0.3824
   80SLPC  H14X 7466   0.983   1.776   8.164 -0.0483  0.4634 -0.3231
   80SLPC  H14Y 7467   0.869   1.770   8.029 -1.3191 -0.9799  1.2185
   80SLPC  C315 7468   0.775   1.812   8.222  0.2623 -1.0840  0.1368
   80SLPC  H15X 7469   0.692   1.865   8.171  1.6517  0.2283 -0.8301
   80SLPC  H15Y 7470   0.795   1.858   8.321 -1.0197 -0.5745  0.1739
   80SLPC  C316 7471   0.741   1.672   8.250  0.2721  0.2063  0.5439
   80SLPC  H16X 7472   0.832   1.611   8.273  1.3508  1.3940 -0.4710
   80SLPC  H16Y 7473   0.700   1.619   8.161  1.5021 -2.2445  1.4022
   80SLPC  C317 7474   0.649   1.661   8.367 -0.3074 -0.0228 -0.9500
   80SLPC  H17X 7475   0.559   1.708   8.321 -0.9164  0.3943  0.6368
   80SLPC  H17Y 7476   0.688   1.710   8.458  0.7038 -3.5943  0.6294
   80SLPC  C318 7477   0.623   1.516   8.401 -0.4170  0.0224 -0.1098
   80SLPC  H18X 7478   0.615   1.459   8.307  0.5986 -0.5148  0.1198
   80SLPC  H18Y 7479   0.541   1.493   8.473  0.4034  0.7373  1.0638
   80SLPC  H18Z 7480   0.713   1.481   8.457 -1.6780  0.4748  2.3041
   81SAPS     N 7481   0.685   4.588  11.116 -0.4123  0.5982  0.2690
   81SAPS   HN1 7482   0.698   4.690  11.133 -1.5974  0.3627  2.7564
   81SAPS   HN2 7483   0.601   4.571  11.057 -0.0887  0.6197 -0.1989
   81SAPS   HN3 7484   0.672   4.538  11.206  0.1100  1.2873  0.7318
   81SAPS   C12 7485   0.795   4.511  11.050 -0.4452 -0.3131 -0.3437
   81SAPS  H12A 7486   0.884   4.526  11.109 -1.2615  0.7219  0.6590
   81SAPS   C13 7487   0.763   4.368  11.025 -0.3320 -0.2893  1.0136
   81SAPS  O13A 7488   0.661   4.306  11.067  0.4390  0.2471 -0.0715
   81SAPS  O13B 7489   0.865   4.302  10.986  0.2276 -0.2621  0.0559
   81SAPS   C11 7490   0.824   4.594  10.923 -0.2866 -0.7607  0.8912
   81SAPS  H11A 7491   0.730   4.590  10.865  0.0061 -0.5733  0.4023
   81SAPS  H11B 7492   0.885   4.537  10.850 -0.5618  1.5617 -1.2148
   81SAPS     P 7493   1.017   4.759  10.935 -0.3433 -0.3305  0.3269
   81SAPS   O13 7494   1.050   4.843  11.053  0.0391  0.3381 -0.8234
   81SAPS   O14 7495   1.089   4.631  10.922 -0.0747 -0.0162 -0.2199
   81SAPS   O12 7496   0.863   4.730  10.946  0.4964 -0.1462 -0.6827
   81SAPS   O11 7497   1.036   4.843  10.807 -0.1690 -0.1049 -1.1010
   81SAPS    C1 7498   0.924   4.913  10.751 -0.0197  0.2097  0.4294
   81SAPS    HA 7499   0.853   4.941  10.831 -1.4868 -0.5948 -0.5782
   81SAPS    HB 7500   0.954   5.013  10.711 -1.1848 -0.3093 -1.8152
   81SAPS    C2 7501   0.868   4.836  10.630  0.0515 -0.1509  0.5425
   81SAPS    HS 7502   0.810   4.756  10.680 -0.6441  0.7583  1.1929
   81SAPS   O21 7503   0.968   4.786  10.537 -0.1934 -0.1458 -0.0609
   81SAPS   C21 7504   0.943   4.667  10.492  0.1166 -0.2876  0.1446
   81SAPS   O22 7505   0.838   4.606  10.508  0.2087  0.0858 -0.0266
   81SAPS   C22 7506   1.054   4.610  10.414  0.3325 -0.9229 -0.3631
   81SAPS   H2R 7507   1.079   4.676  10.328  2.5406  0.4533  1.2797
   81SAPS   H2S 7508   1.150   4.603  10.469 -0.3994 -1.3220  0.8783
   81SAPS    C3 7509   0.770   4.926  10.549 -0.1593  0.1106 -0.0694
   81SAPS    HX 7510   0.829   5.007  10.502 -0.4702 -0.2384 -1.0657
   81SAPS    HY 7511   0.700   4.973  10.622  0.2062 -0.6754  0.7979
   81SAPS   O31 7512   0.691   4.847  10.451 -0.4615 -0.2279  0.0250
   81SAPS   C31 7513   0.730   4.863  10.325  0.3212  0.1997  0.3634
   81SAPS   O32 7514   0.819   4.936  10.289  0.0318 -0.3834 -0.0702
   81SAPS   C32 7515   0.636   4.765  10.247  0.2200  0.0909 -0.1274
   81SAPS   H2X 7516   0.540   4.822  10.245  0.0404 -0.1894  0.3047
   81SAPS   H2Y 7517   0.610   4.672  10.302 -0.2503  0.2043 -0.1545
   81SAPS   C23 7518   1.020   4.472  10.361 -0.5400 -0.6399 -0.2017
   81SAPS   H3R 7519   0.915   4.450  10.333  0.3029 -2.9969 -1.7203
   81SAPS   H3S 7520   1.042   4.403  10.445 -2.3417  1.5082  2.0921
   81SAPS   C24 7521   1.118   4.431  10.248  0.2836 -0.1728 -0.2670
   81SAPS   H4R 7522   1.216   4.471  10.283 -1.4568  3.1420  1.0565
   81SAPS   H4S 7523   1.100   4.488  10.154 -1.2090 -1.7624 -0.9671
   81SAPS   C25 7524   1.119   4.283  10.212  0.0681 -0.0244 -0.3145
   81SAPS   H5R 7525   1.146   4.220  10.298  0.2841  0.3892 -0.0807
   81SAPS   C26 7526   1.093   4.214  10.098 -0.3386 -1.1011 -0.1303
   81SAPS   H6R 7527   1.109   4.106  10.088 -0.1980 -1.1217  0.3248
   81SAPS   C27 7528   1.041   4.267   9.967 -0.1491 -0.0158  0.1559
   81SAPS   H7R 7529   1.065   4.375   9.960  0.7000 -0.3222 -2.2133
   81SAPS   H7S 7530   0.930   4.258   9.968 -0.1086 -0.4313  1.3302
   81SAPS   C28 7531   1.094   4.209   9.839 -0.0272 -0.5574 -0.5874
   81SAPS   H8R 7532   1.159   4.273   9.778 -2.6876  0.1872 -2.6987
   81SAPS   C29 7533   1.055   4.094   9.782 -0.3602 -0.8558  0.2588
   81SAPS   H9R 7534   1.096   4.075   9.682  1.2563 -0.4428  0.8229
   81SAPS  C210 7535   0.954   3.989   9.839 -1.1396 -0.1741  0.0363
   81SAPS  H10R 7536   0.965   3.975   9.948 -1.9799 -0.7523  0.0462
   81SAPS  H10S 7537   0.981   3.889   9.799  0.3425  0.7342 -1.3285
   81SAPS  C211 7538   0.810   4.026   9.812 -0.6118 -0.0352 -0.4054
   81SAPS  H11R 7539   0.776   4.117   9.864 -2.8617 -0.2794 -1.3960
   81SAPS  C212 7540   0.724   3.973   9.726  0.0045 -0.2712 -0.6952
   81SAPS  H12R 7541   0.631   4.026   9.703 -0.9753 -2.6275 -2.3648
   81SAPS  C213 7542   0.761   3.866   9.629 -0.4399  0.5055 -0.2223
   81SAPS  H13R 7543   0.730   3.770   9.676 -1.0106  1.5574  1.5751
   81SAPS  H13S 7544   0.867   3.878   9.600 -0.0440  3.5939  2.2824
   81SAPS  C214 7545   0.677   3.870   9.500  0.4661  0.3386 -0.0820
   81SAPS  H14R 7546   0.569   3.878   9.516  0.4568  0.6633 -0.3036
   81SAPS  C215 7547   0.717   3.864   9.375 -0.3537 -0.4365 -0.0338
   81SAPS  H15R 7548   0.638   3.865   9.299 -0.8282 -2.5265  0.3930
   81SAPS  C216 7549   0.861   3.851   9.331 -0.8266 -0.5490  0.0738
   81SAPS  H16R 7550   0.866   3.778   9.248 -0.6365  1.0066 -1.3051
   81SAPS  H16S 7551   0.910   3.805   9.420 -0.4012  0.4874  0.3818
   81SAPS  C217 7552   0.940   3.975   9.287 -1.0445 -0.6732  0.2095
   81SAPS  H17R 7553   0.865   4.038   9.234  1.3728  0.2483 -2.1973
   81SAPS  H17S 7554   1.014   3.954   9.207 -1.0471  1.4498 -0.3629
   81SAPS  C218 7555   1.003   4.049   9.404  0.0107  0.3225 -1.0335
   81SAPS  H18R 7556   1.074   3.986   9.463 -0.0225  1.6513  0.4864
   81SAPS  H18S 7557   0.925   4.067   9.481 -0.3620  1.7481 -1.7382
   81SAPS  C219 7558   1.078   4.174   9.351  0.6361  0.1379  0.3468
   81SAPS  H19R 7559   1.001   4.242   9.310 -0.1760 -0.2574  1.2052
   81SAPS  H19S 7560   1.150   4.143   9.272  0.9724 -0.4991  0.9061
   81SAPS  C220 7561   1.150   4.253   9.460  0.1668  0.1820  0.3809
   81SAPS  H20R 7562   1.236   4.197   9.503 -0.7046 -2.0738 -0.7207
   81SAPS  H20S 7563   1.094   4.277   9.553  0.9678 -0.7409  1.1184
   81SAPS  H20T 7564   1.182   4.351   9.417  0.1800 -0.7499 -1.7676
   81SAPS   C33 7565   0.693   4.741  10.105  0.5959  1.0761 -0.4320
   81SAPS   H3X 7566   0.714   4.837  10.052 -0.3410  0.5413 -1.8072
   81SAPS   H3Y 7567   0.625   4.681  10.041  1.3752  0.0772 -0.3232
   81SAPS   C34 7568   0.824   4.664  10.100 -0.2062 -0.5300  0.3049
   81SAPS   H4X 7569   0.813   4.567  10.154 -2.8579 -0.1001  0.6002
   81SAPS   H4Y 7570   0.902   4.726  10.150 -2.5774  2.2616  0.6475
   81SAPS   C35 7571   0.857   4.631   9.949  0.0096 -0.6424  0.4803
   81SAPS   H5X 7572   0.963   4.600   9.938 -0.6373 -2.9667  0.5096
   81SAPS   H5Y 7573   0.836   4.724   9.892  1.7077 -1.1637 -1.0159
   81SAPS   C36 7574   0.770   4.515   9.890  0.1325  0.2402  0.4767
   81SAPS   H6X 7575   0.662   4.539   9.879 -0.6075 -2.1417  2.1068
   81SAPS   H6Y 7576   0.774   4.431   9.963  0.7913  0.7014  0.9783
   81SAPS   C37 7577   0.823   4.455   9.761  0.3843  0.4144  0.0745
   81SAPS   H7X 7578   0.781   4.352   9.758 -1.6364  1.1171  2.4879
   81SAPS   H7Y 7579   0.933   4.442   9.760  0.2991 -0.4578  0.8289
   81SAPS   C38 7580   0.774   4.525   9.634  0.1068  0.3121  0.1772
   81SAPS   H8X 7581   0.801   4.632   9.632  0.9039  0.1881  2.4277
   81SAPS   H8Y 7582   0.663   4.522   9.644  0.1353 -0.2994  0.3804
   81SAPS   C39 7583   0.813   4.455   9.504 -0.0645  0.3629 -0.0456
   81SAPS   H9X 7584   0.750   4.364   9.518  1.5092 -0.9344 -1.2817
   81SAPS   H9Y 7585   0.919   4.422   9.502  0.2001  0.9708  2.0575
   81SAPS  C310 7586   0.775   4.532   9.377  0.1549  0.5942  0.4234
   81SAPS  H10X 7587   0.673   4.572   9.391  0.0482  0.4189  0.1509
   81SAPS  H10Y 7588   0.786   4.461   9.293  0.2636  1.7484 -0.5482
   81SAPS  C311 7589   0.867   4.653   9.366 -0.0370 -0.0457 -0.4279
   81SAPS  H11X 7590   0.972   4.626   9.389  0.1819 -1.2506 -2.6714
   81SAPS  H11Y 7591   0.849   4.717   9.455 -1.7230 -0.0811 -0.7376
   81SAPS  C312 7592   0.850   4.740   9.244 -0.1016 -0.3151 -0.1860
   81SAPS  H12X 7593   0.889   4.679   9.160 -1.4269 -0.4496 -0.7180
   81SAPS  H12Y 7594   0.892   4.843   9.254 -1.4036  0.3584 -1.4275
   81SAPS  C313 7595   0.706   4.773   9.205 -0.3738  0.0620 -0.0901
   81SAPS  H13X 7596   0.659   4.830   9.288  1.1786  1.1647  0.0509
   81SAPS  H13Y 7597   0.638   4.687   9.185 -0.8631  0.0215  1.6697
   81SAPS  C314 7598   0.712   4.866   9.088 -0.1991 -0.9139  0.2663
   81SAPS  H14X 7599   0.737   4.809   8.996  3.0163  1.3234 -0.3406
   81SAPS  H14Y 7600   0.791   4.943   9.099  0.5046 -1.9310  2.6113
   81SAPS  C315 7601   0.576   4.932   9.067 -0.0711 -0.1111  0.8076
   81SAPS  H15X 7602   0.552   5.033   9.105  0.0686  0.1166  0.2950
   81SAPS  H15Y 7603   0.502   4.860   9.107 -1.5422 -0.5352 -2.5086
   81SAPS  C316 7604   0.536   4.938   8.920  0.7469  0.6201 -0.6462
   81SAPS  H16X 7605   0.430   4.972   8.915  0.5190  0.0027 -0.1065
   81SAPS  H16Y 7606   0.550   4.838   8.874  1.9239  0.6926 -0.4531
   81SAPS  C317 7607   0.609   5.039   8.835  0.3955 -0.4848  0.2546
   81SAPS  H17X 7608   0.694   5.089   8.886  0.8214  0.9683 -1.7962
   81SAPS  H17Y 7609   0.544   5.125   8.807  0.5850 -0.9844 -1.7902
   81SAPS  C318 7610   0.662   4.980   8.703 -0.4322  0.4620 -0.9593
   81SAPS  H18X 7611   0.568   4.945   8.654 -0.8804  1.3684 -0.7705
   81SAPS  H18Y 7612   0.737   4.900   8.717 -2.6761 -1.7635 -1.2699
   81SAPS  H18Z 7613   0.705   5.066   8.647  0.8588 -0.6971 -1.7762
   82SAPS     N 7614   6.391   4.060  11.052  0.2733  0.1703 -0.4972
   82SAPS   HN1 7615   6.317   4.027  11.116  0.3239 -1.0044 -1.0525
   82SAPS   HN2 7616   6.352   4.126  10.982 -0.8557 -0.2084 -0.2357
   82SAPS   HN3 7617   6.438   3.975  11.015  2.0026  0.7712  0.2441
   82SAPS   C12 7618   6.483   4.130  11.139 -0.8527  0.1655 -1.0282
   82SAPS  H12A 7619   6.432   4.214  11.184  1.9429  1.3645  0.0459
   82SAPS   C13 7620   6.561   4.058  11.251  0.2459 -0.9046 -0.4713
   82SAPS  O13A 7621   6.526   3.937  11.294 -0.7442  0.0589 -0.0708
   82SAPS  O13B 7622   6.653   4.116  11.314  0.3160  0.4265  0.6051
   82SAPS   C11 7623   6.588   4.201  11.047 -0.1703 -0.5434 -0.0054
   82SAPS  H11A 7624   6.635   4.111  11.002 -3.0739 -1.7099 -0.8245
   82SAPS  H11B 7625   6.673   4.239  11.108  0.6341 -1.2563 -0.6803
   82SAPS     P 7626   6.629   4.379  10.864 -0.0364 -0.0086  0.0534
   82SAPS   O13 7627   6.557   4.473  10.776 -0.2040  0.1410  0.2042
   82SAPS   O14 7628   6.728   4.431  10.960 -0.1523  0.3296  0.9517
   82SAPS   O12 7629   6.533   4.281  10.938  0.6056 -0.8734 -1.5099
   82SAPS   O11 7630   6.718   4.279  10.774 -0.2203 -1.0963  0.3710
   82SAPS    C1 7631   6.659   4.167  10.705 -1.0632 -0.0794  0.3310
   82SAPS    HA 7632   6.725   4.077  10.700  0.2527  0.7969  1.6423
   82SAPS    HB 7633   6.559   4.138  10.744 -1.8251  0.1445 -1.4217
   82SAPS    C2 7634   6.630   4.203  10.555  0.3585  0.7766 -0.2232
   82SAPS    HS 7635   6.530   4.252  10.554 -0.4403 -0.7897  0.9293
   82SAPS   O21 7636   6.641   4.091  10.468  0.3246  0.7740  0.4487
   82SAPS   C21 7637   6.547   4.000  10.494  0.2974 -0.0891  0.3348
   82SAPS   O22 7638   6.456   4.007  10.572 -0.4255 -0.1882 -0.0653
   82SAPS   C22 7639   6.573   3.889  10.392 -0.5421  0.4067  0.2853
   82SAPS   H2R 7640   6.554   3.791  10.441 -0.3315  1.1252  1.8604
   82SAPS   H2S 7641   6.516   3.902  10.298  1.2725 -1.1333 -1.0517
   82SAPS    C3 7642   6.733   4.309  10.502 -0.2553  0.2406 -0.6879
   82SAPS    HX 7643   6.832   4.282  10.545 -0.3391 -0.1859 -0.7606
   82SAPS    HY 7644   6.716   4.409  10.549  0.0084 -0.6834  1.4296
   82SAPS   O31 7645   6.726   4.312  10.356  0.0891  0.4801  0.2969
   82SAPS   C31 7646   6.831   4.259  10.292 -0.9075  0.9057 -0.9631
   82SAPS   O32 7647   6.933   4.207  10.343 -0.7017 -0.5546 -0.0683
   82SAPS   C32 7648   6.807   4.276  10.142 -0.2538  0.4013  0.4190
   82SAPS   H2X 7649   6.904   4.245  10.096 -0.7629  0.3474 -0.6462
   82SAPS   H2Y 7650   6.792   4.384  10.121 -0.0669  0.5841  1.2117
   82SAPS   C23 7651   6.709   3.881  10.332 -0.3246  0.1360 -0.2682
   82SAPS   H3R 7652   6.786   3.869  10.411  0.2602  1.8935 -0.5570
   82SAPS   H3S 7653   6.735   3.979  10.287  0.7295 -0.6297 -1.3464
   82SAPS   C24 7654   6.722   3.768  10.224  0.1686 -0.5158  0.2850
   82SAPS   H4R 7655   6.804   3.797  10.155 -1.4915  0.9504 -1.0953
   82SAPS   H4S 7656   6.625   3.757  10.170  0.3755 -0.1055 -0.1741
   82SAPS   C25 7657   6.752   3.630  10.284 -0.2968 -0.5243 -0.0871
   82SAPS   H5R 7658   6.767   3.624  10.393  2.0334 -0.2086 -0.3626
   82SAPS   C26 7659   6.736   3.517  10.211  1.1553 -0.4766 -0.0860
   82SAPS   H6R 7660   6.751   3.420  10.261 -0.3540 -0.5791  0.1867
   82SAPS   C27 7661   6.702   3.508  10.064 -0.6142 -0.2301  0.6053
   82SAPS   H7R 7662   6.680   3.611  10.028  0.2506 -0.1046  0.4337
   82SAPS   H7S 7663   6.600   3.468  10.047 -0.1974 -1.6871  1.5183
   82SAPS   C28 7664   6.808   3.447   9.972  0.7090  0.5563  0.3480
   82SAPS   H8R 7665   6.910   3.459  10.012  0.0629  2.9215  1.3910
   82SAPS   C29 7666   6.794   3.381   9.850  0.0928 -0.0731 -0.4377
   82SAPS   H9R 7667   6.886   3.339   9.806 -0.1936  0.3532 -1.4792
   82SAPS  C210 7668   6.664   3.359   9.780 -0.1004  0.1380 -0.1596
   82SAPS  H10R 7669   6.584   3.423   9.823  1.4196  1.1844  1.1853
   82SAPS  H10S 7670   6.633   3.256   9.808 -1.2558  0.1154 -1.4938
   82SAPS  C211 7671   6.658   3.378   9.627 -0.3118 -0.2942 -0.4753
   82SAPS  H11R 7672   6.744   3.429   9.582  2.4003 -1.4973  3.1358
   82SAPS  C212 7673   6.560   3.344   9.538  0.0084  0.1270 -0.4285
   82SAPS  H12R 7674   6.581   3.373   9.434  1.1860  0.9097  0.0146
   82SAPS  C213 7675   6.429   3.280   9.573  0.3689  0.2581  0.4045
   82SAPS  H13R 7676   6.342   3.347   9.558 -1.4878 -1.8671  1.3741
   82SAPS  H13S 7677   6.423   3.234   9.674  1.0166 -1.0983 -0.1548
   82SAPS  C214 7678   6.425   3.160   9.479 -0.6082 -0.6833  0.1951
   82SAPS  H14R 7679   6.413   3.195   9.375  3.1234  0.7998  0.1921
   82SAPS  C215 7680   6.425   3.034   9.503  0.4385 -0.4958  0.2649
   82SAPS  H15R 7681   6.431   2.961   9.420  0.4398 -0.3391  0.1282
   82SAPS  C216 7682   6.445   2.978   9.642  0.1276 -0.2420  0.5658
   82SAPS  H16R 7683   6.510   3.037   9.710 -0.8075 -1.0224  2.1728
   82SAPS  H16S 7684   6.502   2.883   9.630  0.0131 -0.2427  0.0185
   82SAPS  C217 7685   6.305   2.943   9.712 -0.1677 -0.1734 -0.2707
   82SAPS  H17R 7686   6.257   2.850   9.673 -0.0227  0.6242 -2.4003
   82SAPS  H17S 7687   6.231   3.023   9.694  0.0881  0.5716  1.7965
   82SAPS  C218 7688   6.319   2.932   9.868  0.2894  0.0486  0.1111
   82SAPS  H18R 7689   6.356   3.031   9.903  0.8901 -0.1286 -0.0121
   82SAPS  H18S 7690   6.397   2.855   9.890 -0.5055 -0.8596 -0.2330
   82SAPS  C219 7691   6.189   2.890   9.935 -0.7527  0.1345  0.1041
   82SAPS  H19R 7692   6.158   2.792   9.891 -1.4780  0.0099  0.8817
   82SAPS  H19S 7693   6.115   2.966   9.902 -0.6061 -0.0581 -0.6830
   82SAPS  C220 7694   6.187   2.875  10.088 -0.3649 -0.1282 -0.0350
   82SAPS  H20R 7695   6.095   2.817  10.114 -0.5263 -0.0941 -0.5314
   82SAPS  H20S 7696   6.203   2.971  10.141 -0.0935  0.9616 -2.0786
   82SAPS  H20T 7697   6.269   2.810  10.125 -1.8786 -1.9425  0.2673
   82SAPS   C33 7698   6.684   4.198  10.080 -0.2066 -0.5773 -0.1873
   82SAPS   H3X 7699   6.616   4.191  10.167 -0.0667 -2.5476 -0.2112
   82SAPS   H3Y 7700   6.712   4.098  10.041 -1.6616 -0.8848 -0.4516
   82SAPS   C34 7701   6.611   4.259   9.965 -0.7642  0.1586  0.3598
   82SAPS   H4X 7702   6.594   4.368   9.982 -0.3064  0.3049 -0.1174
   82SAPS   H4Y 7703   6.518   4.205   9.937 -0.9662  0.3654  0.6336
   82SAPS   C35 7704   6.701   4.254   9.838  0.1921  0.9699 -1.2946
   82SAPS   H5X 7705   6.731   4.155   9.797 -0.8159 -0.4846  1.3091
   82SAPS   H5Y 7706   6.797   4.299   9.874  0.6774  1.1283 -2.7722
   82SAPS   C36 7707   6.629   4.329   9.722 -0.0263  0.4601  0.0262
   82SAPS   H6X 7708   6.611   4.428   9.769  0.1494  0.0899  0.8783
   82SAPS   H6Y 7709   6.527   4.287   9.709  0.4364 -1.1259  1.2683
   82SAPS   C37 7710   6.722   4.345   9.597 -0.1031 -0.9971 -0.5889
   82SAPS   H7X 7711   6.766   4.245   9.575 -0.9974 -1.4075 -0.5681
   82SAPS   H7Y 7712   6.796   4.427   9.609 -2.7271  1.5765 -1.5133
   82SAPS   C38 7713   6.634   4.394   9.474  0.6001  0.0814 -0.3536
   82SAPS   H8X 7714   6.564   4.474   9.507  0.0321 -0.0093 -1.3142
   82SAPS   H8Y 7715   6.567   4.308   9.450  0.2685 -0.1836  1.4343
   82SAPS   C39 7716   6.704   4.428   9.345  0.2312 -0.3053 -0.3569
   82SAPS   H9X 7717   6.766   4.345   9.305  1.3445  0.8730 -1.1042
   82SAPS   H9Y 7718   6.778   4.508   9.367  0.8354 -1.5084  2.2273
   82SAPS  C310 7719   6.599   4.463   9.239  0.2441 -0.0660  0.0341
   82SAPS  H10X 7720   6.529   4.543   9.272  0.0108 -0.1607 -0.2269
   82SAPS  H10Y 7721   6.537   4.373   9.222  1.4492 -0.6181 -1.5650
   82SAPS  C311 7722   6.663   4.499   9.111  0.7862 -0.1834  0.6428
   82SAPS  H11X 7723   6.737   4.419   9.090  0.4289 -0.1160 -0.9464
   82SAPS  H11Y 7724   6.729   4.589   9.117  0.7057  0.0672 -1.5527
   82SAPS  C312 7725   6.566   4.514   8.994 -0.4420  0.7078  0.1687
   82SAPS  H12X 7726   6.480   4.569   9.038 -2.0077 -2.4025  1.1132
   82SAPS  H12Y 7727   6.531   4.414   8.960  2.5873 -0.0898 -0.7687
   82SAPS  C313 7728   6.644   4.579   8.875  0.4150 -0.0593  0.0152
   82SAPS  H13X 7729   6.594   4.543   8.783  0.8561 -0.3358 -0.1197
   82SAPS  H13Y 7730   6.745   4.533   8.875  0.4230 -0.0533 -0.6118
   82SAPS  C314 7731   6.660   4.730   8.888 -0.3542 -0.2038  0.0334
   82SAPS  H14X 7732   6.732   4.753   8.970  1.0812  1.5942 -1.6766
   82SAPS  H14Y 7733   6.562   4.775   8.914  0.1186  1.2214 -0.5965
   82SAPS  C315 7734   6.717   4.820   8.770 -0.2007 -0.1650  0.2566
   82SAPS  H15X 7735   6.707   4.929   8.790 -1.2577 -0.1564 -0.2799
   82SAPS  H15Y 7736   6.651   4.808   8.681  1.3137  2.0388 -1.2201
   82SAPS  C316 7737   6.851   4.780   8.717  0.2918  0.4538 -0.9162
   82SAPS  H16X 7738   6.831   4.674   8.691  0.3841 -0.5255  2.7537
   82SAPS  H16Y 7739   6.917   4.790   8.805 -0.3695  0.1294 -0.3786
   82SAPS  C317 7740   6.906   4.872   8.608 -0.3307 -0.1908 -0.1179
   82SAPS  H17X 7741   7.009   4.850   8.575 -0.7795 -3.3312  0.4085
   82SAPS  H17Y 7742   6.908   4.970   8.661  1.0129 -0.4655  0.3429
   82SAPS  C318 7743   6.822   4.905   8.480  0.3423 -0.1547  0.3273
   82SAPS  H18X 7744   6.879   4.968   8.409 -0.6048 -2.6271 -2.7087
   82SAPS  H18Y 7745   6.717   4.931   8.505  0.7901  0.5226  1.5324
   82SAPS  H18Z 7746   6.815   4.807   8.428  0.4234  0.3834 -0.7043
   83SAPS     N 7747   0.326   4.962  11.377  0.1275  0.3138 -0.3400
   83SAPS   HN1 7748   0.430   4.958  11.374  0.1111 -0.0142 -0.5472
   83SAPS   HN2 7749   0.292   4.908  11.460 -1.6023  3.1500  0.8694
   83SAPS   HN3 7750   0.285   4.927  11.288 -0.5687 -0.9776  0.4675
   83SAPS   C12 7751   0.314   5.111  11.401 -0.7350 -0.0662 -0.4789
   83SAPS  H12A 7752   0.207   5.126  11.397 -1.1351 -2.4015  0.3107
   83SAPS   C13 7753   0.366   5.158  11.535  0.4697  0.0582 -0.6629
   83SAPS  O13A 7754   0.384   5.068  11.628  0.1801  0.3904 -0.0238
   83SAPS  O13B 7755   0.344   5.277  11.561 -0.6583 -0.3434 -0.0793
   83SAPS   C11 7756   0.387   5.175  11.283  0.5081  0.3860 -0.0271
   83SAPS  H11A 7757   0.381   5.285  11.298 -1.9195  0.4340 -1.1686
   83SAPS  H11B 7758   0.326   5.157  11.192  0.4918 -0.8010  0.2071
   83SAPS     P 7759   0.634   5.211  11.195  0.3231  0.0596 -0.6557
   83SAPS   O13 7760   0.634   5.342  11.259 -0.1537  0.2359  0.1656
   83SAPS   O14 7761   0.761   5.142  11.191  0.0649  0.5536 -0.0054
   83SAPS   O12 7762   0.526   5.126  11.258 -0.2416 -0.5196 -0.0851
   83SAPS   O11 7763   0.568   5.220  11.038 -0.6582 -0.2447 -0.1447
   83SAPS    C1 7764   0.550   5.342  10.970  0.4314  0.0447 -0.2453
   83SAPS    HA 7765   0.441   5.364  10.976  0.4288 -0.4568  1.9125
   83SAPS    HB 7766   0.613   5.420  11.017 -0.7274  0.3959  0.7634
   83SAPS    C2 7767   0.594   5.334  10.819  0.2162  0.7108  0.3934
   83SAPS    HS 7768   0.606   5.441  10.789 -1.1818  1.0516  1.0259
   83SAPS   O21 7769   0.474   5.269  10.760  0.2004 -0.5076 -0.2713
   83SAPS   C21 7770   0.460   5.297  10.632 -0.0631 -0.1204  0.1221
   83SAPS   O22 7771   0.535   5.362  10.562  0.8574 -0.2065  0.0996
   83SAPS   C22 7772   0.326   5.247  10.587  0.6736 -0.0828 -0.5603
   83SAPS   H2R 7773   0.298   5.165  10.657 -2.8392 -0.0836 -1.8250
   83SAPS   H2S 7774   0.247   5.325  10.599  0.6701 -0.2397  0.4797
   83SAPS    C3 7775   0.727   5.253  10.794  0.3941 -0.1488 -0.7352
   83SAPS    HX 7776   0.704   5.147  10.820  0.7942 -0.6761 -2.5034
   83SAPS    HY 7777   0.796   5.295  10.870  1.8990 -0.4150 -1.9548
   83SAPS   O31 7778   0.780   5.245  10.665  0.8210  0.0964 -0.2749
   83SAPS   C31 7779   0.834   5.359  10.622  0.3661  0.1697  0.4900
   83SAPS   O32 7780   0.870   5.451  10.694 -0.6434  0.4001  0.7947
   83SAPS   C32 7781   0.850   5.346  10.469  0.1559  0.4454 -0.0286
   83SAPS   H2X 7782   0.754   5.312  10.425  0.8100 -1.2431 -0.1803
   83SAPS   H2Y 7783   0.924   5.265  10.450 -2.3218 -1.6059 -1.3629
   83SAPS   C23 7784   0.322   5.202  10.441  0.8295  0.6522 -0.0822
   83SAPS   H3R 7785   0.363   5.279  10.373 -0.4125  0.2104 -1.3411
   83SAPS   H3S 7786   0.212   5.190  10.429  0.8688  0.9852 -0.8012
   83SAPS   C24 7787   0.379   5.069  10.399  0.7208  0.0448  0.6043
   83SAPS   H4R 7788   0.338   4.988  10.462 -1.4577  1.1117  0.5990
   83SAPS   H4S 7789   0.484   5.045  10.429  1.1628 -0.6870 -1.4396
   83SAPS   C25 7790   0.350   5.053  10.250  1.0931  0.0486  0.0713
   83SAPS   H5R 7791   0.253   5.008  10.225  1.4022 -0.6338  0.0912
   83SAPS   C26 7792   0.437   5.085  10.149 -0.1013 -0.3962  0.4878
   83SAPS   H6R 7793   0.400   5.062  10.048 -0.8981  4.4029 -0.4272
   83SAPS   C27 7794   0.578   5.140  10.163  0.0330 -0.5769  0.8293
   83SAPS   H7R 7795   0.642   5.055  10.131 -2.6862 -1.8739 -1.4444
   83SAPS   H7S 7796   0.604   5.162  10.268  3.3973 -0.4876  0.0379
   83SAPS   C28 7797   0.605   5.268  10.086 -0.5071  0.2270  0.0342
   83SAPS   H8R 7798   0.570   5.360  10.135  0.9020  1.3970 -1.1001
   83SAPS   C29 7799   0.657   5.279   9.959 -0.5967 -0.3870 -0.7579
   83SAPS   H9R 7800   0.680   5.381   9.924 -0.2857 -0.3544 -0.4536
   83SAPS  C210 7801   0.701   5.175   9.869  0.7892 -0.2280  0.9642
   83SAPS  H10R 7802   0.711   5.079   9.923 -1.1291 -1.7518 -1.3259
   83SAPS  H10S 7803   0.807   5.202   9.846  0.5260  0.8277  0.9450
   83SAPS  C211 7804   0.622   5.162   9.747 -0.0499 -0.7480  0.2587
   83SAPS  H11R 7805   0.585   5.255   9.701 -1.1753 -3.2930 -4.3085
   83SAPS  C212 7806   0.582   5.049   9.684  0.1321  0.8488 -0.5107
   83SAPS  H12R 7807   0.520   5.059   9.594 -0.6335  1.0699  0.0290
   83SAPS  C213 7808   0.620   4.904   9.721  0.0349  0.5107  0.2839
   83SAPS  H13R 7809   0.703   4.906   9.794 -0.5528  1.0642  0.9466
   83SAPS  H13S 7810   0.671   4.858   9.634  0.1319  0.0581  0.5796
   83SAPS  C214 7811   0.512   4.815   9.781 -0.3480  0.0778 -0.8093
   83SAPS  H14R 7812   0.495   4.845   9.886 -0.8513 -3.7666  0.2551
   83SAPS  C215 7813   0.437   4.716   9.731 -0.0511 -0.1843  0.1070
   83SAPS  H15R 7814   0.369   4.661   9.798  0.2005 -0.2421  0.3174
   83SAPS  C216 7815   0.443   4.673   9.589 -0.6907 -1.0052 -0.1341
   83SAPS  H16R 7816   0.443   4.562   9.582 -1.3800 -1.0778  1.0244
   83SAPS  H16S 7817   0.537   4.711   9.544 -1.4791 -0.1549 -1.0816
   83SAPS  C217 7818   0.315   4.704   9.509  0.7035  0.1724 -0.2612
   83SAPS  H17R 7819   0.273   4.799   9.550 -0.5398 -0.7298  0.5601
   83SAPS  H17S 7820   0.237   4.626   9.519  2.9224 -1.8020  2.5662
   83SAPS  C218 7821   0.342   4.717   9.356  0.5099 -0.8620  0.5334
   83SAPS  H18R 7822   0.422   4.643   9.333  2.8630  1.4753  0.9953
   83SAPS  H18S 7823   0.370   4.817   9.317  1.3942 -1.2965  0.0441
   83SAPS  C219 7824   0.219   4.698   9.261 -0.1997  0.2443 -0.4008
   83SAPS  H19R 7825   0.135   4.760   9.299 -0.9836 -0.7938 -0.4158
   83SAPS  H19S 7826   0.166   4.600   9.259 -1.5345  0.9387  0.2013
   83SAPS  C220 7827   0.242   4.733   9.115 -0.2875  0.6578  0.2091
   83SAPS  H20R 7828   0.265   4.841   9.099  0.8835  0.5535  1.1326
   83SAPS  H20S 7829   0.155   4.707   9.050  0.1761  0.0798 -0.1864
   83SAPS  H20T 7830   0.318   4.657   9.089 -0.1976  1.7536 -3.0895
   83SAPS   C33 7831   0.893   5.485  10.424  0.0334 -0.0366 -0.4962
   83SAPS   H3X 7832   0.981   5.518  10.483 -0.9336 -0.6855  1.3258
   83SAPS   H3Y 7833   0.826   5.569  10.450  1.3589  1.8046 -2.7556
   83SAPS   C34 7834   0.912   5.482  10.271 -0.1273 -0.0586  0.3551
   83SAPS   H4X 7835   0.811   5.457  10.233 -0.3070  0.7425  0.3092
   83SAPS   H4Y 7836   0.992   5.412  10.238 -1.4578 -0.1601 -2.8834
   83SAPS   C35 7837   0.934   5.625  10.220 -0.2304  0.4453  0.9680
   83SAPS   H5X 7838   1.038   5.665  10.226 -0.2052  0.5468 -0.0904
   83SAPS   H5Y 7839   0.863   5.690  10.275 -1.8507 -1.7462  1.5537
   83SAPS   C36 7840   0.912   5.638  10.062 -0.0864  0.0446  0.1059
   83SAPS   H6X 7841   0.909   5.748  10.046  2.6208  0.1730  0.1726
   83SAPS   H6Y 7842   0.821   5.582  10.031  0.1923 -0.1612 -0.3276
   83SAPS   C37 7843   1.032   5.591   9.972  0.1121 -0.3028 -0.3595
   83SAPS   H7X 7844   1.051   5.486  10.002 -2.7850 -0.7946 -0.1150
   83SAPS   H7Y 7845   1.123   5.651   9.993 -0.2590 -0.3583  1.5197
   83SAPS   C38 7846   1.010   5.587   9.819 -0.4537 -0.1432 -0.5699
   83SAPS   H8X 7847   1.112   5.596   9.775  0.0369  1.4163  0.8364
   83SAPS   H8Y 7848   0.955   5.678   9.789  2.0855  1.3911 -0.7340
   83SAPS   C39 7849   0.919   5.477   9.764  0.2581 -0.3990 -0.4266
   83SAPS   H9X 7850   0.817   5.506   9.797  0.3615  2.5258 -2.4341
   83SAPS   H9Y 7851   0.950   5.385   9.818  0.2600 -0.7967 -1.0952
   83SAPS  C310 7852   0.921   5.484   9.614 -0.4735  0.5861 -0.4628
   83SAPS  H10X 7853   1.025   5.452   9.592  0.5233  2.6022  1.0744
   83SAPS  H10Y 7854   0.895   5.586   9.576 -2.9404 -0.1553 -0.8657
   83SAPS  C311 7855   0.819   5.391   9.543 -0.1130  0.2748  0.9242
   83SAPS  H11X 7856   0.717   5.425   9.569 -0.4344  0.9525 -1.1388
   83SAPS  H11Y 7857   0.838   5.288   9.582 -1.2742 -0.8528 -1.4137
   83SAPS  C312 7858   0.828   5.403   9.394  0.7968  0.1299  1.0291
   83SAPS  H12X 7859   0.934   5.385   9.366  0.3152 -1.4042  0.1524
   83SAPS  H12Y 7860   0.806   5.509   9.369 -2.4973 -0.6965  0.0778
   83SAPS  C313 7861   0.736   5.302   9.331 -0.2797  0.1320 -0.0364
   83SAPS  H13X 7862   0.632   5.342   9.340 -0.3779 -0.3567  1.1106
   83SAPS  H13Y 7863   0.735   5.210   9.393 -1.7724  0.6696  0.7651
   83SAPS  C314 7864   0.764   5.274   9.185  0.2191 -0.4071  0.2306
   83SAPS  H14X 7865   0.670   5.221   9.155  0.9327 -1.1768 -0.6713
   83SAPS  H14Y 7866   0.848   5.201   9.179  0.9095  0.4415 -0.4710
   83SAPS  C315 7867   0.802   5.386   9.091  0.0840 -0.5067 -0.1919
   83SAPS  H15X 7868   0.889   5.443   9.131 -0.6413  0.2448  0.3355
   83SAPS  H15Y 7869   0.713   5.452   9.087 -0.8918 -1.7257  1.0779
   83SAPS  C316 7870   0.839   5.330   8.958 -0.5817  0.0957  0.8048
   83SAPS  H16X 7871   0.740   5.321   8.909  0.1291 -1.3461 -0.4178
   83SAPS  H16Y 7872   0.894   5.233   8.966 -0.0114  0.5228  2.3689
   83SAPS  C317 7873   0.919   5.430   8.871  0.2636  0.3033 -0.3636
   83SAPS  H17X 7874   1.017   5.437   8.922  0.4833 -2.2161 -0.3978
   83SAPS  H17Y 7875   0.886   5.537   8.873  0.8829  0.4770  2.2955
   83SAPS  C318 7876   0.935   5.389   8.726  0.1187  0.2750  0.7808
   83SAPS  H18X 7877   1.015   5.447   8.676  1.0193 -0.1169  1.7406
   83SAPS  H18Y 7878   0.839   5.398   8.671  1.5235  1.1499 -1.6289
   83SAPS  H18Z 7879   0.956   5.280   8.724  0.9692  0.4509 -1.6445
   84SAPS     N 7880   3.268   5.177  11.382  0.0345 -0.1595  0.3074
   84SAPS   HN1 7881   3.176   5.190  11.429  0.9373  0.3068  1.9658
   84SAPS   HN2 7882   3.264   5.211  11.283  1.3069 -1.8008 -0.3397
   84SAPS   HN3 7883   3.282   5.074  11.380 -2.0524 -0.4984  1.5435
   84SAPS   C12 7884   3.386   5.228  11.468  0.0612 -0.6235  0.3739
   84SAPS  H12A 7885   3.379   5.335  11.468  1.0450 -0.5551 -0.6271
   84SAPS   C13 7886   3.378   5.180  11.618 -0.0527 -0.1961 -0.5387
   84SAPS  O13A 7887   3.284   5.098  11.649  0.1655 -0.2537  0.3626
   84SAPS  O13B 7888   3.452   5.230  11.706  0.4452  0.2964  0.3348
   84SAPS   C11 7889   3.528   5.181  11.409  0.2822 -0.5998 -0.2157
   84SAPS  H11A 7890   3.538   5.072  11.426  0.6061 -1.0784 -3.2407
   84SAPS  H11B 7891   3.597   5.244  11.469  2.0899 -0.3256 -2.5008
   84SAPS     P 7892   3.667   5.148  11.188  0.8124 -0.1545 -0.4137
   84SAPS   O13 7893   3.700   5.229  11.074  0.0086 -1.1492  0.1589
   84SAPS   O14 7894   3.775   5.117  11.290  0.1191 -0.1269 -0.2516
   84SAPS   O12 7895   3.548   5.215  11.272  0.1338 -0.2588 -0.2172
   84SAPS   O11 7896   3.591   5.018  11.137 -0.9238 -0.0692 -0.1915
   84SAPS    C1 7897   3.470   5.023  11.063  0.4204 -0.0485  0.3856
   84SAPS    HA 7898   3.394   4.970  11.126  0.4818 -2.2522 -1.3406
   84SAPS    HB 7899   3.431   5.126  11.048 -1.3733 -0.7722 -0.1068
   84SAPS    C2 7900   3.490   4.952  10.926 -0.0295 -0.4928  0.1618
   84SAPS    HS 7901   3.567   5.013  10.873 -0.6439 -1.0509 -1.4152
   84SAPS   O21 7902   3.358   4.943  10.863  0.7245  0.0342  0.0415
   84SAPS   C21 7903   3.361   4.973  10.730 -0.2751 -0.3628 -0.0162
   84SAPS   O22 7904   3.459   4.994  10.667  0.2277 -0.1232 -0.0329
   84SAPS   C22 7905   3.224   4.949  10.670  0.2270 -0.6674  0.6077
   84SAPS   H2R 7906   3.176   4.855  10.706  0.1848 -0.0065  2.2821
   84SAPS   H2S 7907   3.160   5.035  10.697  2.0962  0.4175  1.6941
   84SAPS    C3 7908   3.556   4.812  10.938 -0.3314 -0.2399 -0.1081
   84SAPS    HX 7909   3.646   4.824  11.002  0.2922  3.5689 -1.5462
   84SAPS    HY 7910   3.598   4.783  10.839 -0.3479  0.1961 -0.2474
   84SAPS   O31 7911   3.474   4.714  10.998  0.4677  0.0994 -0.0509
   84SAPS   C31 7912   3.394   4.637  10.925  0.1992 -0.0358  0.3555
   84SAPS   O32 7913   3.388   4.636  10.802 -0.1703  0.0010  0.0417
   84SAPS   C32 7914   3.304   4.557  11.009  0.1218  0.0465  0.3110
   84SAPS   H2X 7915   3.264   4.620  11.091  0.5922 -0.1273  0.6717
   84SAPS   H2Y 7916   3.365   4.475  11.052  1.1353  1.5723  1.8235
   84SAPS   C23 7917   3.232   4.938  10.513  0.1504  0.2009 -0.0886
   84SAPS   H3R 7918   3.295   5.018  10.468  1.2205 -0.5218  0.1036
   84SAPS   H3S 7919   3.133   4.961  10.468 -0.8294  0.1636  1.9974
   84SAPS   C24 7920   3.280   4.805  10.473  0.3813  0.1735  0.4724
   84SAPS   H4R 7921   3.352   4.763  10.545  0.4694  1.9753  1.4632
   84SAPS   H4S 7922   3.339   4.817  10.380 -1.1843  1.4380 -0.3960
   84SAPS   C25 7923   3.160   4.709  10.435 -0.5806  0.3001  0.2292
   84SAPS   H5R 7924   3.092   4.679  10.517 -0.0696  2.7730  1.6366
   84SAPS   C26 7925   3.133   4.662  10.312  0.3166 -0.0984 -0.6042
   84SAPS   H6R 7926   3.043   4.604  10.289  1.1334 -1.1484 -1.2116
   84SAPS   C27 7927   3.209   4.704  10.187 -0.6228  0.6792  0.1141
   84SAPS   H7R 7928   3.221   4.616  10.121 -0.6081 -0.0529  1.0918
   84SAPS   H7S 7929   3.317   4.707  10.214 -0.2971 -0.5637 -0.9888
   84SAPS   C28 7930   3.160   4.826  10.116  1.0660 -0.2101  0.7291
   84SAPS   H8R 7931   3.191   4.926  10.151  0.1137 -0.4701  2.3730
   84SAPS   C29 7932   3.084   4.820  10.009 -0.8253  0.9394  0.4691
   84SAPS   H9R 7933   3.067   4.911   9.950 -1.8806 -1.5077 -3.2397
   84SAPS  C210 7934   3.043   4.691   9.934  0.2587 -0.5939  0.0660
   84SAPS  H10R 7935   2.933   4.689   9.923  0.1504 -0.2470  1.0256
   84SAPS  H10S 7936   3.072   4.593   9.978 -0.5896 -1.2956 -0.9057
   84SAPS  C211 7937   3.119   4.673   9.801  0.1183 -0.5986 -0.3338
   84SAPS  H11R 7938   3.225   4.643   9.804  0.6140  1.1500  0.1831
   84SAPS  C212 7939   3.062   4.722   9.688  0.5818  0.1339 -0.0770
   84SAPS  H12R 7940   3.114   4.709   9.593  3.1700  0.3693  1.2695
   84SAPS  C213 7941   2.933   4.794   9.679 -0.2406  0.3966  0.5116
   84SAPS  H13R 7942   2.886   4.845   9.766 -2.2511 -0.7915  0.1615
   84SAPS  H13S 7943   2.855   4.720   9.649  0.3530  0.3240 -0.8871
   84SAPS  C214 7944   2.937   4.901   9.570 -0.6209  0.3765  0.2439
   84SAPS  H14R 7945   2.970   4.998   9.610  0.7342  0.2161 -0.4578
   84SAPS  C215 7946   2.909   4.880   9.440  0.3884 -0.0953 -0.1113
   84SAPS  H15R 7947   2.913   4.966   9.373 -0.0779  0.8890  1.1020
   84SAPS  C216 7948   2.864   4.749   9.372  0.1168  0.9479  0.1257
   84SAPS  H16R 7949   2.815   4.684   9.448  1.6556  0.1297  0.4280
   84SAPS  H16S 7950   2.945   4.682   9.336 -0.9131 -0.1874 -0.1173
   84SAPS  C217 7951   2.767   4.770   9.247 -0.6739 -0.0886 -0.6521
   84SAPS  H17R 7952   2.820   4.824   9.165 -0.6509  0.2024 -0.4453
   84SAPS  H17S 7953   2.674   4.819   9.282 -0.6090  0.8596 -1.7750
   84SAPS  C218 7954   2.725   4.637   9.198  0.5330 -0.0849  0.3642
   84SAPS  H18R 7955   2.675   4.576   9.276 -2.0859 -0.6523 -1.6957
   84SAPS  H18S 7956   2.813   4.577   9.164  0.3025 -0.6079  0.6930
   84SAPS  C219 7957   2.625   4.644   9.083  0.2683  0.1178 -0.8814
   84SAPS  H19R 7958   2.561   4.731   9.109 -0.3492 -0.3036 -0.9722
   84SAPS  H19S 7959   2.561   4.554   9.083  0.9344 -0.4051  2.2572
   84SAPS  C220 7960   2.667   4.673   8.935  0.3679 -0.2024 -0.1891
   84SAPS  H20R 7961   2.574   4.680   8.875 -1.2826 -0.5359  2.2258
   84SAPS  H20S 7962   2.741   4.598   8.902  1.8016  0.9903  0.2309
   84SAPS  H20T 7963   2.725   4.768   8.932  0.7042 -0.2500  2.7358
   84SAPS   C33 7964   3.187   4.498  10.925 -0.1142  0.2231 -0.0875
   84SAPS   H3X 7965   3.148   4.413  10.985  2.3191  0.0925  1.3796
   84SAPS   H3Y 7966   3.220   4.458  10.827 -1.8010 -2.4410  0.3798
   84SAPS   C34 7967   3.074   4.591  10.896  0.4608  0.8254  0.6747
   84SAPS   H4X 7968   3.119   4.688  10.866  0.8756  0.2599 -0.5672
   84SAPS   H4Y 7969   3.027   4.606  10.996 -0.8486 -0.3705  0.2580
   84SAPS   C35 7970   2.993   4.547  10.779 -0.2937  0.1731  0.0299
   84SAPS   H5X 7971   2.945   4.448  10.794  0.3106 -0.5542 -2.6707
   84SAPS   H5Y 7972   3.058   4.536  10.690 -0.1474  1.0900  0.0189
   84SAPS   C36 7973   2.887   4.648  10.739 -0.1703 -0.2836 -0.2884
   84SAPS   H6X 7974   2.914   4.752  10.711 -1.1648  0.5886  1.8613
   84SAPS   H6Y 7975   2.831   4.659  10.835 -0.4995  0.7636 -0.5842
   84SAPS   C37 7976   2.790   4.593  10.633 -0.2427  0.1207 -0.3538
   84SAPS   H7X 7977   2.698   4.654  10.641  0.3747  1.2248 -1.4748
   84SAPS   H7Y 7978   2.765   4.488  10.661 -0.8944  0.2477 -0.4472
   84SAPS   C38 7979   2.835   4.584  10.494 -0.3035  0.4958  0.3722
   84SAPS   H8X 7980   2.925   4.519  10.485 -0.9777 -0.2227 -1.6339
   84SAPS   H8Y 7981   2.867   4.685  10.463 -0.4572  1.5357  3.4993
   84SAPS   C39 7982   2.726   4.523  10.395  0.3725 -0.2222  0.2627
   84SAPS   H9X 7983   2.627   4.536  10.444  0.7313 -0.7975  1.1359
   84SAPS   H9Y 7984   2.744   4.414  10.399 -0.6127 -0.3784  0.6030
   84SAPS  C310 7985   2.738   4.561  10.247  0.0781 -0.3468  0.0119
   84SAPS  H10X 7986   2.838   4.524  10.219  1.3662  2.5061  0.6134
   84SAPS  H10Y 7987   2.721   4.671  10.237 -1.6304 -0.3430  2.4947
   84SAPS  C311 7988   2.648   4.493  10.144  0.5202  0.0735  0.0724
   84SAPS  H11X 7989   2.549   4.543  10.151  0.5640  0.0565  0.8064
   84SAPS  H11Y 7990   2.638   4.385  10.168 -1.9778  0.4867  1.0099
   84SAPS  C312 7991   2.709   4.512  10.004 -0.1742  0.1679 -0.9580
   84SAPS  H12X 7992   2.820   4.502  10.003  0.1274  2.4745  2.0748
   84SAPS  H12Y 7993   2.683   4.618   9.979 -2.5134  0.1050  1.0805
   84SAPS  C313 7994   2.647   4.413   9.902  0.3212  0.2017 -0.4256
   84SAPS  H13X 7995   2.536   4.418   9.904  0.2083 -2.0698 -0.4650
   84SAPS  H13Y 7996   2.677   4.310   9.928 -0.9494 -0.2070 -0.5504
   84SAPS  C314 7997   2.694   4.439   9.759 -0.0818  0.1897 -0.3684
   84SAPS  H14X 7998   2.803   4.418   9.758 -0.0369  0.3546  0.4889
   84SAPS  H14Y 7999   2.665   4.537   9.714  0.2538  0.7610  0.6386
   84SAPS  C315 8000   2.642   4.339   9.662 -0.2233  0.4742  0.1948
   84SAPS  H15X 8001   2.531   4.348   9.653 -0.0716  1.9870 -0.4204
   84SAPS  H15Y 8002   2.670   4.235   9.688  0.7478  0.7771  0.3627
   84SAPS  C316 8003   2.682   4.366   9.516 -0.4087  0.8465 -0.5420
   84SAPS  H16X 8004   2.788   4.395   9.500 -1.1263  3.2120 -1.2556
   84SAPS  H16Y 8005   2.623   4.457   9.491 -0.1576  1.2026  0.1468
   84SAPS  C317 8006   2.650   4.244   9.424  0.3563  0.8237  0.0563
   84SAPS  H17X 8007   2.552   4.201   9.455  1.0462 -1.0339 -0.3183
   84SAPS  H17Y 8008   2.732   4.171   9.438 -1.2997 -0.8330  1.3644
   84SAPS  C318 8009   2.646   4.279   9.275  0.1887  0.2350  0.8499
   84SAPS  H18X 8010   2.560   4.345   9.249 -0.5568 -1.3547 -0.8425
   84SAPS  H18Y 8011   2.640   4.192   9.205  3.2375  2.4602 -2.3385
   84SAPS  H18Z 8012   2.728   4.345   9.240 -3.7314  4.3341 -1.0203
   85SAPS     N 8013   6.682   6.292  11.055 -0.5212  0.1978 -0.0216
   85SAPS   HN1 8014   6.643   6.286  10.958  0.2232  0.1156 -0.3130
   85SAPS   HN2 8015   6.740   6.377  11.048 -1.0104  0.5808  0.5278
   85SAPS   HN3 8016   6.744   6.209  11.059 -0.9825 -0.1632 -0.2883
   85SAPS   C12 8017   6.590   6.298  11.171  0.1670 -0.2100  0.1841
   85SAPS  H12A 8018   6.558   6.197  11.191 -1.5393  0.3840  0.5273
   85SAPS   C13 8019   6.644   6.352  11.303 -0.7484  0.2004  0.3573
   85SAPS  O13A 8020   6.768   6.379  11.313  0.0644  0.1386 -0.2100
   85SAPS  O13B 8021   6.571   6.371  11.401  0.0478 -0.5484  0.2643
   85SAPS   C11 8022   6.466   6.378  11.122 -0.3112 -0.8957  0.5647
   85SAPS  H11A 8023   6.482   6.488  11.128  0.7062 -1.0231  0.2001
   85SAPS  H11B 8024   6.386   6.356  11.196  1.0387 -1.4488  1.8868
   85SAPS     P 8025   6.335   6.422  10.893  0.2781  0.1096  0.1023
   85SAPS   O13 8026   6.245   6.499  10.986  0.1621  0.2435  0.2568
   85SAPS   O14 8027   6.414   6.503  10.805  0.3467 -0.1996  0.3361
   85SAPS   O12 8028   6.425   6.333  10.990  0.5455 -0.6075 -0.5315
   85SAPS   O11 8029   6.248   6.323  10.804  0.2254 -0.0717 -0.8709
   85SAPS    C1 8030   6.313   6.215  10.730  0.6915  0.3800  0.7545
   85SAPS    HA 8031   6.398   6.169  10.784  1.7326  1.0215 -0.3126
   85SAPS    HB 8032   6.226   6.148  10.710  0.3665  1.1921 -0.6394
   85SAPS    C2 8033   6.365   6.260  10.591 -0.8550  0.4833  0.3095
   85SAPS    HS 8034   6.441   6.338  10.611  0.4698 -0.8319  0.5212
   85SAPS   O21 8035   6.258   6.302  10.512 -0.2685 -0.0077 -0.0014
   85SAPS   C21 8036   6.273   6.408  10.449 -0.1881 -0.1853 -0.9054
   85SAPS   O22 8037   6.377   6.474  10.441 -0.1919  0.2665  0.1738
   85SAPS   C22 8038   6.139   6.453  10.383  0.4642 -0.1656  0.2636
   85SAPS   H2R 8039   6.106   6.372  10.314 -0.4658 -0.1681  0.7079
   85SAPS   H2S 8040   6.065   6.464  10.465  1.8655 -1.4471  1.7342
   85SAPS    C3 8041   6.448   6.150  10.507  0.2620  0.0122 -0.3067
   85SAPS    HX 8042   6.381   6.062  10.504 -1.0654  0.8985  1.8626
   85SAPS    HY 8043   6.534   6.106  10.563 -0.0444 -1.5542 -1.0477
   85SAPS   O31 8044   6.482   6.178  10.377  0.1647 -0.4055 -0.1471
   85SAPS   C31 8045   6.578   6.263  10.369  0.0225  0.2616  0.0599
   85SAPS   O32 8046   6.638   6.313  10.462 -0.5964 -0.0239  0.4822
   85SAPS   C32 8047   6.592   6.319  10.221  0.2630 -0.0261  0.0984
   85SAPS   H2X 8048   6.673   6.394  10.219  1.0746 -0.9315 -2.4654
   85SAPS   H2Y 8049   6.499   6.379  10.220  0.3712  0.1465  0.3923
   85SAPS   C23 8050   6.147   6.588  10.303 -0.2110 -0.0254  0.1194
   85SAPS   H3R 8051   6.189   6.663  10.374 -0.0450  1.5422 -1.5950
   85SAPS   H3S 8052   6.045   6.612  10.268 -1.0547 -2.5179  0.7417
   85SAPS   C24 8053   6.239   6.572  10.178  0.7639  0.1466 -0.4073
   85SAPS   H4R 8054   6.340   6.542  10.213  0.1803 -0.7628  0.5296
   85SAPS   H4S 8055   6.251   6.676  10.141 -2.0662  0.5236 -0.3767
   85SAPS   C25 8056   6.183   6.484  10.071 -0.4120 -0.4093  0.5575
   85SAPS   H5R 8057   6.207   6.377  10.082  1.0541 -0.1207  0.1733
   85SAPS   C26 8058   6.091   6.527   9.979 -0.1319 -0.1934 -0.8082
   85SAPS   H6R 8059   6.059   6.454   9.903 -3.7476  1.3651 -0.8774
   85SAPS   C27 8060   6.028   6.665   9.958 -0.2691  0.2564  0.3870
   85SAPS   H7R 8061   6.031   6.688   9.849 -0.9884  0.2228  0.3562
   85SAPS   H7S 8062   6.092   6.736  10.015  0.0790 -0.0409  0.3712
   85SAPS   C28 8063   5.888   6.658  10.013 -0.7197 -0.6221  0.3318
   85SAPS   H8R 8064   5.882   6.697  10.116 -1.9988  0.5239 -0.1568
   85SAPS   C29 8065   5.779   6.629   9.942  1.1065  0.1340  0.2213
   85SAPS   H9R 8066   5.682   6.628   9.993  1.5517  0.6008  1.0909
   85SAPS  C210 8067   5.765   6.588   9.796  0.0890  0.1161  0.6498
   85SAPS  H10R 8068   5.722   6.486   9.788 -2.7161  1.4415 -2.0892
   85SAPS  H10S 8069   5.868   6.589   9.756  0.5340 -0.2006  1.7689
   85SAPS  C211 8070   5.679   6.677   9.713  0.1621  0.1809  0.4381
   85SAPS  H11R 8071   5.604   6.734   9.768 -0.4984 -0.8987  0.6786
   85SAPS  C212 8072   5.683   6.687   9.579  0.1336  0.4740  0.3713
   85SAPS  H12R 8073   5.611   6.762   9.542 -0.9759 -1.3314 -1.2235
   85SAPS  C213 8074   5.774   6.613   9.482  0.5867 -0.7956  0.7624
   85SAPS  H13R 8075   5.736   6.625   9.378  0.2210  2.9062  1.2548
   85SAPS  H13S 8076   5.769   6.506   9.509 -0.4501 -1.2701 -1.1959
   85SAPS  C214 8077   5.912   6.656   9.483 -0.3760  0.3000 -0.4576
   85SAPS  H14R 8078   5.974   6.617   9.566 -0.7796 -0.2551 -0.4157
   85SAPS  C215 8079   5.973   6.733   9.394  0.8578 -0.5078 -0.6956
   85SAPS  H15R 8080   6.081   6.748   9.409  0.8552 -1.3331  0.2049
   85SAPS  C216 8081   5.927   6.799   9.275 -0.0044  0.2287 -0.5277
   85SAPS  H16R 8082   5.980   6.895   9.254 -1.0655  0.7157 -1.0220
   85SAPS  H16S 8083   5.823   6.833   9.294 -0.3140 -0.4547 -1.0021
   85SAPS  C217 8084   5.941   6.717   9.143 -0.8614 -0.7237 -0.5791
   85SAPS  H17R 8085   5.867   6.635   9.131 -0.2096 -1.4141  0.0921
   85SAPS  H17S 8086   6.044   6.675   9.142 -0.6840 -0.4314  2.4995
   85SAPS  C218 8087   5.921   6.817   9.024 -1.1883  0.0033 -0.3965
   85SAPS  H18R 8088   5.986   6.906   9.015 -1.7456  0.2782 -1.8262
   85SAPS  H18S 8089   5.818   6.858   9.034 -2.3181 -2.2045 -2.3941
   85SAPS  C219 8090   5.932   6.743   8.891 -0.3216  0.2206  0.3810
   85SAPS  H19R 8091   5.900   6.799   8.801 -0.4859  0.5241  0.6274
   85SAPS  H19S 8092   5.866   6.653   8.899  0.6993 -0.4937  0.8968
   85SAPS  C220 8093   6.074   6.688   8.843 -0.0900 -0.1116 -0.1108
   85SAPS  H20R 8094   6.109   6.602   8.904  2.7280  0.3964 -0.9377
   85SAPS  H20S 8095   6.146   6.771   8.857 -0.4176  0.8705 -3.8185
   85SAPS  H20T 8096   6.074   6.653   8.738  1.5878  1.7077 -0.7352
   85SAPS   C33 8097   6.617   6.227  10.109 -0.3367  0.4830  0.1199
   85SAPS   H3X 8098   6.560   6.133  10.123  0.8920 -0.4615 -1.0359
   85SAPS   H3Y 8099   6.725   6.204  10.122 -0.6915 -1.0892  0.3741
   85SAPS   C34 8100   6.586   6.293   9.977 -0.1586 -0.3115  0.0175
   85SAPS   H4X 8101   6.640   6.389   9.963 -0.0606 -0.4051 -0.2512
   85SAPS   H4Y 8102   6.479   6.320   9.962 -0.4375 -0.6411  1.3513
   85SAPS   C35 8103   6.624   6.202   9.857 -0.1149  0.1153 -0.6457
   85SAPS   H5X 8104   6.563   6.109   9.854  1.2768 -0.7921 -3.1521
   85SAPS   H5Y 8105   6.731   6.170   9.864  0.5808  2.5392  0.1360
   85SAPS   C36 8106   6.600   6.263   9.722 -0.4151 -0.2366 -0.5657
   85SAPS   H6X 8107   6.671   6.347   9.704  2.1588 -2.3649 -0.5717
   85SAPS   H6Y 8108   6.498   6.305   9.715 -0.3165 -0.1091 -1.3109
   85SAPS   C37 8109   6.619   6.163   9.608 -0.6002  0.2120  0.6680
   85SAPS   H7X 8110   6.567   6.067   9.631 -1.2921  0.2685 -0.6433
   85SAPS   H7Y 8111   6.727   6.140   9.600 -0.3798  1.5645 -0.4823
   85SAPS   C38 8112   6.558   6.210   9.471 -0.3153  0.5354  0.0704
   85SAPS   H8X 8113   6.617   6.295   9.430  1.1725 -0.7582 -0.5514
   85SAPS   H8Y 8114   6.453   6.241   9.483  0.1071  2.3178 -0.7459
   85SAPS   C39 8115   6.545   6.098   9.361  0.0105 -0.6049 -0.0732
   85SAPS   H9X 8116   6.472   6.026   9.404  0.7687 -1.2037  0.2315
   85SAPS   H9Y 8117   6.644   6.053   9.340  0.2245  0.3942 -1.2888
   85SAPS  C310 8118   6.493   6.144   9.223  0.2031 -0.4634  0.0614
   85SAPS  H10X 8119   6.552   6.231   9.189 -3.2479  1.7132 -0.6340
   85SAPS  H10Y 8120   6.393   6.191   9.236  2.7806  4.9644  1.9419
   85SAPS  C311 8121   6.501   6.034   9.116 -0.3548 -0.1528 -0.4063
   85SAPS  H11X 8122   6.435   5.947   9.135  0.4302 -0.6977 -0.1028
   85SAPS  H11Y 8123   6.603   5.993   9.133 -1.2478 -3.4868 -2.5616
   85SAPS  C312 8124   6.490   6.089   8.976 -0.3997 -0.3206  0.1746
   85SAPS  H12X 8125   6.564   6.173   8.977  0.6955 -1.2658 -0.1925
   85SAPS  H12Y 8126   6.385   6.125   8.986  0.1466  0.7201  2.3392
   85SAPS  C313 8127   6.512   5.992   8.860  0.6619  0.0314  0.0765
   85SAPS  H13X 8128   6.614   5.954   8.880  0.6104 -0.1959 -0.0956
   85SAPS  H13Y 8129   6.515   6.046   8.763 -1.2840 -0.5425 -0.3264
   85SAPS  C314 8130   6.420   5.873   8.853  0.1387  0.9216  0.3690
   85SAPS  H14X 8131   6.317   5.901   8.884 -0.5404  0.0906 -1.0694
   85SAPS  H14Y 8132   6.455   5.805   8.933 -1.4036 -0.9327 -0.4860
   85SAPS  C315 8133   6.433   5.790   8.718  1.3382 -0.8459  0.5897
   85SAPS  H15X 8134   6.540   5.780   8.689  1.4816  1.5941  0.1366
   85SAPS  H15Y 8135   6.391   5.865   8.647  0.5484 -1.9345 -0.1008
   85SAPS  C316 8136   6.359   5.654   8.712 -0.4669 -0.5094  0.3684
   85SAPS  H16X 8137   6.251   5.679   8.726 -0.4355 -0.5235  0.6270
   85SAPS  H16Y 8138   6.405   5.595   8.794 -0.2905  0.2924  0.8538
   85SAPS  C317 8139   6.386   5.579   8.579  0.1345  0.3685  0.3770
   85SAPS  H17X 8140   6.490   5.541   8.587  0.4073  1.4472  2.0454
   85SAPS  H17Y 8141   6.382   5.648   8.492 -1.9512 -0.6422 -0.3663
   85SAPS  C318 8142   6.284   5.473   8.549 -0.5127 -0.7657 -0.5642
   85SAPS  H18X 8143   6.186   5.522   8.537 -0.4288 -0.0566  1.5678
   85SAPS  H18Y 8144   6.286   5.393   8.627 -0.1631  0.7450  0.9921
   85SAPS  H18Z 8145   6.297   5.408   8.460  0.5212 -1.1048 -0.1802
   86SAPS     N 8146   1.196   5.824  11.128  0.7661 -0.0705 -0.6113
   86SAPS   HN1 8147   1.108   5.785  11.089 -1.5772  2.6495  1.6706
   86SAPS   HN2 8148   1.208   5.796  11.227 -0.2425 -0.4522 -0.5940
   86SAPS   HN3 8149   1.183   5.927  11.135 -0.8658 -0.3862  1.6336
   86SAPS   C12 8150   1.307   5.786  11.041 -0.2695  0.2395  0.2570
   86SAPS  H12A 8151   1.395   5.830  11.087 -1.5687 -0.0314  3.0945
   86SAPS   C13 8152   1.340   5.629  11.048  0.0666 -1.0411  0.5147
   86SAPS  O13A 8153   1.270   5.548  11.111  0.2006 -0.4875  0.1852
   86SAPS  O13B 8154   1.451   5.600  10.996  0.3367  0.0124 -0.1248
   86SAPS   C11 8155   1.276   5.825  10.896 -0.0445  0.1430  0.5529
   86SAPS  H11A 8156   1.174   5.790  10.868 -0.0969 -1.0008  2.0799
   86SAPS  H11B 8157   1.347   5.772  10.829  1.2478  1.1726  1.0973
   86SAPS     P 8158   1.411   6.035  10.829  0.2439 -0.1079 -0.2818
   86SAPS   O13 8159   1.389   6.174  10.786  0.3554  0.2052 -0.2788
   86SAPS   O14 8160   1.511   6.004  10.926 -0.4852 -0.2637  0.6071
   86SAPS   O12 8161   1.273   5.964  10.870  0.2627  0.4973  0.7182
   86SAPS   O11 8162   1.448   5.947  10.699  0.1922 -0.7679 -0.0063
   86SAPS    C1 8163   1.352   5.919  10.603 -0.2677 -0.7632 -0.4486
   86SAPS    HA 8164   1.297   5.827  10.633 -4.8586  1.1207 -2.5107
   86SAPS    HB 8165   1.279   6.002  10.590 -0.2078 -0.3660  1.5115
   86SAPS    C2 8166   1.420   5.876  10.467 -0.2738 -0.5220 -0.0915
   86SAPS    HS 8167   1.506   5.808  10.485  0.3833 -1.3621 -5.3450
   86SAPS   O21 8168   1.453   5.998  10.396 -0.3554 -0.2059 -0.1701
   86SAPS   C21 8169   1.583   6.022  10.375 -0.1078 -0.5601  0.4476
   86SAPS   O22 8170   1.674   5.966  10.434 -0.2775 -0.0072 -0.3578
   86SAPS   C22 8171   1.600   6.128  10.270  0.0447  0.3730 -0.1185
   86SAPS   H2R 8172   1.536   6.093  10.186  2.5104 -1.4511 -1.2873
   86SAPS   H2S 8173   1.560   6.225  10.308 -2.3922 -1.1143  1.2189
   86SAPS    C3 8174   1.323   5.793  10.372  0.6166  0.7006 -0.4180
   86SAPS    HX 8175   1.240   5.860  10.339 -1.1307 -0.6644  1.0883
   86SAPS    HY 8176   1.266   5.720  10.433  0.1284  0.7739 -0.7788
   86SAPS   O31 8177   1.397   5.728  10.268 -0.0409  0.0075  0.2691
   86SAPS   C31 8178   1.403   5.790  10.146 -0.5436 -0.7048  0.0022
   86SAPS   O32 8179   1.338   5.888  10.111  0.4970 -0.3707 -0.1157
   86SAPS   C32 8180   1.512   5.726  10.065 -0.9949 -0.0340  0.6198
   86SAPS   H2X 8181   1.452   5.673   9.989 -2.6322 -2.8101  3.7469
   86SAPS   H2Y 8182   1.564   5.654  10.132 -1.5178 -0.4698  0.5591
   86SAPS   C23 8183   1.739   6.149  10.227 -0.2938  0.2439  0.0318
   86SAPS   H3R 8184   1.795   6.053  10.229 -1.8825 -0.6674  1.6700
   86SAPS   H3S 8185   1.788   6.218  10.299  1.7835  1.5211 -2.4796
   86SAPS   C24 8186   1.741   6.226  10.091  0.3019 -0.0988  0.2501
   86SAPS   H4R 8187   1.736   6.150  10.009  0.6711 -0.9547  1.0070
   86SAPS   H4S 8188   1.848   6.249  10.071 -0.2709  1.3265 -1.2644
   86SAPS   C25 8189   1.649   6.347  10.067  0.8333 -0.5100  0.4738
   86SAPS   H5R 8190   1.660   6.430  10.139 -1.0108 -0.6083  0.8928
   86SAPS   C26 8191   1.560   6.364   9.969 -0.4518  0.0000  0.0767
   86SAPS   H6R 8192   1.507   6.460   9.958 -0.0469  0.2312  0.1204
   86SAPS   C27 8193   1.522   6.268   9.867 -0.2454  1.1753 -0.5756
   86SAPS   H7R 8194   1.609   6.205   9.838 -1.3377 -0.8427  0.4033
   86SAPS   H7S 8195   1.487   6.324   9.778 -0.4658 -0.7269 -1.7206
   86SAPS   C28 8196   1.412   6.178   9.922 -0.4790 -0.1302 -0.0007
   86SAPS   H8R 8197   1.375   6.183  10.025 -1.8018 -0.6908 -0.4268
   86SAPS   C29 8198   1.348   6.086   9.843  0.4467  0.5219 -1.0841
   86SAPS   H9R 8199   1.281   6.018   9.896  0.6353  1.0427 -0.1607
   86SAPS  C210 8200   1.378   6.071   9.696 -0.1213  0.4102 -0.8229
   86SAPS  H10R 8201   1.445   5.984   9.679 -0.5323  0.1499 -1.1393
   86SAPS  H10S 8202   1.426   6.162   9.654  0.9529 -0.1049 -0.7358
   86SAPS  C211 8203   1.251   6.040   9.614  0.1799 -0.2453  0.2131
   86SAPS  H11R 8204   1.190   6.120   9.569  1.2987 -0.5527 -1.9147
   86SAPS  C212 8205   1.222   5.914   9.577  0.7217  0.3024  0.3690
   86SAPS  H12R 8206   1.136   5.886   9.514  0.6409 -0.7388  0.9348
   86SAPS  C213 8207   1.294   5.781   9.614  0.4102 -0.4478  0.2951
   86SAPS  H13R 8208   1.237   5.686   9.616  1.5316 -1.1091  2.4125
   86SAPS  H13S 8209   1.340   5.785   9.715  1.2202  0.7076 -0.1137
   86SAPS  C214 8210   1.406   5.759   9.521 -0.2121  0.1560 -0.2523
   86SAPS  H14R 8211   1.505   5.783   9.563  0.9245 -0.0396 -2.6742
   86SAPS  C215 8212   1.394   5.731   9.391 -0.3457  0.2876 -0.0148
   86SAPS  H15R 8213   1.484   5.711   9.331 -1.3637  1.4869 -2.0156
   86SAPS  C216 8214   1.258   5.709   9.321 -0.1492  0.4413 -0.1260
   86SAPS  H16R 8215   1.234   5.813   9.291 -1.1595  0.3688  0.4045
   86SAPS  H16S 8216   1.178   5.690   9.396 -0.6673 -2.1461 -1.2602
   86SAPS  C217 8217   1.243   5.596   9.215  0.1244 -0.6612 -0.3406
   86SAPS  H17R 8218   1.138   5.600   9.179  0.1111  2.7559 -0.0489
   86SAPS  H17S 8219   1.244   5.497   9.267  0.9535 -1.6876 -2.2386
   86SAPS  C218 8220   1.339   5.614   9.096  0.3578  0.4002  0.0017
   86SAPS  H18R 8221   1.440   5.615   9.141  1.2865  1.2188 -2.0436
   86SAPS  H18S 8222   1.300   5.709   9.054 -0.7723  0.0404  0.2174
   86SAPS  C219 8223   1.327   5.509   8.977 -0.2198 -0.3143 -0.7359
   86SAPS  H19R 8224   1.426   5.499   8.928 -0.8122  0.0255 -2.0226
   86SAPS  H19S 8225   1.260   5.550   8.898 -1.4610  0.3720  0.6370
   86SAPS  C220 8226   1.289   5.362   9.022 -0.9874 -0.8245  0.4683
   86SAPS  H20R 8227   1.182   5.343   9.044 -1.7851  2.7735 -0.1500
   86SAPS  H20S 8228   1.351   5.335   9.110 -2.8051 -2.9173  1.1667
   86SAPS  H20T 8229   1.322   5.287   8.947  0.4413 -0.1986  0.4624
   86SAPS   C33 8230   1.601   5.819  10.001  0.2932  0.3994  0.0872
   86SAPS   H3X 8231   1.680   5.850  10.072 -0.0506  0.9582  0.2267
   86SAPS   H3Y 8232   1.550   5.909   9.961 -0.5703 -0.7685 -1.4689
   86SAPS   C34 8233   1.684   5.766   9.880 -0.4488 -0.2001  0.6477
   86SAPS   H4X 8234   1.608   5.710   9.823 -0.4457 -1.3958  1.8009
   86SAPS   H4Y 8235   1.763   5.696   9.912 -2.3209 -1.0925  3.5007
   86SAPS   C35 8236   1.750   5.886   9.808 -0.0848  0.1982  0.4768
   86SAPS   H5X 8237   1.830   5.921   9.877  0.4737  0.6679 -0.4038
   86SAPS   H5Y 8238   1.683   5.970   9.778  1.9335  0.1834 -4.3838
   86SAPS   C36 8239   1.816   5.846   9.677 -0.1423  0.4462  0.2808
   86SAPS   H6X 8240   1.760   5.770   9.617 -0.3174  0.8974 -0.1272
   86SAPS   H6Y 8241   1.911   5.793   9.698 -0.5062 -1.1791 -1.9227
   86SAPS   C37 8242   1.850   5.958   9.578 -0.2440 -0.8507  0.3681
   86SAPS   H7X 8243   1.937   5.922   9.520 -2.2687 -0.4335 -3.0579
   86SAPS   H7Y 8244   1.879   6.052   9.630  1.9550 -0.9947 -0.5775
   86SAPS   C38 8245   1.755   5.973   9.458 -0.0275  0.3137  0.5061
   86SAPS   H8X 8246   1.778   6.072   9.412 -1.2325  0.6569  0.6358
   86SAPS   H8Y 8247   1.648   5.966   9.486 -0.2624  0.7837 -0.2727
   86SAPS   C39 8248   1.771   5.853   9.355 -0.3339  0.1021  0.5644
   86SAPS   H9X 8249   1.736   5.762   9.407 -2.9588  1.8152  1.9259
   86SAPS   H9Y 8250   1.878   5.849   9.328 -0.3205 -3.8107  0.9706
   86SAPS  C310 8251   1.715   5.858   9.210  0.3395 -0.1768 -0.0502
   86SAPS  H10X 8252   1.612   5.898   9.199  0.8282  0.5759 -2.0152
   86SAPS  H10Y 8253   1.707   5.752   9.178  1.8478  0.5349 -2.9125
   86SAPS  C311 8254   1.797   5.947   9.118 -0.2432 -0.6167  0.4269
   86SAPS  H11X 8255   1.906   5.930   9.124 -0.2509 -1.7880 -2.4144
   86SAPS  H11Y 8256   1.800   6.052   9.155  1.0434  0.2725 -2.1278
   86SAPS  C312 8257   1.767   5.932   8.971 -0.4279  0.0677  0.3373
   86SAPS  H12X 8258   1.657   5.930   8.954 -0.1943 -0.8125 -1.1490
   86SAPS  H12Y 8259   1.799   5.829   8.946 -1.5189 -0.2116  0.0381
   86SAPS  C313 8260   1.842   6.026   8.879 -0.8235  0.2004  0.4878
   86SAPS  H13X 8261   1.944   5.982   8.886 -0.6905  0.5923  1.0439
   86SAPS  H13Y 8262   1.840   6.129   8.921 -0.1647 -0.7121  2.7867
   86SAPS  C314 8263   1.802   6.029   8.732  0.1835  0.4300  0.3038
   86SAPS  H14X 8264   1.802   5.925   8.693  3.1303  0.2977  0.5777
   86SAPS  H14Y 8265   1.875   6.084   8.669 -0.8089  1.1433 -0.2388
   86SAPS  C315 8266   1.658   6.078   8.711 -0.5265  0.4440  0.4695
   86SAPS  H15X 8267   1.642   6.170   8.772 -0.7529  0.5459  0.2562
   86SAPS  H15Y 8268   1.597   5.998   8.758  0.2116 -0.5524 -0.2604
   86SAPS  C316 8269   1.610   6.109   8.567  0.2943  0.1066 -0.5064
   86SAPS  H16X 8270   1.667   6.193   8.521  2.5688 -0.9308  0.3490
   86SAPS  H16Y 8271   1.501   6.130   8.572 -0.1036 -1.9467 -0.1884
   86SAPS  C317 8272   1.645   5.993   8.469  0.1003 -0.3654 -0.0250
   86SAPS  H17X 8273   1.611   5.894   8.506 -0.8454 -0.4909 -1.1780
   86SAPS  H17Y 8274   1.752   5.970   8.456  0.8773  1.7263  2.2161
   86SAPS  C318 8275   1.591   6.022   8.335 -0.9894  0.3729 -0.9595
   86SAPS  H18X 8276   1.488   6.064   8.334 -1.5695 -1.0289 -0.1633
   86SAPS  H18Y 8277   1.605   5.933   8.271 -2.5375 -0.0280 -0.7398
   86SAPS  H18Z 8278   1.645   6.106   8.286 -0.0767  0.0070 -0.6021
   87SAPS     N 8279   1.703   6.352  10.943 -0.4903  0.0128 -0.6914
   87SAPS   HN1 8280   1.696   6.290  11.026 -2.7530 -0.3848 -1.1459
   87SAPS   HN2 8281   1.733   6.305  10.856  1.0495  0.6222 -0.5027
   87SAPS   HN3 8282   1.768   6.426  10.977  0.1256 -0.8393  0.0070
   87SAPS   C12 8283   1.570   6.399  10.937 -0.5634 -0.6593  0.1460
   87SAPS  H12A 8284   1.511   6.325  10.885  1.0955 -1.0061 -1.2728
   87SAPS   C13 8285   1.512   6.398  11.073  0.2887 -0.4101  0.1517
   87SAPS  O13A 8286   1.568   6.349  11.173  0.8304 -0.4948 -0.0479
   87SAPS  O13B 8287   1.386   6.422  11.080  0.5319  0.6753 -0.1326
   87SAPS   C11 8288   1.554   6.539  10.876 -0.1192 -0.5326  0.0321
   87SAPS  H11A 8289   1.447   6.568  10.882 -0.1577 -0.9528  1.6497
   87SAPS  H11B 8290   1.576   6.536  10.767 -0.8395 -2.0886 -0.0837
   87SAPS     P 8291   1.780   6.691  10.903  0.1877 -0.1924  0.1373
   87SAPS   O13 8292   1.809   6.811  10.990  0.7592 -0.3841 -0.2599
   87SAPS   O14 8293   1.867   6.575  10.919 -0.2579 -0.3167 -0.0445
   87SAPS   O12 8294   1.636   6.636  10.943 -0.3155  0.4973 -0.0639
   87SAPS   O11 8295   1.769   6.731  10.753 -0.8597  0.4866  0.6271
   87SAPS    C1 8296   1.686   6.844  10.710  0.1716  0.1096 -0.2730
   87SAPS    HA 8297   1.603   6.804  10.648 -0.0571 -0.3760  0.3283
   87SAPS    HB 8298   1.651   6.905  10.796  0.4394 -1.6163  1.0950
   87SAPS    C2 8299   1.769   6.952  10.631 -0.3814  0.3319  0.2095
   87SAPS    HS 8300   1.724   7.054  10.632  1.5271  1.1901  0.8567
   87SAPS   O21 8301   1.774   6.898  10.496  0.0634 -0.6600  0.2044
   87SAPS   C21 8302   1.668   6.908  10.423 -0.1869 -0.2099 -0.2665
   87SAPS   O22 8303   1.575   6.983  10.446 -0.1492  0.2094  0.5446
   87SAPS   C22 8304   1.663   6.809  10.314  0.3703  0.4781 -0.3081
   87SAPS   H2R 8305   1.734   6.726  10.334  0.9392  1.2758  1.0599
   87SAPS   H2S 8306   1.564   6.758  10.310  0.2987  0.5973 -0.1017
   87SAPS    C3 8307   1.909   6.972  10.692 -0.0750 -0.5371 -0.8253
   87SAPS    HX 8308   1.963   6.876  10.707 -0.5366 -0.7444 -0.4525
   87SAPS    HY 8309   1.910   7.008  10.797  3.6145 -3.3943  0.2353
   87SAPS   O31 8310   1.985   7.064  10.615 -0.9598  0.0678 -0.2262
   87SAPS   C31 8311   1.962   7.192  10.638  0.2248  0.6301  0.7213
   87SAPS   O32 8312   1.880   7.239  10.716 -0.6044  0.5423  0.3205
   87SAPS   C32 8313   2.043   7.268  10.528 -0.0762  0.5513  0.6860
   87SAPS   H2X 8314   2.127   7.210  10.486 -0.4401  0.1165  0.5549
   87SAPS   H2Y 8315   2.078   7.354  10.590  0.9684  1.2959 -0.9058
   87SAPS   C23 8316   1.711   6.866  10.185 -0.2755  0.2993 -0.5225
   87SAPS   H3R 8317   1.793   6.804  10.143  1.2229  1.7477  0.2116
   87SAPS   H3S 8318   1.761   6.963  10.207  1.5731 -0.4442 -1.2744
   87SAPS   C24 8319   1.604   6.889  10.074 -0.7397 -0.3993 -0.0966
   87SAPS   H4R 8320   1.656   6.942   9.991 -2.8582  2.7473  0.4835
   87SAPS   H4S 8321   1.531   6.963  10.114  0.9799  0.9966  0.5494
   87SAPS   C25 8322   1.542   6.764  10.019 -0.1609 -0.2459 -0.1914
   87SAPS   H5R 8323   1.516   6.684  10.090 -0.2566 -0.0287  0.0224
   87SAPS   C26 8324   1.516   6.743   9.884  0.3784 -0.1004 -0.0544
   87SAPS   H6R 8325   1.452   6.660   9.851 -0.9202  0.8423  0.0286
   87SAPS   C27 8326   1.539   6.848   9.777 -0.3188 -0.5370  0.9534
   87SAPS   H7R 8327   1.534   6.950   9.821  2.5319 -0.2004  0.5647
   87SAPS   H7S 8328   1.457   6.844   9.702 -1.3614  0.7772  1.9799
   87SAPS   C28 8329   1.676   6.838   9.701 -0.2780 -0.5227  0.6280
   87SAPS   H8R 8330   1.752   6.791   9.766 -0.4581 -0.6655  0.7342
   87SAPS   C29 8331   1.701   6.888   9.580 -0.1024 -0.0492 -0.4292
   87SAPS   H9R 8332   1.805   6.891   9.543  0.7777 -0.7920  1.8973
   87SAPS  C210 8333   1.594   6.940   9.485  0.2501  0.1686  1.0181
   87SAPS  H10R 8334   1.650   7.010   9.420 -0.9645 -0.1989 -0.4582
   87SAPS  H10S 8335   1.518   7.000   9.540 -1.3609 -0.6064 -0.3260
   87SAPS  C211 8336   1.525   6.830   9.399 -0.1529 -0.5129 -0.0117
   87SAPS  H11R 8337   1.484   6.743   9.453 -0.3386 -0.0823  0.5446
   87SAPS  C212 8338   1.486   6.845   9.272  0.2829 -0.7489  0.3865
   87SAPS  H12R 8339   1.446   6.751   9.230 -1.8180  0.4866 -0.4587
   87SAPS  C213 8340   1.515   6.958   9.172  0.3636  0.0454 -0.5406
   87SAPS  H13R 8341   1.541   7.045   9.236  2.7823  0.4601 -1.9903
   87SAPS  H13S 8342   1.423   6.984   9.116 -0.5420  2.0660  1.7930
   87SAPS  C214 8343   1.625   6.923   9.089  0.0290  0.3997  0.7546
   87SAPS  H14R 8344   1.715   6.899   9.147  0.5449 -1.5694 -0.7814
   87SAPS  C215 8345   1.640   6.899   8.961  0.1409 -0.1541  0.4904
   87SAPS  H15R 8346   1.741   6.882   8.922 -0.3375  1.7358 -1.7318
   87SAPS  C216 8347   1.536   6.912   8.860 -0.1185  0.2315  0.0868
   87SAPS  H16R 8348   1.443   6.942   8.914 -1.3059 -0.5506 -1.4845
   87SAPS  H16S 8349   1.518   6.814   8.810  1.1659 -0.0374  0.1352
   87SAPS  C217 8350   1.562   7.042   8.771  0.1757  0.8996  0.0358
   87SAPS  H17R 8351   1.644   7.097   8.823 -0.0555  0.7512  0.5676
   87SAPS  H17S 8352   1.470   7.104   8.773 -0.2427  0.2811  0.1157
   87SAPS  C218 8353   1.597   7.021   8.629 -0.3410 -0.0169  0.7232
   87SAPS  H18R 8354   1.595   7.111   8.564 -3.5917 -0.8320 -0.3977
   87SAPS  H18S 8355   1.522   6.955   8.580 -0.1869 -0.0212  0.4884
   87SAPS  C219 8356   1.745   6.965   8.608  0.5810 -0.3076  0.1675
   87SAPS  H19R 8357   1.764   6.928   8.505 -2.2770 -3.5663  0.7362
   87SAPS  H19S 8358   1.766   6.879   8.675 -0.1041 -1.3967 -0.9936
   87SAPS  C220 8359   1.850   7.079   8.637  0.2881  0.8391  1.0592
   87SAPS  H20R 8360   1.841   7.103   8.745  0.6809  0.2164  1.2352
   87SAPS  H20S 8361   1.829   7.172   8.579 -0.5360  0.0946  0.1362
   87SAPS  H20T 8362   1.953   7.045   8.613  0.8090  1.0637  2.9433
   87SAPS   C33 8363   1.954   7.308  10.409 -0.0744 -0.5695  0.3356
   87SAPS   H3X 8364   2.001   7.399  10.366 -1.1331  0.7131  1.8488
   87SAPS   H3Y 8365   1.862   7.348  10.456  0.4769 -0.6389  1.4743
   87SAPS   C34 8366   1.925   7.210  10.303  0.0214  0.4905  0.4815
   87SAPS   H4X 8367   1.819   7.176  10.297  0.3864 -0.2306 -2.8921
   87SAPS   H4Y 8368   1.996   7.126  10.320 -0.5714  0.2449  1.7666
   87SAPS   C35 8369   1.955   7.258  10.165 -0.5266  0.1751  0.1377
   87SAPS   H5X 8370   2.062   7.284  10.149 -0.7438  0.5580 -0.7280
   87SAPS   H5Y 8371   1.910   7.358  10.150  0.3011  0.6156  0.5569
   87SAPS   C36 8372   1.912   7.165  10.048 -0.2148 -0.0948  0.1206
   87SAPS   H6X 8373   1.802   7.152  10.045 -0.0549 -1.3358 -0.5724
   87SAPS   H6Y 8374   1.959   7.066  10.065 -0.2839  0.2260  2.3578
   87SAPS   C37 8375   1.960   7.221   9.916  0.1439 -0.1937 -0.1318
   87SAPS   H7X 8376   2.071   7.222   9.916  0.1579  1.0712  1.6002
   87SAPS   H7Y 8377   1.934   7.329   9.908  0.0941  0.0140  2.4592
   87SAPS   C38 8378   1.927   7.150   9.780 -0.4212 -0.3953 -0.3371
   87SAPS   H8X 8379   1.816   7.149   9.784 -0.3456 -0.9540  2.7857
   87SAPS   H8Y 8380   1.967   7.047   9.790  0.6407 -0.1576 -1.9276
   87SAPS   C39 8381   1.992   7.226   9.662  0.2745  0.3952 -0.3193
   87SAPS   H9X 8382   2.103   7.235   9.655  0.2407  1.1511  0.0077
   87SAPS   H9Y 8383   1.955   7.331   9.658 -0.6344  0.1222  0.5397
   87SAPS  C310 8384   1.963   7.167   9.524  0.0321  0.7021  0.1230
   87SAPS  H10X 8385   1.853   7.156   9.515 -0.0539  0.7393  1.0942
   87SAPS  H10Y 8386   2.016   7.069   9.519  1.2814  1.2557  2.1502
   87SAPS  C311 8387   2.013   7.245   9.409  0.0725  0.5402  0.0734
   87SAPS  H11X 8388   2.124   7.256   9.410  0.2610 -1.2964  0.5449
   87SAPS  H11Y 8389   1.978   7.350   9.419  0.7150  0.7640  0.0538
   87SAPS  C312 8390   1.978   7.180   9.271  0.0349 -0.5395  0.1189
   87SAPS  H12X 8391   1.872   7.151   9.253 -1.5566  4.4925  0.4485
   87SAPS  H12Y 8392   2.033   7.089   9.240 -0.8626 -0.3821 -2.0577
   87SAPS  C313 8393   2.015   7.283   9.158  0.3588 -0.7488 -0.3234
   87SAPS  H13X 8394   2.120   7.313   9.180  0.0534  0.0224  0.0982
   87SAPS  H13Y 8395   1.939   7.363   9.150 -0.2957 -1.6738 -4.2291
   87SAPS  C314 8396   2.015   7.224   9.015 -0.0427 -0.0374  0.1711
   87SAPS  H14X 8397   1.912   7.203   8.978  0.0102 -2.2008  1.1780
   87SAPS  H14Y 8398   2.065   7.126   9.025 -1.8579 -0.7757  2.5873
   87SAPS  C315 8399   2.086   7.316   8.908  0.0454  0.8572  0.4461
   87SAPS  H15X 8400   2.113   7.256   8.818 -0.9393 -1.9172  1.9613
   87SAPS  H15Y 8401   2.186   7.349   8.943  0.3587  0.3923  0.0108
   87SAPS  C316 8402   2.012   7.449   8.875  0.0737 -0.0017 -0.2277
   87SAPS  H16X 8403   1.987   7.508   8.966  0.8203 -3.0148  2.0346
   87SAPS  H16Y 8404   1.914   7.424   8.830  0.9209 -1.0369 -1.5313
   87SAPS  C317 8405   2.099   7.531   8.785 -0.0408  0.1696  0.0673
   87SAPS  H17X 8406   2.124   7.464   8.701  0.2310  0.1765  0.1427
   87SAPS  H17Y 8407   2.190   7.569   8.836 -0.3662  0.5106  0.4070
   87SAPS  C318 8408   2.027   7.654   8.740 -0.2825  0.3308 -0.2361
   87SAPS  H18X 8409   1.941   7.618   8.680  0.3612 -1.8245  0.0938
   87SAPS  H18Y 8410   2.094   7.723   8.683 -0.1889 -0.0106 -0.5441
   87SAPS  H18Z 8411   1.987   7.703   8.831  0.0740  1.1723 -0.5153
   88SAPS     N 8412   4.653   4.947  10.965  0.1124  0.1370 -0.5744
   88SAPS   HN1 8413   4.555   4.925  10.939  0.8674 -2.3635 -1.4132
   88SAPS   HN2 8414   4.712   4.970  10.883 -0.1527 -1.9395 -1.3607
   88SAPS   HN3 8415   4.700   4.864  11.007  1.5900  0.3096 -1.8447
   88SAPS   C12 8416   4.663   5.049  11.071 -0.4693 -0.1345  0.4921
   88SAPS  H12A 8417   4.610   5.137  11.036 -1.6374 -0.6445  0.9660
   88SAPS   C13 8418   4.627   5.013  11.219  0.1589  0.0607 -0.2916
   88SAPS  O13A 8419   4.594   4.896  11.246  0.0776  0.5795 -0.0046
   88SAPS  O13B 8420   4.630   5.108  11.302 -0.3570  0.0106  0.5967
   88SAPS   C11 8421   4.815   5.093  11.061  0.6556 -0.3974 -0.2523
   88SAPS  H11A 8422   4.884   5.010  11.087 -1.3361 -1.6722  1.0500
   88SAPS  H11B 8423   4.839   5.174  11.134  0.9009 -0.4207 -0.3056
   88SAPS     P 8424   4.978   5.210  10.896 -0.1451  0.1747  0.3305
   88SAPS   O13 8425   5.010   5.301  11.007 -0.3695  0.6729  0.0316
   88SAPS   O14 8426   5.079   5.112  10.850 -0.0965  0.4182  0.6301
   88SAPS   O12 8427   4.835   5.140  10.925  0.3687  0.3886  0.3701
   88SAPS   O11 8428   4.953   5.305  10.778 -0.0555 -0.1682  0.3810
   88SAPS    C1 8429   4.825   5.293  10.707 -0.9136 -0.0429 -0.6728
   88SAPS    HA 8430   4.813   5.185  10.682 -0.2137 -0.2817  0.0138
   88SAPS    HB 8431   4.740   5.329  10.767  0.0474  1.2507 -0.0618
   88SAPS    C2 8432   4.825   5.369  10.573  0.1678 -0.2574 -0.1880
   88SAPS    HS 8433   4.823   5.476  10.605 -0.2640 -0.4652  0.4781
   88SAPS   O21 8434   4.702   5.344  10.508  0.0226 -0.1121 -0.4453
   88SAPS   C21 8435   4.638   5.439  10.444 -0.2144  0.3287 -0.3362
   88SAPS   O22 8436   4.675   5.553  10.435 -0.8032 -1.2743 -0.1212
   88SAPS   C22 8437   4.524   5.384  10.372  0.9626  0.4132  0.3272
   88SAPS   H2R 8438   4.541   5.282  10.330 -0.5477  0.0842  0.4784
   88SAPS   H2S 8439   4.444   5.376  10.449 -1.1416 -0.4556 -1.9012
   88SAPS    C3 8440   4.953   5.343  10.485  0.2278 -1.1732  0.0564
   88SAPS    HX 8441   4.943   5.250  10.426 -1.5288 -0.6365 -0.5511
   88SAPS    HY 8442   5.038   5.332  10.555 -0.1730  0.5430  0.8334
   88SAPS   O31 8443   4.966   5.450  10.387  0.5410  0.3402 -0.1907
   88SAPS   C31 8444   5.074   5.524  10.387  0.8252  0.2366  0.6084
   88SAPS   O32 8445   5.156   5.523  10.473 -0.2389 -0.2953 -0.2107
   88SAPS   C32 8446   5.077   5.614  10.267  0.1520  0.2493  0.6975
   88SAPS   H2X 8447   5.169   5.676  10.257 -1.5658  2.5357 -1.8532
   88SAPS   H2Y 8448   4.993   5.686  10.273  2.4739  3.1512 -0.4223
   88SAPS   C23 8449   4.470   5.471  10.255  0.0475 -0.1373 -0.3953
   88SAPS   H3R 8450   4.548   5.497  10.180  0.3135 -2.8407 -1.1210
   88SAPS   H3S 8451   4.432   5.567  10.294 -3.2724 -0.6617 -2.2090
   88SAPS   C24 8452   4.364   5.386  10.185 -0.0778 -0.0786 -0.4415
   88SAPS   H4R 8453   4.297   5.349  10.266  2.2670  2.7514  2.9147
   88SAPS   H4S 8454   4.410   5.297  10.137  1.5226  1.1853 -1.3072
   88SAPS   C25 8455   4.284   5.463  10.086 -0.4525  0.8705 -0.3349
   88SAPS   H5R 8456   4.200   5.519  10.131 -3.2184 -1.6953 -2.1471
   88SAPS   C26 8457   4.293   5.454   9.947  0.1640 -0.1138 -0.2177
   88SAPS   H6R 8458   4.218   5.504   9.884 -1.2660 -1.7084  0.1865
   88SAPS   C27 8459   4.389   5.362   9.879 -0.6509 -0.6985 -0.0434
   88SAPS   H7R 8460   4.337   5.267   9.856  1.4182 -2.0011  0.5408
   88SAPS   H7S 8461   4.475   5.336   9.944  2.2000  0.2247 -3.3076
   88SAPS   C28 8462   4.451   5.414   9.746  0.7204 -0.9788  0.7928
   88SAPS   H8R 8463   4.555   5.448   9.760  0.8865 -0.9211 -0.4942
   88SAPS   C29 8464   4.400   5.414   9.624  0.6209 -0.0887 -0.3019
   88SAPS   H9R 8465   4.462   5.443   9.537  3.5756 -0.5762  1.5482
   88SAPS  C210 8466   4.263   5.367   9.582  0.7557  0.2191 -0.5954
   88SAPS  H10R 8467   4.202   5.314   9.659 -0.3398  1.3833 -0.6334
   88SAPS  H10S 8468   4.272   5.301   9.493  0.6368 -1.5878  0.7002
   88SAPS  C211 8469   4.185   5.490   9.539 -0.3110  0.2217 -0.2537
   88SAPS  H11R 8470   4.155   5.547   9.628 -1.3601 -0.6790 -0.0165
   88SAPS  C212 8471   4.147   5.536   9.416  0.0070 -0.8552 -0.6445
   88SAPS  H12R 8472   4.092   5.631   9.409  0.4938 -0.6772 -2.4493
   88SAPS  C213 8473   4.178   5.468   9.285 -0.5289  0.8491  0.3759
   88SAPS  H13R 8474   4.284   5.436   9.276 -0.1028  1.8077  1.7874
   88SAPS  H13S 8475   4.164   5.542   9.204 -1.3914 -0.0856 -0.3447
   88SAPS  C214 8476   4.092   5.359   9.244  0.1491  0.7044  0.2227
   88SAPS  H14R 8477   4.005   5.348   9.311  0.1981 -0.3181  0.1365
   88SAPS  C215 8478   4.113   5.267   9.143 -0.1767  0.3454 -0.7376
   88SAPS  H15R 8479   4.034   5.191   9.138  0.8521 -0.7165 -0.9945
   88SAPS  C216 8480   4.230   5.253   9.047  0.6328  0.4035  0.1401
   88SAPS  H16R 8481   4.279   5.156   9.066  0.8781  0.2150 -1.4382
   88SAPS  H16S 8482   4.316   5.323   9.049  1.3210 -0.4105 -0.6700
   88SAPS  C217 8483   4.187   5.257   8.898  0.1038  0.4840 -0.0832
   88SAPS  H17R 8484   4.153   5.360   8.873 -3.5667 -0.9606 -1.4771
   88SAPS  H17S 8485   4.107   5.185   8.871 -0.5587  1.5012 -0.8740
   88SAPS  C218 8486   4.307   5.215   8.813  0.2965 -0.1433 -0.0059
   88SAPS  H18R 8487   4.336   5.111   8.839  1.3422 -0.1047 -0.9965
   88SAPS  H18S 8488   4.393   5.274   8.851 -0.7106  2.0127 -0.9760
   88SAPS  C219 8489   4.275   5.227   8.673 -0.5802  0.1482  0.1665
   88SAPS  H19R 8490   4.217   5.321   8.668  2.6727  2.4001  2.5959
   88SAPS  H19S 8491   4.223   5.143   8.622  0.2014 -2.2653  3.1936
   88SAPS  C220 8492   4.403   5.255   8.584 -0.2326  0.4717 -0.2157
   88SAPS  H20R 8493   4.367   5.255   8.479 -1.6636 -0.6036  0.2536
   88SAPS  H20S 8494   4.472   5.171   8.605 -0.6892  0.1801  0.1455
   88SAPS  H20T 8495   4.450   5.354   8.602  0.3992  0.0124  0.6954
   88SAPS   C33 8496   5.059   5.539  10.133  0.4244  0.9520  0.2644
   88SAPS   H3X 8497   4.961   5.487  10.132  0.6326  0.5581  0.3161
   88SAPS   H3Y 8498   5.140   5.468  10.106 -2.1735 -1.1190 -2.3191
   88SAPS   C34 8499   5.039   5.644  10.017  0.3179  0.0461  0.2009
   88SAPS   H4X 8500   5.142   5.681   9.999  0.5179 -0.4567  0.3126
   88SAPS   H4Y 8501   4.967   5.726  10.041  1.5732  2.1853 -2.8980
   88SAPS   C35 8502   5.003   5.570   9.892 -0.6662 -0.4441  0.2923
   88SAPS   H5X 8503   4.896   5.540   9.896 -1.2258  1.1714 -1.5795
   88SAPS   H5Y 8504   5.074   5.485   9.900  1.0660  1.0268  0.7379
   88SAPS   C36 8505   5.038   5.643   9.761 -0.5641 -0.2725  0.3113
   88SAPS   H6X 8506   5.144   5.675   9.754 -0.0451 -1.9694  0.1452
   88SAPS   H6Y 8507   4.968   5.727   9.741 -1.2512 -0.8866  0.1057
   88SAPS   C37 8508   5.014   5.552   9.634 -0.1055 -0.1378  0.4977
   88SAPS   H7X 8509   4.910   5.514   9.634 -0.4744  0.8719  0.3658
   88SAPS   H7Y 8510   5.080   5.462   9.637 -0.2991 -0.3881 -1.7808
   88SAPS   C38 8511   5.018   5.644   9.511  0.4262  0.6733  0.0537
   88SAPS   H8X 8512   5.121   5.680   9.490  0.7405 -0.0040  0.4037
   88SAPS   H8Y 8513   4.948   5.729   9.530  0.5242  0.9019 -0.5987
   88SAPS   C39 8514   4.944   5.573   9.394 -0.0980  0.7655 -0.2644
   88SAPS   H9X 8515   4.840   5.551   9.428  0.3086 -1.9509 -0.6434
   88SAPS   H9Y 8516   4.988   5.473   9.373 -1.6495  0.0876 -0.3987
   88SAPS  C310 8517   4.941   5.667   9.269 -0.5408 -0.1113 -0.1174
   88SAPS  H10X 8518   5.040   5.702   9.235  0.0612  1.2646  2.8857
   88SAPS  H10Y 8519   4.888   5.759   9.303 -0.2593  0.7141 -1.8562
   88SAPS  C311 8520   4.859   5.623   9.147  0.2842  0.7145  0.0814
   88SAPS  H11X 8521   4.849   5.713   9.083 -0.7496 -0.0091 -0.7968
   88SAPS  H11Y 8522   4.757   5.591   9.178 -0.7466  3.0104 -0.8472
   88SAPS  C312 8523   4.927   5.525   9.045  0.1449 -0.2822  0.6536
   88SAPS  H12X 8524   4.848   5.489   8.976  3.2838 -0.6030 -2.9467
   88SAPS  H12Y 8525   4.967   5.441   9.106  1.8377 -0.4244 -0.6031
   88SAPS  C313 8526   5.048   5.591   8.962 -0.5471 -0.0740 -0.1697
   88SAPS  H13X 8527   5.131   5.617   9.032  1.8069 -0.8392 -2.5751
   88SAPS  H13Y 8528   5.004   5.686   8.924  1.0031  1.5601  1.9959
   88SAPS  C314 8529   5.112   5.502   8.858 -1.0853 -0.0104 -0.8420
   88SAPS  H14X 8530   5.034   5.429   8.827 -0.7302 -1.3449  1.3023
   88SAPS  H14Y 8531   5.205   5.449   8.889 -1.8064 -1.3096 -0.8722
   88SAPS  C315 8532   5.145   5.565   8.718  0.6318  0.3311 -0.0170
   88SAPS  H15X 8533   5.046   5.611   8.695  0.8897  0.2159 -1.3868
   88SAPS  H15Y 8534   5.157   5.486   8.640 -2.0913 -0.4951  0.3254
   88SAPS  C316 8535   5.259   5.662   8.724  0.6650 -1.2837  0.1891
   88SAPS  H16X 8536   5.362   5.622   8.735  0.6819 -0.9836  1.1683
   88SAPS  H16Y 8537   5.245   5.716   8.820 -3.4767 -0.7400 -0.6176
   88SAPS  C317 8538   5.250   5.764   8.616 -0.0458 -0.0041  0.0555
   88SAPS  H17X 8539   5.354   5.802   8.608  0.5387 -1.4652  0.4860
   88SAPS  H17Y 8540   5.169   5.837   8.634  1.0225  0.6854  2.2405
   88SAPS  C318 8541   5.234   5.704   8.477  0.2295  0.5602 -0.2847
   88SAPS  H18X 8542   5.136   5.653   8.468  1.4597 -1.5712 -2.1684
   88SAPS  H18Y 8543   5.313   5.627   8.460 -0.8318 -0.7720  0.7397
   88SAPS  H18Z 8544   5.244   5.782   8.398  1.3826  1.9885  1.2393
   89SAPS     N 8545   3.238   1.051  10.695  0.0553 -0.9806 -0.3127
   89SAPS   HN1 8546   3.145   1.007  10.711  0.2030 -0.9779  0.5402
   89SAPS   HN2 8547   3.232   1.138  10.638  0.4915 -1.3531 -0.9273
   89SAPS   HN3 8548   3.294   0.982  10.641  0.8158 -0.0074 -0.7805
   89SAPS   C12 8549   3.331   1.076  10.812  0.1801 -0.3062  0.1885
   89SAPS  H12A 8550   3.279   1.145  10.877  0.2386  0.8573 -0.9966
   89SAPS   C13 8551   3.364   0.953  10.896 -0.2333 -0.3784  0.6255
   89SAPS  O13A 8552   3.351   0.832  10.850 -0.6389 -0.1248 -0.5350
   89SAPS  O13B 8553   3.426   0.974  11.003 -0.2437  0.0822 -0.0710
   89SAPS   C11 8554   3.455   1.147  10.756 -0.1772 -0.0953  0.0532
   89SAPS  H11A 8555   3.504   1.065  10.699  2.8914  2.7800 -1.5698
   89SAPS  H11B 8556   3.515   1.174  10.845 -0.5369 -0.4989  0.4255
   89SAPS     P 8557   3.526   1.367  10.655  0.0727 -0.0746 -0.2311
   89SAPS   O13 8558   3.466   1.468  10.566 -0.3423 -0.0061  0.5380
   89SAPS   O14 8559   3.547   1.404  10.796  0.1885  0.0362  0.1989
   89SAPS   O12 8560   3.421   1.251  10.663  0.1328  0.3015  0.4316
   89SAPS   O11 8561   3.654   1.309  10.588  0.4597 -0.0729  0.1428
   89SAPS    C1 8562   3.663   1.255  10.458 -0.0198 -0.0348  0.0638
   89SAPS    HA 8563   3.715   1.157  10.456  0.1703  0.0834 -2.2365
   89SAPS    HB 8564   3.562   1.237  10.414  0.5965  0.2125 -1.4645
   89SAPS    C2 8565   3.745   1.353  10.371 -1.0485 -0.2319  0.2062
   89SAPS    HS 8566   3.686   1.446  10.354 -0.9717  0.1204  1.8301
   89SAPS   O21 8567   3.774   1.295  10.243 -0.1270  0.5589 -0.2799
   89SAPS   C21 8568   3.677   1.303  10.157 -0.7361  0.2242  0.7004
   89SAPS   O22 8569   3.564   1.344  10.176  0.3429  0.5418  0.4928
   89SAPS   C22 8570   3.724   1.263  10.019 -0.3384  0.0981 -0.1331
   89SAPS   H2R 8571   3.830   1.294  10.007 -0.5512  0.9414  0.1609
   89SAPS   H2S 8572   3.726   1.153  10.003 -0.0374  0.3129 -1.6394
   89SAPS    C3 8573   3.875   1.401  10.446 -0.2045  0.4513  0.0221
   89SAPS    HX 8574   3.932   1.306  10.447 -0.1882  0.4643  1.0679
   89SAPS    HY 8575   3.855   1.430  10.552 -1.5216  1.1892 -0.4125
   89SAPS   O31 8576   3.948   1.497  10.360  0.1866 -0.3622 -0.2189
   89SAPS   C31 8577   3.921   1.625  10.387  0.2806  0.9094  0.0062
   89SAPS   O32 8578   3.822   1.658  10.451  0.2310 -0.1410 -0.3433
   89SAPS   C32 8579   4.006   1.718  10.308 -0.0130  0.7193 -0.1396
   89SAPS   H2X 8580   4.092   1.749  10.371  0.1430  0.4034 -0.1906
   89SAPS   H2Y 8581   3.951   1.813  10.294 -2.1924 -0.9383 -3.4453
   89SAPS   C23 8582   3.650   1.319   9.901 -0.7081  0.0622 -0.1116
   89SAPS   H3R 8583   3.657   1.430   9.902  1.5977 -0.0615  1.8913
   89SAPS   H3S 8584   3.544   1.287   9.894 -0.6082 -0.2452 -0.2307
   89SAPS   C24 8585   3.713   1.280   9.767  0.9086 -0.6230 -0.1820
   89SAPS   H4R 8586   3.709   1.170   9.774 -0.9049 -0.6527 -1.4509
   89SAPS   H4S 8587   3.821   1.305   9.767  0.1918  2.7405  0.0754
   89SAPS   C25 8588   3.652   1.327   9.638  0.1237  0.4826  0.7349
   89SAPS   H5R 8589   3.550   1.366   9.652  0.7036  2.8884 -1.2544
   89SAPS   C26 8590   3.705   1.300   9.516  0.7089 -0.4176 -0.1638
   89SAPS   H6R 8591   3.642   1.322   9.430 -1.1940  0.5196  1.4432
   89SAPS   C27 8592   3.830   1.229   9.488 -0.1875 -0.3862 -0.4491
   89SAPS   H7R 8593   3.815   1.131   9.437 -0.6983 -1.2450  1.3113
   89SAPS   H7S 8594   3.885   1.207   9.582 -1.9796 -2.0199  0.2633
   89SAPS   C28 8595   3.917   1.313   9.400  0.3098 -0.2956  0.3365
   89SAPS   H8R 8596   3.954   1.402   9.453  0.2082 -0.2903  0.3989
   89SAPS   C29 8597   3.941   1.295   9.268  0.5818 -0.9330 -0.0466
   89SAPS   H9R 8598   4.006   1.368   9.217 -3.3373  3.4784  0.9030
   89SAPS  C210 8599   3.889   1.191   9.175 -0.4017 -0.4775  0.1324
   89SAPS  H10R 8600   3.785   1.215   9.142 -0.6841 -0.2201  1.1804
   89SAPS  H10S 8601   3.886   1.088   9.216 -3.6889 -0.0236  1.1909
   89SAPS  C211 8602   3.956   1.185   9.043  0.1345 -0.1583 -0.2190
   89SAPS  H11R 8603   3.918   1.256   8.968 -0.3732 -0.0815  0.1008
   89SAPS  C212 8604   4.056   1.103   9.001  0.0946 -0.5908  0.2769
   89SAPS  H12R 8605   4.070   1.097   8.892  4.1565 -0.6590  0.7452
   89SAPS  C213 8606   4.127   1.002   9.082  0.1786 -0.2257  0.1598
   89SAPS  H13R 8607   4.077   0.982   9.179 -0.0458 -0.8358 -0.0802
   89SAPS  H13S 8608   4.225   1.046   9.107  0.0892  0.5098 -0.7809
   89SAPS  C214 8609   4.151   0.876   8.997 -0.0840  0.2680 -0.5246
   89SAPS  H14R 8610   4.083   0.795   9.027  2.2344 -2.3977 -2.2731
   89SAPS  C215 8611   4.240   0.866   8.894 -0.4311 -0.0313 -0.6850
   89SAPS  H15R 8612   4.258   0.771   8.841 -1.7263 -0.5199 -0.2517
   89SAPS  C216 8613   4.348   0.962   8.854  0.4609  0.2090  0.4170
   89SAPS  H16R 8614   4.449   0.933   8.892  0.5412 -1.6265 -1.0916
   89SAPS  H16S 8615   4.339   1.066   8.890 -0.5358 -0.2573  1.5453
   89SAPS  C217 8616   4.359   0.990   8.705  0.2723  0.5340  0.7500
   89SAPS  H17R 8617   4.437   1.065   8.678  0.6442 -0.2993 -0.4989
   89SAPS  H17S 8618   4.261   1.019   8.661 -0.9967 -1.0568  2.4365
   89SAPS  C218 8619   4.389   0.860   8.628  0.6150 -0.1719  0.8081
   89SAPS  H18R 8620   4.297   0.799   8.623  0.9836 -0.7678  1.1352
   89SAPS  H18S 8621   4.476   0.813   8.679  1.1320  0.5004  0.5491
   89SAPS  C219 8622   4.444   0.874   8.484  0.2370 -0.3803 -0.6715
   89SAPS  H19R 8623   4.482   0.775   8.451 -1.5801 -1.0970 -0.6661
   89SAPS  H19S 8624   4.530   0.943   8.495 -2.0126  2.5625 -1.1568
   89SAPS  C220 8625   4.352   0.924   8.374 -0.6383  0.2339 -0.0059
   89SAPS  H20R 8626   4.291   0.843   8.329 -1.4843  0.6925  0.3087
   89SAPS  H20S 8627   4.404   0.968   8.287  1.6233  0.6502  1.4953
   89SAPS  H20T 8628   4.284   1.002   8.416 -0.1867  1.7824 -2.0785
   89SAPS   C33 8629   4.072   1.660  10.177  0.1445 -0.6904  0.6711
   89SAPS   H3X 8630   4.134   1.571  10.199 -1.6944 -3.2401 -3.8345
   89SAPS   H3Y 8631   4.153   1.727  10.141  1.2904 -1.3725  1.9394
   89SAPS   C34 8632   3.978   1.615  10.066 -0.1346  0.8200 -0.6737
   89SAPS   H4X 8633   3.901   1.692  10.046 -1.6911 -0.2708  0.9391
   89SAPS   H4Y 8634   3.913   1.534  10.107 -1.6339  0.8885 -2.8556
   89SAPS   C35 8635   4.045   1.562   9.936  0.0060 -0.3325 -0.2944
   89SAPS   H5X 8636   4.060   1.452   9.939  1.7817 -0.0954 -0.0208
   89SAPS   H5Y 8637   4.146   1.605   9.921  0.1543 -1.9572 -4.3560
   89SAPS   C36 8638   3.961   1.611   9.811 -0.3292 -0.2367 -0.6845
   89SAPS   H6X 8639   3.932   1.716   9.832 -0.6896 -0.1971 -1.3762
   89SAPS   H6Y 8640   3.866   1.555   9.818 -0.4826  0.0442 -0.5237
   89SAPS   C37 8641   4.041   1.603   9.683 -0.4246 -0.7419  0.4000
   89SAPS   H7X 8642   4.053   1.494   9.663 -0.0172 -0.7625  0.7502
   89SAPS   H7Y 8643   4.144   1.636   9.707 -0.4465 -1.7104  1.9526
   89SAPS   C38 8644   3.979   1.686   9.570 -0.0883 -0.8911 -0.3809
   89SAPS   H8X 8645   3.959   1.789   9.605  1.1932 -1.3524  1.8169
   89SAPS   H8Y 8646   3.880   1.639   9.551 -0.0562 -1.7798  1.5093
   89SAPS   C39 8647   4.074   1.674   9.444  0.1024 -0.3320 -0.0987
   89SAPS   H9X 8648   4.115   1.571   9.432  0.0083 -0.4682  0.7628
   89SAPS   H9Y 8649   4.161   1.730   9.483  0.6317 -2.0261  1.2188
   89SAPS  C310 8650   4.005   1.720   9.314 -0.0252  0.3373 -1.1301
   89SAPS  H10X 8651   3.992   1.830   9.322  2.0493  0.4381  1.0414
   89SAPS  H10Y 8652   3.906   1.669   9.306 -0.0770 -0.3566  2.8140
   89SAPS  C311 8653   4.090   1.692   9.189 -0.0325 -0.1566  0.4776
   89SAPS  H11X 8654   4.122   1.586   9.179  0.2512  0.2084 -3.2622
   89SAPS  H11Y 8655   4.178   1.759   9.196  0.6557 -1.0355  0.1966
   89SAPS  C312 8656   4.032   1.725   9.056  0.0854 -0.2322  0.1382
   89SAPS  H12X 8657   3.934   1.674   9.048 -0.6513  1.0757  0.7122
   89SAPS  H12Y 8658   4.106   1.682   8.985 -0.2958  3.0751 -2.4273
   89SAPS  C313 8659   3.995   1.871   9.017 -0.1837 -0.7335 -0.7992
   89SAPS  H13X 8660   4.090   1.928   9.008 -0.6298  0.2344  0.3886
   89SAPS  H13Y 8661   3.940   1.926   9.096 -1.3595 -0.3091 -1.8827
   89SAPS  C314 8662   3.918   1.891   8.894  0.2419  0.1853  0.1969
   89SAPS  H14X 8663   3.937   1.998   8.874 -2.9294  0.6378 -0.7012
   89SAPS  H14Y 8664   3.809   1.874   8.883  0.1405  1.4560 -0.8552
   89SAPS  C315 8665   3.980   1.817   8.776 -0.0115  0.4756  0.0562
   89SAPS  H15X 8666   3.973   1.707   8.788  2.4528  0.0799 -1.8013
   89SAPS  H15Y 8667   4.089   1.838   8.776  0.0001  0.4325 -1.2106
   89SAPS  C316 8668   3.920   1.829   8.636 -0.2747 -0.0901 -0.2706
   89SAPS  H16X 8669   3.930   1.929   8.589  2.0819  1.0383  2.5085
   89SAPS  H16Y 8670   3.809   1.822   8.640 -0.5489  1.8759 -3.0686
   89SAPS  C317 8671   3.990   1.727   8.549 -0.1211 -0.4228  0.7692
   89SAPS  H17X 8672   3.982   1.628   8.599 -2.6917  0.6068  2.5483
   89SAPS  H17Y 8673   4.093   1.762   8.527 -1.3072  1.2964 -2.2692
   89SAPS  C318 8674   3.915   1.726   8.415 -0.5801  0.1673 -0.2102
   89SAPS  H18X 8675   3.936   1.822   8.362  0.9781 -0.2985 -0.4438
   89SAPS  H18Y 8676   3.804   1.717   8.423 -0.4750 -0.2786  0.7298
   89SAPS  H18Z 8677   3.957   1.643   8.354  0.9873 -1.7277  3.3645
   90SAPS     N 8678   6.073   1.488  10.779 -0.1761  0.1856 -0.0750
   90SAPS   HN1 8679   6.116   1.408  10.728 -0.2171  1.0559 -1.5263
   90SAPS   HN2 8680   6.032   1.555  10.710 -0.6526 -0.6828 -0.6450
   90SAPS   HN3 8681   6.142   1.538  10.838 -2.0327  3.1245 -0.2489
   90SAPS   C12 8682   5.960   1.438  10.878  0.0540 -0.2526  0.0521
   90SAPS  H12A 8683   6.020   1.384  10.950  1.3523  1.3678  0.2121
   90SAPS   C13 8684   5.897   1.544  10.958 -0.0641 -0.3862  0.3326
   90SAPS  O13A 8685   5.937   1.661  10.963 -0.1481  0.1791  1.4402
   90SAPS  O13B 8686   5.788   1.515  11.012  0.3631  0.5867 -0.5445
   90SAPS   C11 8687   5.856   1.346  10.809  0.9900  0.1250  0.0744
   90SAPS  H11A 8688   5.803   1.415  10.741  1.3611  0.5687  0.2313
   90SAPS  H11B 8689   5.781   1.309  10.882 -1.0334  2.3248 -0.8203
   90SAPS     P 8690   5.832   1.155  10.649 -0.0234  0.0607 -0.0910
   90SAPS   O13 8691   5.902   1.025  10.648 -0.6260 -0.4872 -0.3228
   90SAPS   O14 8692   5.695   1.159  10.703  0.1044  0.5696  0.7118
   90SAPS   O12 8693   5.930   1.246  10.735 -0.0793 -0.2026 -0.7281
   90SAPS   O11 8694   5.844   1.210  10.501 -0.9767  0.1656  0.2744
   90SAPS    C1 8695   5.853   1.351  10.477 -0.5988  0.5444  0.5088
   90SAPS    HA 8696   5.774   1.411  10.526 -0.3730  1.2534  0.0170
   90SAPS    HB 8697   5.946   1.401  10.511 -0.8803  1.5980 -0.2388
   90SAPS    C2 8698   5.862   1.368  10.322 -0.0936  0.5254  0.2942
   90SAPS    HS 8699   5.766   1.331  10.280 -1.5363  2.5537  1.6799
   90SAPS   O21 8700   5.971   1.290  10.273 -0.2352 -0.3037 -0.6780
   90SAPS   C21 8701   5.966   1.257  10.150 -0.4134  0.5169 -1.0328
   90SAPS   O22 8702   5.875   1.287  10.073 -0.2207 -1.0072  0.2671
   90SAPS   C22 8703   6.088   1.164  10.118  0.1112  0.2746  0.6307
   90SAPS   H2R 8704   6.157   1.209  10.043 -1.6252 -0.4898 -1.4923
   90SAPS   H2S 8705   6.138   1.146  10.215 -1.4452  0.6473  1.5222
   90SAPS    C3 8706   5.886   1.526  10.295  0.0798  0.0581  0.3675
   90SAPS    HX 8707   5.978   1.555  10.349 -0.4696 -0.7302  1.7405
   90SAPS    HY 8708   5.804   1.591  10.333 -0.3599 -0.6492  0.6471
   90SAPS   O31 8709   5.910   1.558  10.159  0.3351 -0.0174  0.1503
   90SAPS   C31 8710   5.801   1.575  10.074  0.2515  0.2854 -0.6437
   90SAPS   O32 8711   5.688   1.567  10.111  0.3880 -0.2918 -0.8219
   90SAPS   C32 8712   5.847   1.604   9.930  0.3842  0.2386 -0.1780
   90SAPS   H2X 8713   5.927   1.534   9.899  0.4315 -1.1244  2.8061
   90SAPS   H2Y 8714   5.870   1.712   9.925  0.8256  0.3145  2.6035
   90SAPS   C23 8715   6.049   1.031  10.059  0.1903 -0.2738 -0.5417
   90SAPS   H3R 8716   5.984   1.046   9.971 -0.0456  1.5074 -0.0717
   90SAPS   H3S 8717   5.976   0.988  10.131  0.2532 -0.4476 -0.5804
   90SAPS   C24 8718   6.158   0.928  10.027  0.2818 -0.2453  0.5945
   90SAPS   H4R 8719   6.219   0.905  10.117  2.8399 -2.7756 -1.6809
   90SAPS   H4S 8720   6.225   0.987   9.961  1.4275 -0.7237  1.3064
   90SAPS   C25 8721   6.108   0.800   9.964  0.1989 -0.2024  0.0749
   90SAPS   H5R 8722   6.101   0.716  10.035 -1.6017  0.2681  0.4587
   90SAPS   C26 8723   6.074   0.775   9.836  0.2888  0.6866  0.2937
   90SAPS   H6R 8724   6.047   0.670   9.815 -1.1111  1.1868 -0.4722
   90SAPS   C27 8725   6.077   0.863   9.717  0.3638 -0.1290 -0.2520
   90SAPS   H7R 8726   6.177   0.913   9.717  0.7711 -0.9343 -0.0774
   90SAPS   H7S 8727   6.002   0.944   9.727 -0.2103 -0.6684 -0.1889
   90SAPS   C28 8728   6.068   0.782   9.588 -0.1732  0.2926  0.2446
   90SAPS   H8R 8729   6.084   0.673   9.583  1.2013  0.4902  0.0979
   90SAPS   C29 8730   6.026   0.850   9.476  0.2650 -0.4672  0.1806
   90SAPS   H9R 8731   6.025   0.795   9.381 -0.6339 -0.1274 -0.0131
   90SAPS  C210 8732   6.000   0.996   9.446  0.8068 -0.8807 -0.2867
   90SAPS  H10R 8733   6.092   1.053   9.421 -0.4609  1.3584  0.0134
   90SAPS  H10S 8734   5.971   1.050   9.539  0.9808  1.8436 -1.7575
   90SAPS  C211 8735   5.893   1.001   9.336  0.4847 -0.1189 -0.2044
   90SAPS  H11R 8736   5.792   0.971   9.369  1.3815 -1.3766  1.4868
   90SAPS  C212 8737   5.910   1.032   9.206  0.7869  0.1939  0.1778
   90SAPS  H12R 8738   5.826   1.014   9.137  1.7750  0.5438 -1.1574
   90SAPS  C213 8739   6.043   1.056   9.137 -0.1255  0.2856 -0.0056
   90SAPS  H13R 8740   6.067   0.966   9.077 -2.4572 -0.7180  0.5105
   90SAPS  H13S 8741   6.118   1.067   9.219  2.4300  0.6046 -2.3104
   90SAPS  C214 8742   6.039   1.184   9.054 -0.0611  0.0909  0.1892
   90SAPS  H14R 8743   6.067   1.280   9.101  0.8614  0.3640 -0.8902
   90SAPS  C215 8744   6.016   1.193   8.920  0.2781  0.4263 -0.0133
   90SAPS  H15R 8745   6.016   1.290   8.869 -1.4098 -0.2000 -1.2491
   90SAPS  C216 8746   5.988   1.072   8.823  0.4630  0.3494 -0.1375
   90SAPS  H16R 8747   5.930   0.992   8.874  2.8683 -0.5684  1.2708
   90SAPS  H16S 8748   6.081   1.021   8.790 -0.3599 -1.2240 -0.0463
   90SAPS  C217 8749   5.917   1.126   8.696  0.1949 -0.6441 -0.1801
   90SAPS  H17R 8750   5.994   1.187   8.644 -0.1208  1.0562  1.3256
   90SAPS  H17S 8751   5.828   1.186   8.722  1.2102  2.2495 -2.9900
   90SAPS  C218 8752   5.895   1.022   8.594  0.4683 -0.0451  0.3013
   90SAPS  H18R 8753   5.837   0.937   8.637 -1.5208 -0.2094 -2.5934
   90SAPS  H18S 8754   5.986   0.997   8.536  1.1478  0.9424  0.9270
   90SAPS  C219 8755   5.798   1.075   8.484  0.4788 -0.6384 -0.2398
   90SAPS  H19R 8756   5.805   0.997   8.405 -0.8425 -0.4999 -0.4997
   90SAPS  H19S 8757   5.840   1.170   8.445 -1.8992  1.8983  3.1569
   90SAPS  C220 8758   5.648   1.104   8.527  0.0602  0.4466  0.0983
   90SAPS  H20R 8759   5.592   1.018   8.569  0.8182 -0.2508 -0.3209
   90SAPS  H20S 8760   5.595   1.135   8.434 -0.1965 -1.2955 -0.3604
   90SAPS  H20T 8761   5.647   1.197   8.589 -0.1223 -1.6191  3.2936
   90SAPS   C33 8762   5.743   1.574   9.819 -0.6118  0.0528 -0.0222
   90SAPS   H3X 8763   5.679   1.665   9.824  0.4136  0.7627  0.1967
   90SAPS   H3Y 8764   5.676   1.491   9.849 -0.9968 -0.1636 -1.4268
   90SAPS   C34 8765   5.783   1.547   9.674 -0.6671  0.6565 -0.8072
   90SAPS   H4X 8766   5.826   1.445   9.672  2.7967  1.9226  2.0214
   90SAPS   H4Y 8767   5.868   1.614   9.649  0.6490 -1.2010 -1.3996
   90SAPS   C35 8768   5.679   1.556   9.568  0.4770  0.4122 -0.0349
   90SAPS   H5X 8769   5.639   1.657   9.545 -1.1991  0.0974  1.3493
   90SAPS   H5Y 8770   5.594   1.501   9.614  0.3002  0.1858 -0.6224
   90SAPS   C36 8771   5.724   1.479   9.440  0.2002 -0.1776 -0.6191
   90SAPS   H6X 8772   5.775   1.388   9.478  0.3612 -0.1775 -0.8365
   90SAPS   H6Y 8773   5.813   1.529   9.396  0.6175 -1.6256 -1.4456
   90SAPS   C37 8774   5.611   1.450   9.339 -1.0293  0.0463  0.1086
   90SAPS   H7X 8775   5.555   1.544   9.319 -2.6489 -0.7524  0.8476
   90SAPS   H7Y 8776   5.539   1.379   9.385 -1.1449 -1.6340 -2.5463
   90SAPS   C38 8777   5.668   1.393   9.211 -0.2411 -0.5432  0.0808
   90SAPS   H8X 8778   5.754   1.324   9.221  1.4781  1.0718 -2.8044
   90SAPS   H8Y 8779   5.718   1.475   9.156 -1.9616  1.6836  1.7421
   90SAPS   C39 8780   5.563   1.318   9.120  0.2084  0.5892 -0.1435
   90SAPS   H9X 8781   5.487   1.392   9.086 -0.9132  0.4346  1.9137
   90SAPS   H9Y 8782   5.511   1.244   9.184 -0.3034  1.0156 -0.0650
   90SAPS  C310 8783   5.627   1.247   8.994  0.4982  0.0265 -0.8431
   90SAPS  H10X 8784   5.707   1.177   9.027  0.4370  0.2518 -0.2229
   90SAPS  H10Y 8785   5.681   1.321   8.931  2.5862  0.6052  1.5518
   90SAPS  C311 8786   5.521   1.163   8.919  0.1788  0.0828 -0.1693
   90SAPS  H11X 8787   5.467   1.099   8.992 -0.4698 -0.4705 -1.1361
   90SAPS  H11Y 8788   5.563   1.082   8.856 -0.6700 -1.7193  1.5274
   90SAPS  C312 8789   5.412   1.237   8.833  0.3782 -0.7183 -0.8512
   90SAPS  H12X 8790   5.471   1.313   8.777  1.3008 -0.1184  0.9121
   90SAPS  H12Y 8791   5.346   1.285   8.908  1.4814  3.2704 -2.3240
   90SAPS  C313 8792   5.327   1.158   8.739  0.2048 -0.2310  0.4301
   90SAPS  H13X 8793   5.284   1.065   8.781 -0.5358 -0.0687  0.0371
   90SAPS  H13Y 8794   5.394   1.138   8.653  1.6515  0.3858  1.3838
   90SAPS  C314 8795   5.212   1.247   8.687 -0.6561  0.7508  0.2352
   90SAPS  H14X 8796   5.159   1.282   8.779  0.7096 -0.9317  1.7060
   90SAPS  H14Y 8797   5.142   1.189   8.624  0.5426  0.5595 -0.9554
   90SAPS  C315 8798   5.244   1.381   8.605  0.3248  0.0734  0.1683
   90SAPS  H15X 8799   5.268   1.347   8.502 -1.1337 -0.2648 -0.0736
   90SAPS  H15Y 8800   5.336   1.428   8.645  1.5840 -2.1964 -0.0098
   90SAPS  C316 8801   5.119   1.465   8.588  0.2657 -0.4928 -0.0132
   90SAPS  H16X 8802   5.097   1.509   8.688  0.6919  0.8308 -0.5027
   90SAPS  H16Y 8803   5.037   1.403   8.546 -0.7931 -0.3518  1.7889
   90SAPS  C317 8804   5.150   1.591   8.498  0.6879  0.1121  0.3624
   90SAPS  H17X 8805   5.057   1.644   8.469  1.3826 -0.5082 -3.2317
   90SAPS  H17Y 8806   5.194   1.548   8.406 -1.8300 -0.1918 -0.7362
   90SAPS  C318 8807   5.244   1.696   8.566 -0.0986  0.6414 -0.5290
   90SAPS  H18X 8808   5.350   1.663   8.569 -0.0779  0.8357  1.3975
   90SAPS  H18Y 8809   5.207   1.715   8.668  0.3973 -3.6073  0.5484
   90SAPS  H18Z 8810   5.238   1.796   8.518  2.0242  0.0658 -2.1027
   91SAPS     N 8811   4.290   5.601   5.801 -0.0157 -0.9074 -0.3152
   91SAPS   HN1 8812   4.342   5.544   5.732  1.5210  0.8611 -0.6658
   91SAPS   HN2 8813   4.362   5.628   5.871  0.4476 -1.1239 -0.7120
   91SAPS   HN3 8814   4.226   5.543   5.860  0.0615  0.2349  0.9237
   91SAPS   C12 8815   4.219   5.720   5.734  0.3262 -0.9874 -0.3379
   91SAPS  H12A 8816   4.296   5.794   5.718  1.2961 -2.3974 -2.3950
   91SAPS   C13 8817   4.161   5.688   5.593 -0.0236 -0.4532  0.4291
   91SAPS  O13A 8818   4.160   5.567   5.552  0.3257  0.2223  0.1488
   91SAPS  O13B 8819   4.107   5.778   5.528  0.7782  0.0585 -0.1645
   91SAPS   C11 8820   4.095   5.764   5.823 -0.2432  0.3855  0.0500
   91SAPS  H11A 8821   4.023   5.679   5.817  0.5143 -0.3510  1.3285
   91SAPS  H11B 8822   4.041   5.855   5.789  1.2699  1.1244 -0.4165
   91SAPS     P 8823   4.182   5.920   6.005 -0.1207  0.0660  0.0831
   91SAPS   O13 8824   4.319   5.912   6.062 -0.0104 -0.5059  0.3608
   91SAPS   O14 8825   4.176   6.021   5.896  0.1652 -0.2624 -0.5588
   91SAPS   O12 8826   4.128   5.776   5.961  0.0674  0.0140  0.1350
   91SAPS   O11 8827   4.090   5.973   6.121 -0.9166 -0.8378  0.4329
   91SAPS    C1 8828   3.947   5.951   6.131 -0.2374 -0.2769 -0.4442
   91SAPS    HA 8829   3.913   6.010   6.043  1.9189 -0.0750 -1.1635
   91SAPS    HB 8830   3.918   5.844   6.135  0.5810 -0.4927 -0.2071
   91SAPS    C2 8831   3.901   6.019   6.264 -0.4637  0.8753 -0.1427
   91SAPS    HS 8832   3.926   6.126   6.254 -5.3756  2.0938 -0.4193
   91SAPS   O21 8833   3.965   5.955   6.382 -0.2565 -0.0099 -0.2759
   91SAPS   C21 8834   4.073   6.030   6.427  0.3026  0.0596 -0.0755
   91SAPS   O22 8835   4.090   6.147   6.399 -0.1570  0.2572 -0.3767
   91SAPS   C22 8836   4.168   5.943   6.505 -1.2683  0.5178 -0.2375
   91SAPS   H2R 8837   4.116   5.860   6.559  1.0726 -0.7740  0.0898
   91SAPS   H2S 8838   4.227   5.892   6.426 -0.5241  1.1251 -0.0801
   91SAPS    C3 8839   3.755   5.987   6.284  0.0507  0.0256 -0.1065
   91SAPS    HX 8840   3.744   5.881   6.318 -1.9533  0.5831  1.1311
   91SAPS    HY 8841   3.705   6.000   6.186 -1.1097  0.3443  0.5153
   91SAPS   O31 8842   3.706   6.089   6.376  0.0354 -0.4254 -0.4020
   91SAPS   C31 8843   3.699   6.051   6.509  0.8969 -1.1025  0.3437
   91SAPS   O32 8844   3.726   5.938   6.551 -0.1029  0.2213  0.0991
   91SAPS   C32 8845   3.655   6.171   6.594 -0.0169  0.6754  0.1298
   91SAPS   H2X 8846   3.547   6.182   6.569  0.0495 -0.2518 -0.5986
   91SAPS   H2Y 8847   3.706   6.261   6.551 -0.4955 -0.0809 -2.1282
   91SAPS   C23 8848   4.268   6.024   6.602  0.2784  0.1637  0.9325
   91SAPS   H3R 8849   4.310   6.116   6.555 -0.1884 -0.3496 -0.5098
   91SAPS   H3S 8850   4.359   5.966   6.626  0.7651  0.2367 -0.7274
   91SAPS   C24 8851   4.210   6.040   6.744  0.2630  0.0273 -0.0275
   91SAPS   H4R 8852   4.124   6.105   6.719  0.2705  0.0661  0.0485
   91SAPS   H4S 8853   4.281   6.099   6.805 -0.5956  1.3193 -0.2683
   91SAPS   C25 8854   4.171   5.913   6.826 -0.4359 -0.4188 -0.2797
   91SAPS   H5R 8855   4.127   5.825   6.778  1.9604 -1.6523 -0.2904
   91SAPS   C26 8856   4.191   5.903   6.962  0.4766 -0.4670 -0.7548
   91SAPS   H6R 8857   4.162   5.815   7.021 -1.2043 -0.1592 -1.0991
   91SAPS   C27 8858   4.258   6.006   7.051 -0.2210 -0.7078 -1.0474
   91SAPS   H7R 8859   4.193   6.042   7.133  0.1765 -0.6512 -0.7565
   91SAPS   H7S 8860   4.284   6.099   6.997  0.6480 -0.8743 -0.9211
   91SAPS   C28 8861   4.385   5.941   7.115 -0.1040 -0.4699  0.2883
   91SAPS   H8R 8862   4.444   5.881   7.044 -2.2503 -2.7310  0.3354
   91SAPS   C29 8863   4.417   5.939   7.248  0.1848 -0.6998 -0.6913
   91SAPS   H9R 8864   4.509   5.893   7.289 -0.5077 -1.2975  0.2082
   91SAPS  C210 8865   4.318   5.991   7.350  0.7549 -0.0699  0.1452
   91SAPS  H10R 8866   4.215   5.962   7.323 -0.0682  0.6332  2.3865
   91SAPS  H10S 8867   4.314   6.102   7.338 -2.5428 -0.3792 -2.1005
   91SAPS  C211 8868   4.340   5.954   7.493 -0.3127  1.4584 -0.7894
   91SAPS  H11R 8869   4.364   6.032   7.567 -1.8495  0.9345  0.2877
   91SAPS  C212 8870   4.329   5.830   7.545  0.2371  0.2472  0.0537
   91SAPS  H12R 8871   4.362   5.809   7.648 -2.5633 -0.4006  0.8569
   91SAPS  C213 8872   4.285   5.714   7.465 -0.1511 -0.7915  0.0494
   91SAPS  H13R 8873   4.344   5.695   7.373 -1.4064  0.8188 -1.1019
   91SAPS  H13S 8874   4.180   5.724   7.429 -0.2111  0.0570  0.4433
   91SAPS  C214 8875   4.305   5.587   7.545 -0.4317 -0.2271 -0.2207
   91SAPS  H14R 8876   4.241   5.592   7.634 -1.0787 -0.4967 -0.6637
   91SAPS  C215 8877   4.399   5.489   7.525 -0.1007  0.4760  0.6927
   91SAPS  H15R 8878   4.408   5.412   7.603  2.8289 -0.5495 -0.5717
   91SAPS  C216 8879   4.495   5.484   7.407 -0.2206  0.7751  0.4975
   91SAPS  H16R 8880   4.593   5.448   7.445  0.5382  0.6047 -1.5693
   91SAPS  H16S 8881   4.523   5.585   7.369 -0.0007  0.0660 -1.2904
   91SAPS  C217 8882   4.451   5.395   7.287 -0.2450 -0.2262  0.1021
   91SAPS  H17R 8883   4.424   5.295   7.326  1.2208 -1.0891 -1.0096
   91SAPS  H17S 8884   4.550   5.385   7.237  0.2299  1.5955  0.6435
   91SAPS  C218 8885   4.342   5.442   7.190  0.5979 -0.4845 -1.2966
   91SAPS  H18R 8886   4.259   5.459   7.262  2.2558 -1.4841  0.9098
   91SAPS  H18S 8887   4.316   5.363   7.116 -0.2506 -1.4413 -0.0020
   91SAPS  C219 8888   4.378   5.570   7.112  0.1265  0.3371  0.4284
   91SAPS  H19R 8889   4.425   5.642   7.183 -0.4949  2.1477 -0.9478
   91SAPS  H19S 8890   4.284   5.617   7.077 -0.5784 -0.0397  1.7920
   91SAPS  C220 8891   4.473   5.542   6.994  0.0902  0.8679 -0.6385
   91SAPS  H20R 8892   4.442   5.459   6.928  0.8208  0.7988 -0.9019
   91SAPS  H20S 8893   4.571   5.522   7.044 -1.2847 -1.0179  1.3696
   91SAPS  H20T 8894   4.483   5.633   6.930  1.1928  0.9180 -0.4191
   91SAPS   C33 8895   3.688   6.168   6.743  0.9256  0.4043 -0.3944
   91SAPS   H3X 8896   3.653   6.065   6.764 -0.3212  0.6221 -1.3173
   91SAPS   H3Y 8897   3.636   6.236   6.813  0.6799 -2.7540  2.6266
   91SAPS   C34 8898   3.841   6.181   6.773 -0.3683  1.1257 -0.1182
   91SAPS   H4X 8899   3.862   6.279   6.724  1.2824  0.9455  0.1870
   91SAPS   H4Y 8900   3.888   6.101   6.711 -0.4703  0.2262  0.9601
   91SAPS   C35 8901   3.870   6.179   6.924  0.6142 -0.2567  0.4211
   91SAPS   H5X 8902   3.977   6.152   6.935  0.3272 -2.3381 -1.5366
   91SAPS   H5Y 8903   3.806   6.097   6.963  0.4298 -0.9137 -1.2241
   91SAPS   C36 8904   3.848   6.314   6.990  0.1756 -0.3775 -0.1355
   91SAPS   H6X 8905   3.750   6.361   6.967  1.2837  2.7447  1.2894
   91SAPS   H6Y 8906   3.921   6.391   6.957  0.5524 -1.0070 -0.7925
   91SAPS   C37 8907   3.850   6.298   7.139  0.1963 -0.5098  0.3231
   91SAPS   H7X 8908   3.784   6.214   7.170  0.2083 -0.2797  0.9732
   91SAPS   H7Y 8909   3.813   6.396   7.176  0.5972  0.4363 -1.6917
   91SAPS   C38 8910   3.991   6.282   7.208  0.8242 -0.0585 -0.1436
   91SAPS   H8X 8911   4.063   6.356   7.168  1.3482 -0.2990  0.3446
   91SAPS   H8Y 8912   4.035   6.181   7.190 -2.1525 -0.9884 -2.5685
   91SAPS   C39 8913   4.007   6.303   7.361 -0.6385  0.2847 -0.2608
   91SAPS   H9X 8914   3.965   6.402   7.391  1.0137  0.3780  1.8761
   91SAPS   H9Y 8915   4.116   6.301   7.382 -0.7948 -1.2951  0.5181
   91SAPS  C310 8916   3.942   6.204   7.465 -0.4748  0.1298  0.4243
   91SAPS  H10X 8917   4.009   6.116   7.478 -0.7189 -0.4355 -1.9534
   91SAPS  H10Y 8918   3.841   6.174   7.430  0.0465  1.9764 -2.8490
   91SAPS  C311 8919   3.929   6.266   7.599  0.0882 -0.4511 -0.9903
   91SAPS  H11X 8920   3.877   6.192   7.663 -1.3124  0.5218 -0.9974
   91SAPS  H11Y 8921   3.874   6.361   7.582 -2.4514 -1.4817  1.1906
   91SAPS  C312 8922   4.061   6.286   7.673  0.4774  0.0578 -0.2987
   91SAPS  H12X 8923   4.135   6.339   7.609 -0.2248  1.8324  0.3206
   91SAPS  H12Y 8924   4.090   6.186   7.710 -0.4569  1.2052  3.8146
   91SAPS  C313 8925   4.039   6.372   7.801  0.1901 -0.4417  0.1731
   91SAPS  H13X 8926   4.055   6.476   7.766  0.3826 -0.6309 -0.3047
   91SAPS  H13Y 8927   4.125   6.347   7.867  0.8822 -1.9337 -1.2570
   91SAPS  C314 8928   3.894   6.377   7.864  0.1699  1.0890 -0.6552
   91SAPS  H14X 8929   3.862   6.272   7.881  2.0707  0.9019  2.0456
   91SAPS  H14Y 8930   3.814   6.420   7.801 -0.3220  1.7607  0.4145
   91SAPS  C315 8931   3.884   6.455   7.992  0.1478  0.1702  0.2876
   91SAPS  H15X 8932   3.922   6.560   7.990  0.4634  0.0450 -0.4312
   91SAPS  H15Y 8933   3.961   6.407   8.056  0.9405 -0.4102 -1.0917
   91SAPS  C316 8934   3.752   6.452   8.064  0.2826  0.0131  0.4308
   91SAPS  H16X 8935   3.707   6.351   8.067 -0.8382  0.4835 -0.3676
   91SAPS  H16Y 8936   3.686   6.516   8.001 -0.1859 -1.3951 -0.5479
   91SAPS  C317 8937   3.772   6.522   8.199  0.2783  0.6240  0.6382
   91SAPS  H17X 8938   3.858   6.471   8.248  0.0643 -1.3010 -0.9274
   91SAPS  H17Y 8939   3.681   6.494   8.257 -0.5080  0.2782 -0.7379
   91SAPS  C318 8940   3.791   6.670   8.206 -0.4819  0.2380 -1.2034
   91SAPS  H18X 8941   3.792   6.695   8.314 -0.1841 -1.2238 -0.8533
   91SAPS  H18Y 8942   3.703   6.719   8.160  0.1509  1.9081 -0.6507
   91SAPS  H18Z 8943   3.884   6.701   8.155 -0.2286  0.9169 -0.3329
   92SAPS     N 8944   2.530   3.674   6.322  0.0594 -0.7703  0.0280
   92SAPS   HN1 8945   2.476   3.759   6.297  0.1969  0.3769  3.3604
   92SAPS   HN2 8946   2.504   3.597   6.257  1.9192  0.1383 -1.8431
   92SAPS   HN3 8947   2.520   3.647   6.422  2.4547  0.1168  0.5190
   92SAPS   C12 8948   2.679   3.704   6.319 -0.4824  0.0571  0.5524
   92SAPS  H12A 8949   2.719   3.604   6.316 -2.0274 -0.5554 -1.1147
   92SAPS   C13 8950   2.730   3.777   6.198 -0.1788  0.6007 -0.3513
   92SAPS  O13A 8951   2.657   3.802   6.104 -0.0904  0.3616  0.3308
   92SAPS  O13B 8952   2.842   3.832   6.204  0.3138 -0.9561  0.1188
   92SAPS   C11 8953   2.721   3.782   6.446  0.7833 -0.2167 -0.1470
   92SAPS  H11A 8954   2.700   3.891   6.449  3.4270  0.3588 -0.9565
   92SAPS  H11B 8955   2.832   3.771   6.449  0.7920  0.0185  0.7435
   92SAPS     P 8956   2.612   3.795   6.692  0.2696  0.1554 -0.0460
   92SAPS   O13 8957   2.505   3.879   6.640 -0.6066  0.0983  0.4014
   92SAPS   O14 8958   2.593   3.703   6.806  0.0927  0.2798 -0.0587
   92SAPS   O12 8959   2.671   3.718   6.560  0.0852  0.2880 -0.0430
   92SAPS   O11 8960   2.721   3.898   6.726 -0.2325  0.3163 -0.0870
   92SAPS    C1 8961   2.864   3.869   6.732  0.2534 -0.0096 -1.0502
   92SAPS    HA 8962   2.888   3.800   6.649 -0.5415 -1.2588 -0.2460
   92SAPS    HB 8963   2.928   3.959   6.719  1.3515 -0.8347 -1.4554
   92SAPS    C2 8964   2.910   3.788   6.864 -0.6762  0.5699  0.3330
   92SAPS    HS 8965   2.865   3.687   6.852 -0.4060  0.6020 -1.1109
   92SAPS   O21 8966   2.863   3.852   6.979 -0.2846 -0.4185 -0.4076
   92SAPS   C21 8967   2.829   3.770   7.083 -0.3609  0.1867 -0.3432
   92SAPS   O22 8968   2.837   3.647   7.079  0.3550 -0.2044 -0.2336
   92SAPS   C22 8969   2.764   3.840   7.194  0.7761  0.1376 -0.0980
   92SAPS   H2R 8970   2.778   3.951   7.198 -3.3496  0.6673  1.3054
   92SAPS   H2S 8971   2.658   3.844   7.162  0.7458  0.2767  0.0168
   92SAPS    C3 8972   3.061   3.779   6.851 -0.5296 -0.4085  0.2775
   92SAPS    HX 8973   3.089   3.884   6.875  0.1304 -0.3635 -0.6876
   92SAPS    HY 8974   3.093   3.773   6.745 -1.4566  0.1281 -0.0377
   92SAPS   O31 8975   3.115   3.688   6.945 -0.5143 -0.4165  0.1678
   92SAPS   C31 8976   3.129   3.569   6.900 -0.8807 -0.5120 -0.0501
   92SAPS   O32 8977   3.117   3.537   6.785 -0.1103  0.0933  0.2768
   92SAPS   C32 8978   3.173   3.458   7.002 -0.2077 -0.1489  0.1535
   92SAPS   H2X 8979   3.259   3.412   6.949  0.6122 -0.7232  1.9412
   92SAPS   H2Y 8980   3.091   3.387   7.025 -1.6386  2.4114  3.2097
   92SAPS   C23 8981   2.786   3.764   7.324  0.4116 -0.3104  0.4756
   92SAPS   H3R 8982   2.881   3.799   7.370  0.3217 -1.1290  1.3151
   92SAPS   H3S 8983   2.800   3.654   7.315 -1.0430 -0.5077  0.6305
   92SAPS   C24 8984   2.668   3.781   7.420 -0.9064 -0.1108 -0.6829
   92SAPS   H4R 8985   2.583   3.723   7.378 -1.0714 -1.1299  0.9937
   92SAPS   H4S 8986   2.645   3.888   7.438  2.3515  0.3936  0.9811
   92SAPS   C25 8987   2.700   3.713   7.545  0.0923  0.6251 -0.3401
   92SAPS   H5R 8988   2.764   3.762   7.620 -0.7667  0.2781  0.6187
   92SAPS   C26 8989   2.673   3.584   7.578  0.4633  0.7686  0.5388
   92SAPS   H6R 8990   2.703   3.534   7.672 -0.7892 -0.4760  0.2919
   92SAPS   C27 8991   2.597   3.480   7.490 -0.5753  0.0423  0.1397
   92SAPS   H7R 8992   2.504   3.532   7.458 -0.8065 -0.7122 -0.4147
   92SAPS   H7S 8993   2.553   3.408   7.562 -2.0052  0.1308 -0.6506
   92SAPS   C28 8994   2.656   3.413   7.373  0.5452 -0.5294 -0.1566
   92SAPS   H8R 8995   2.597   3.437   7.283 -2.0048 -1.4207  1.2136
   92SAPS   C29 8996   2.771   3.344   7.364 -0.1944  0.2066 -0.0473
   92SAPS   H9R 8997   2.806   3.304   7.267 -0.6382 -0.4916  0.0679
   92SAPS  C210 8998   2.865   3.309   7.483  0.0600 -0.6753  0.8245
   92SAPS  H10R 8999   2.896   3.395   7.546  0.4187  0.0102 -0.2589
   92SAPS  H10S 9000   2.959   3.274   7.433  1.2495  1.0215  1.8071
   92SAPS  C211 9001   2.811   3.193   7.563 -0.3836 -0.3677 -0.6775
   92SAPS  H11R 9002   2.782   3.107   7.502  0.8033 -0.5199 -1.0409
   92SAPS  C212 9003   2.800   3.176   7.696  0.2318 -0.6675  0.2958
   92SAPS  H12R 9004   2.745   3.087   7.730  1.7667 -2.1212 -0.9376
   92SAPS  C213 9005   2.862   3.275   7.795 -0.6498  0.0101 -0.7463
   92SAPS  H13R 9006   2.812   3.374   7.786 -0.5871 -0.0488 -1.7749
   92SAPS  H13S 9007   2.967   3.290   7.762 -1.4112  2.9842 -1.9895
   92SAPS  C214 9008   2.851   3.221   7.938  0.4721 -0.2996  0.6082
   92SAPS  H14R 9009   2.757   3.246   7.988  0.1475  0.5384 -0.4053
   92SAPS  C215 9010   2.941   3.147   7.998  0.2138  0.1097 -0.2116
   92SAPS  H15R 9011   2.919   3.106   8.097  2.1843  1.3045  0.7552
   92SAPS  C216 9012   3.061   3.084   7.929 -0.2923 -0.6966 -0.0682
   92SAPS  H16R 9013   3.163   3.113   7.962  0.0007 -0.5829 -1.0402
   92SAPS  H16S 9014   3.056   3.101   7.819 -0.3528 -1.4951 -0.1927
   92SAPS  C217 9015   3.063   2.932   7.939  0.3769 -0.0567 -0.5392
   92SAPS  H17R 9016   3.154   2.896   7.887  1.1400 -0.2890  0.9153
   92SAPS  H17S 9017   2.973   2.882   7.898  0.4948 -1.0016  0.3067
   92SAPS  C218 9018   3.081   2.878   8.080  0.1727 -0.2969  0.2107
   92SAPS  H18R 9019   2.982   2.890   8.129  0.0210  2.8929 -0.7553
   92SAPS  H18S 9020   3.149   2.949   8.131  1.7600 -0.1684 -2.0231
   92SAPS  C219 9021   3.133   2.729   8.082 -0.2693 -0.3833 -0.1083
   92SAPS  H19R 9022   3.193   2.699   7.994  0.4521  0.6591  0.0275
   92SAPS  H19S 9023   3.042   2.668   8.065 -0.6084  0.0434  0.1625
   92SAPS  C220 9024   3.204   2.680   8.208  0.2118 -0.1863 -0.0703
   92SAPS  H20R 9025   3.308   2.720   8.209  0.0224  0.3095  0.3122
   92SAPS  H20S 9026   3.220   2.570   8.207 -0.1342 -0.2385 -0.0750
   92SAPS  H20T 9027   3.159   2.713   8.304  0.0946  0.1824 -0.2504
   92SAPS   C33 9028   3.237   3.501   7.136  0.7140  0.2608  0.0120
   92SAPS   H3X 9029   3.263   3.609   7.146 -0.0488  0.3559  1.0795
   92SAPS   H3Y 9030   3.337   3.453   7.134  0.6344  0.0309  1.0206
   92SAPS   C34 9031   3.167   3.455   7.261  0.0761 -0.7239 -1.3990
   92SAPS   H4X 9032   3.142   3.347   7.257  0.2386 -0.8949  1.5936
   92SAPS   H4Y 9033   3.071   3.511   7.274  0.6728 -0.0025 -0.0656
   92SAPS   C35 9034   3.248   3.494   7.387  0.0662  0.4939  0.4717
   92SAPS   H5X 9035   3.274   3.602   7.381 -3.6505  1.4538  0.4920
   92SAPS   H5Y 9036   3.348   3.448   7.377 -0.3538 -0.3745  0.2187
   92SAPS   C36 9037   3.190   3.453   7.520 -0.3066  0.1655 -0.2591
   92SAPS   H6X 9038   3.147   3.351   7.527 -0.7372  0.4762  2.0329
   92SAPS   H6Y 9039   3.110   3.527   7.538 -0.4917  0.9938 -4.0913
   92SAPS   C37 9040   3.293   3.461   7.632 -0.2324  0.3806  0.0035
   92SAPS   H7X 9041   3.325   3.566   7.649 -1.4515  1.1382 -2.1349
   92SAPS   H7Y 9042   3.380   3.393   7.618 -0.2843 -0.1772  2.2179
   92SAPS   C38 9043   3.238   3.422   7.770  0.8866 -0.6898 -0.4836
   92SAPS   H8X 9044   3.199   3.320   7.751 -0.6023 -0.2919  0.3671
   92SAPS   H8Y 9045   3.149   3.486   7.789  1.6972  0.4796 -0.6113
   92SAPS   C39 9046   3.343   3.416   7.877  0.2052  0.3333 -0.1899
   92SAPS   H9X 9047   3.408   3.326   7.872  0.5503  0.4997  1.0962
   92SAPS   H9Y 9048   3.292   3.403   7.975 -1.6698 -0.6645 -1.2704
   92SAPS  C310 9049   3.437   3.537   7.869 -1.4782  0.8792 -0.3765
   92SAPS  H10X 9050   3.373   3.628   7.865  0.0386  2.0512  1.4102
   92SAPS  H10Y 9051   3.498   3.528   7.777  2.6813 -1.6272  2.4689
   92SAPS  C311 9052   3.548   3.553   7.975  0.2631 -0.1271  0.0310
   92SAPS  H11X 9053   3.614   3.637   7.944  0.4499 -0.3785 -0.2714
   92SAPS  H11Y 9054   3.601   3.457   7.994  2.2739  0.9501  0.0338
   92SAPS  C312 9055   3.484   3.568   8.110  0.5449  0.6877  0.0238
   92SAPS  H12X 9056   3.444   3.467   8.130 -2.8537  2.1209  0.8250
   92SAPS  H12Y 9057   3.405   3.646   8.118  0.2396  0.3860 -0.0624
   92SAPS  C313 9058   3.586   3.589   8.221 -0.6385 -0.9218 -0.3565
   92SAPS  H13X 9059   3.645   3.679   8.196 -1.2661 -0.0402  1.2835
   92SAPS  H13Y 9060   3.652   3.500   8.222  1.0350  0.3005 -0.6693
   92SAPS  C314 9061   3.539   3.615   8.367 -0.1343  0.2151 -0.1826
   92SAPS  H14X 9062   3.485   3.526   8.405 -1.1486  0.3293 -1.3048
   92SAPS  H14Y 9063   3.461   3.694   8.367 -0.0763  0.3247 -2.8065
   92SAPS  C315 9064   3.661   3.647   8.451 -0.4567 -0.0976  0.5099
   92SAPS  H15X 9065   3.679   3.757   8.457 -1.0164  0.0135  0.1944
   92SAPS  H15Y 9066   3.753   3.613   8.399 -1.0091  2.0087 -1.9660
   92SAPS  C316 9067   3.658   3.596   8.588  0.7697 -0.1770  0.0595
   92SAPS  H16X 9068   3.663   3.485   8.583  0.5265 -0.1445 -0.9927
   92SAPS  H16Y 9069   3.563   3.617   8.642  1.0522 -1.6301  1.1618
   92SAPS  C317 9070   3.767   3.662   8.670 -0.6522  0.2853 -0.0383
   92SAPS  H17X 9071   3.732   3.685   8.773  1.6249  2.2331  0.3181
   92SAPS  H17Y 9072   3.790   3.765   8.636 -0.4691 -0.4662 -2.2896
   92SAPS  C318 9073   3.894   3.580   8.677 -0.0736  0.2937 -0.4455
   92SAPS  H18X 9074   3.938   3.574   8.575  1.2850 -0.3149  0.1755
   92SAPS  H18Y 9075   3.867   3.476   8.704 -1.0177  0.5761 -0.2852
   92SAPS  H18Z 9076   3.958   3.616   8.760  0.4610  3.0193 -1.9802
   93SAPS     N 9077   3.621   3.621   6.537  0.2865 -0.3193  0.7034
   93SAPS   HN1 9078   3.552   3.658   6.468  1.3345  2.5794  1.1546
   93SAPS   HN2 9079   3.584   3.554   6.608 -3.6958  2.2046  1.2115
   93SAPS   HN3 9080   3.661   3.705   6.583 -0.6369  1.7304 -2.0668
   93SAPS   C12 9081   3.735   3.562   6.462 -0.0176 -0.3930 -0.3664
   93SAPS  H12A 9082   3.702   3.477   6.403 -0.5886  0.7392 -1.7129
   93SAPS   C13 9083   3.821   3.650   6.367  0.1015  0.7443 -0.5586
   93SAPS  O13A 9084   3.828   3.775   6.385  0.1440 -0.1006  0.0236
   93SAPS  O13B 9085   3.912   3.591   6.298  0.3383 -0.0589 -0.5032
   93SAPS   C11 9086   3.828   3.498   6.567 -0.4755 -0.7585 -0.3171
   93SAPS  H11A 9087   3.879   3.571   6.633 -0.1783 -0.7530 -0.5575
   93SAPS  H11B 9088   3.914   3.450   6.516  0.4020  0.7677 -0.2991
   93SAPS     P 9089   3.736   3.249   6.596 -0.0184  0.0568  0.1480
   93SAPS   O13 9090   3.591   3.218   6.574 -0.0355 -0.4564  0.4034
   93SAPS   O14 9091   3.828   3.226   6.481  0.1537  0.7600  0.0806
   93SAPS   O12 9092   3.752   3.404   6.645 -0.0207  0.2719  0.5384
   93SAPS   O11 9093   3.784   3.155   6.711 -1.0593 -0.2969 -0.5942
   93SAPS    C1 9094   3.765   3.177   6.846  0.1844  0.1874 -0.6606
   93SAPS    HA 9095   3.680   3.248   6.857 -0.5457 -0.7689  0.0148
   93SAPS    HB 9096   3.726   3.086   6.898 -0.3427  2.0414  2.2982
   93SAPS    C2 9097   3.893   3.223   6.926 -0.1267 -0.4596  0.2429
   93SAPS    HS 9098   3.875   3.201   7.033  0.4287  1.8871  0.8424
   93SAPS   O21 9099   3.931   3.361   6.910  0.7831 -0.1714  0.8169
   93SAPS   C21 9100   3.846   3.451   6.952 -0.2142  0.1713  0.6935
   93SAPS   O22 9101   3.738   3.433   7.010 -0.2712 -0.1976 -0.1841
   93SAPS   C22 9102   3.898   3.587   6.913 -0.2358 -0.2191  0.1533
   93SAPS   H2R 9103   3.988   3.593   6.849  0.1270 -0.4249  0.6388
   93SAPS   H2S 9104   3.805   3.625   6.865 -1.9181 -1.7964  2.0809
   93SAPS    C3 9105   4.007   3.132   6.870  0.2308 -0.2778  0.3251
   93SAPS    HX 9106   4.021   3.152   6.762 -0.5931 -0.9091  0.0987
   93SAPS    HY 9107   3.982   3.024   6.884  2.4586 -0.8476  0.2458
   93SAPS   O31 9108   4.129   3.154   6.939 -0.2822  0.1620  0.0524
   93SAPS   C31 9109   4.207   3.250   6.889 -0.2378 -0.6650  0.3844
   93SAPS   O32 9110   4.198   3.295   6.774  0.3827 -0.2258  0.1140
   93SAPS   C32 9111   4.323   3.295   6.979  0.9959 -0.2470 -0.3799
   93SAPS   H2X 9112   4.351   3.397   6.945  0.5074  0.5719  1.5588
   93SAPS   H2Y 9113   4.406   3.221   6.965  1.6319 -0.3529  3.3697
   93SAPS   C23 9114   3.932   3.667   7.040 -0.7013  0.0486 -0.3600
   93SAPS   H3R 9115   4.031   3.637   7.080 -0.3845 -1.3157 -2.1276
   93SAPS   H3S 9116   3.858   3.647   7.121 -0.2311 -0.9199 -0.1750
   93SAPS   C24 9117   3.919   3.819   7.030  0.2715 -0.3639  0.1098
   93SAPS   H4R 9118   3.925   3.857   7.134 -1.7235 -0.9509  0.4591
   93SAPS   H4S 9119   3.820   3.838   6.984 -0.0291 -0.1140  0.8411
   93SAPS   C25 9120   4.014   3.893   6.941  0.2292 -0.4550  0.1732
   93SAPS   H5R 9121   4.011   3.856   6.837  0.2452  1.2900 -0.4641
   93SAPS   C26 9122   4.104   3.995   6.968  0.0207 -0.2550 -0.2246
   93SAPS   H6R 9123   4.158   4.048   6.889  0.2771  1.2493  0.9200
   93SAPS   C27 9124   4.112   4.068   7.099  0.7478  1.1449  0.3581
   93SAPS   H7R 9125   4.184   4.004   7.153  0.5095  1.2532  0.8049
   93SAPS   H7S 9126   4.011   4.054   7.143  0.8636  1.5550  0.7515
   93SAPS   C28 9127   4.162   4.212   7.093  0.5371  0.0931  0.5205
   93SAPS   H8R 9128   4.109   4.282   7.027  1.2024  0.3247  0.2243
   93SAPS   C29 9129   4.268   4.262   7.162 -0.4871  0.4343 -0.1945
   93SAPS   H9R 9130   4.278   4.371   7.147 -4.3795  1.0868  1.2477
   93SAPS  C210 9131   4.356   4.194   7.261  0.5550 -0.6055 -0.6574
   93SAPS  H10R 9132   4.454   4.245   7.260 -0.2184  0.8836 -1.0803
   93SAPS  H10S 9133   4.383   4.094   7.221  0.4995 -1.1191  0.5454
   93SAPS  C211 9134   4.295   4.180   7.403 -0.5610 -0.1691  0.7508
   93SAPS  H11R 9135   4.198   4.129   7.411 -0.6363  0.0086  0.9780
   93SAPS  C212 9136   4.336   4.244   7.514 -0.4026  0.5147  0.1668
   93SAPS  H12R 9137   4.284   4.238   7.610 -0.7582  1.0345  0.0132
   93SAPS  C213 9138   4.456   4.341   7.547 -0.3424 -0.2549  0.2731
   93SAPS  H13R 9139   4.496   4.371   7.448  2.5389 -1.7153  0.9420
   93SAPS  H13S 9140   4.529   4.282   7.607 -2.4975 -2.4217  0.8593
   93SAPS  C214 9141   4.405   4.456   7.637 -0.3433  0.5104 -0.0668
   93SAPS  H14R 9142   4.301   4.487   7.622 -0.2904  1.0496  0.6284
   93SAPS  C215 9143   4.470   4.494   7.748 -0.4404 -0.0819 -0.7184
   93SAPS  H15R 9144   4.429   4.581   7.801 -0.7511 -0.9310  0.4738
   93SAPS  C216 9145   4.606   4.440   7.793  0.1550 -0.2907 -0.2718
   93SAPS  H16R 9146   4.668   4.438   7.700  0.1418 -0.4561 -0.2762
   93SAPS  H16S 9147   4.598   4.330   7.807 -0.0811 -0.7073 -3.2711
   93SAPS  C217 9148   4.672   4.505   7.915  0.3689 -0.5024 -0.0594
   93SAPS  H17R 9149   4.658   4.615   7.905 -0.2693 -0.4699  1.0966
   93SAPS  H17S 9150   4.783   4.507   7.920  0.3680 -2.3061  1.0471
   93SAPS  C218 9151   4.628   4.442   8.043 -0.2816 -0.3227  0.1783
   93SAPS  H18R 9152   4.683   4.347   8.057  3.7731  2.0885  1.4727
   93SAPS  H18S 9153   4.519   4.417   8.045 -0.6894  1.3968  0.3395
   93SAPS  C219 9154   4.652   4.543   8.157 -0.0867  0.0642 -0.4917
   93SAPS  H19R 9155   4.603   4.632   8.112 -1.3186 -2.1272 -3.5780
   93SAPS  H19S 9156   4.760   4.569   8.159 -0.6622  2.4893  1.6418
   93SAPS  C220 9157   4.587   4.505   8.284  0.9485 -0.0546  0.3627
   93SAPS  H20R 9158   4.479   4.533   8.280  0.9686 -0.2545 -3.3374
   93SAPS  H20S 9159   4.629   4.553   8.375 -2.3851 -1.2444  2.5972
   93SAPS  H20T 9160   4.587   4.395   8.299  1.4839  0.2088  2.4132
   93SAPS   C33 9161   4.293   3.305   7.126  0.2767 -0.2052 -0.0883
   93SAPS   H3X 9162   4.386   3.344   7.173  1.1142 -0.2472 -1.6686
   93SAPS   H3Y 9163   4.272   3.201   7.159 -0.0927 -0.7879 -2.1072
   93SAPS   C34 9164   4.182   3.407   7.143  0.5334 -0.4716  0.4413
   93SAPS   H4X 9165   4.086   3.353   7.147 -0.4677  1.1746 -0.4741
   93SAPS   H4Y 9166   4.187   3.468   7.050  0.6438  0.1232  0.8360
   93SAPS   C35 9167   4.205   3.482   7.278 -0.0854  0.0309 -0.1249
   93SAPS   H5X 9168   4.266   3.421   7.347  1.7554  1.7786 -0.1568
   93SAPS   H5Y 9169   4.103   3.500   7.320 -1.8994  0.2527 -4.3397
   93SAPS   C36 9170   4.278   3.616   7.271  0.6023  0.1388  0.5501
   93SAPS   H6X 9171   4.214   3.689   7.217 -1.8639 -2.6682 -0.4505
   93SAPS   H6Y 9172   4.373   3.608   7.213  0.0771  1.6748 -0.5649
   93SAPS   C37 9173   4.318   3.671   7.409 -0.1040 -0.0872 -0.1391
   93SAPS   H7X 9174   4.394   3.604   7.456  0.9370  0.3830 -1.1274
   93SAPS   H7Y 9175   4.226   3.665   7.471 -0.2991 -2.3818 -0.5938
   93SAPS   C38 9176   4.382   3.804   7.414  0.5800 -0.3974  0.8149
   93SAPS   H8X 9177   4.318   3.885   7.373 -0.0053 -1.3116 -0.0923
   93SAPS   H8Y 9178   4.465   3.794   7.341  0.1124  0.9748  0.0809
   93SAPS   C39 9179   4.433   3.853   7.551 -0.2670  0.3075  0.3612
   93SAPS   H9X 9180   4.493   3.942   7.522  0.6848 -0.0933  1.0709
   93SAPS   H9Y 9181   4.506   3.783   7.597  0.0718  0.3232 -0.1503
   93SAPS  C310 9182   4.310   3.891   7.635  0.1646 -0.1569  0.6870
   93SAPS  H10X 9183   4.251   3.797   7.646 -0.0891 -0.2683 -1.3731
   93SAPS  H10Y 9184   4.249   3.967   7.583 -0.4755 -0.1882  1.3793
   93SAPS  C311 9185   4.343   3.938   7.779 -0.1391 -0.2191 -0.3605
   93SAPS  H11X 9186   4.341   3.862   7.860 -2.2633  1.5217  1.2876
   93SAPS  H11Y 9187   4.266   4.012   7.809 -0.3366 -0.6458  0.1920
   93SAPS  C312 9188   4.482   4.007   7.797  0.3601 -0.1782  0.0055
   93SAPS  H12X 9189   4.496   4.087   7.721 -0.1245 -0.7106 -0.6509
   93SAPS  H12Y 9190   4.558   3.926   7.788 -0.2107 -1.1710  3.3845
   93SAPS  C313 9191   4.478   4.079   7.935 -0.1389  0.0695 -0.5886
   93SAPS  H13X 9192   4.392   4.138   7.973  0.2784  0.6693 -0.5685
   93SAPS  H13Y 9193   4.555   4.159   7.939 -1.3192  1.2915 -1.6738
   93SAPS  C314 9194   4.502   3.965   8.045  0.2372 -0.4213 -0.0768
   93SAPS  H14X 9195   4.598   3.917   8.016 -0.1889 -0.4011 -1.5555
   93SAPS  H14Y 9196   4.426   3.884   8.052  0.1854 -0.3901 -0.2879
   93SAPS  C315 9197   4.502   4.031   8.179  0.1284 -0.6025  0.0392
   93SAPS  H15X 9198   4.421   4.107   8.183 -1.5125 -2.3297  0.1981
   93SAPS  H15Y 9199   4.590   4.100   8.184  0.4309 -0.8854 -1.1582
   93SAPS  C316 9200   4.502   3.920   8.287  0.5760 -0.5748  0.3296
   93SAPS  H16X 9201   4.580   3.842   8.278 -0.7939 -1.9619  0.4101
   93SAPS  H16Y 9202   4.401   3.875   8.290  0.1119  0.4714  0.9940
   93SAPS  C317 9203   4.515   3.974   8.429 -0.2763  0.3719 -0.3266
   93SAPS  H17X 9204   4.424   4.036   8.445  0.3856  1.1899  0.3051
   93SAPS  H17Y 9205   4.601   4.043   8.445 -1.5525  1.4443  2.3404
   93SAPS  C318 9206   4.530   3.866   8.542 -0.5189 -0.7034 -0.5659
   93SAPS  H18X 9207   4.620   3.802   8.531 -1.4668 -1.6524 -3.3910
   93SAPS  H18Y 9208   4.443   3.797   8.535 -0.2969 -1.1939  1.3800
   93SAPS  H18Z 9209   4.521   3.908   8.644 -1.2700  1.2557 -1.4197
   94SAPS     N 9210   4.239   0.219   5.909  0.5067  0.9130 -0.0697
   94SAPS   HN1 9211   4.215   0.291   5.981  2.3140 -0.4550  1.9540
   94SAPS   HN2 9212   4.218   0.126   5.950 -1.5133  0.8135 -1.2737
   94SAPS   HN3 9213   4.342   0.224   5.892  0.5209 -2.0234 -0.9965
   94SAPS   C12 9214   4.169   0.226   5.778 -0.1283  0.2391  0.3996
   94SAPS  H12A 9215   4.180   0.328   5.745 -2.8800  0.3257 -0.3464
   94SAPS   C13 9216   4.226   0.141   5.663  0.1499 -0.2634 -0.2621
   94SAPS  O13A 9217   4.339   0.086   5.676 -0.0207  0.3806  0.4790
   94SAPS  O13B 9218   4.162   0.122   5.558  0.3625 -0.6504  0.0520
   94SAPS   C11 9219   4.022   0.172   5.810  0.8020  0.6801 -0.1091
   94SAPS  H11A 9220   4.040   0.068   5.844 -0.6081  0.4466 -0.0703
   94SAPS  H11B 9221   3.966   0.160   5.715  3.2718  0.9825 -1.6372
   94SAPS     P 9222   3.789   0.263   5.908 -0.0294  0.0646 -0.0730
   94SAPS   O13 9223   3.744   0.323   6.032 -0.3325 -0.2437  0.3605
   94SAPS   O14 9224   3.730   0.314   5.777 -0.0872  0.1217 -0.7595
   94SAPS   O12 9225   3.956   0.259   5.902  0.1332 -0.2858  0.1327
   94SAPS   O11 9226   3.758   0.105   5.920  0.0534 -0.1172 -0.2145
   94SAPS    C1 9227   3.818   0.030   6.030  0.0456  0.0583  0.4467
   94SAPS    HA 9228   3.831  -0.073   5.989 -0.9727  0.4612 -0.9170
   94SAPS    HB 9229   3.915   0.071   6.064 -0.5600  0.8240  1.2546
   94SAPS    C2 9230   3.731   0.020   6.151  0.6040 -1.1593  0.3938
   94SAPS    HS 9231   3.712   0.121   6.193 -0.6469 -0.7593 -1.0611
   94SAPS   O21 9232   3.795  -0.076   6.245 -0.1144 -0.4460  0.2724
   94SAPS   C21 9233   3.890  -0.016   6.318 -1.2126 -0.0059  0.4096
   94SAPS   O22 9234   3.907   0.104   6.312 -0.5585 -0.1550 -0.0405
   94SAPS   C22 9235   3.972  -0.114   6.391 -0.0294 -0.0149 -0.1478
   94SAPS   H2R 9236   3.965  -0.213   6.341 -2.0062  0.9812 -1.9226
   94SAPS   H2S 9237   4.075  -0.074   6.385  0.5053 -1.4379 -0.4340
   94SAPS    C3 9238   3.584  -0.038   6.118 -0.5459 -0.6498  0.0744
   94SAPS    HX 9239   3.602  -0.128   6.056  1.5145 -0.1096 -0.1308
   94SAPS    HY 9240   3.541   0.035   6.047  0.7241  2.3694  2.2778
   94SAPS   O31 9241   3.496  -0.057   6.240  0.1158  0.8331  0.1747
   94SAPS   C31 9242   3.498  -0.182   6.287 -0.0465 -0.5393 -0.2600
   94SAPS   O32 9243   3.563  -0.279   6.244 -0.1560 -0.9055 -0.3283
   94SAPS   C32 9244   3.441  -0.168   6.424  0.6867  0.6648  0.1916
   94SAPS   H2X 9245   3.333  -0.196   6.421  0.8950  0.0042 -1.3356
   94SAPS   H2Y 9246   3.441  -0.061   6.455  0.0734  0.2985  1.4905
   94SAPS   C23 9247   3.934  -0.133   6.540 -0.6918  0.3503 -0.0401
   94SAPS   H3R 9248   3.824  -0.150   6.546 -0.4285 -0.7391  2.4585
   94SAPS   H3S 9249   3.956  -0.042   6.601 -1.4952  1.9185 -2.0084
   94SAPS   C24 9250   3.990  -0.263   6.604 -0.5058 -0.5690  0.3574
   94SAPS   H4R 9251   3.968  -0.351   6.540 -0.3224  1.0923 -2.0453
   94SAPS   H4S 9252   3.940  -0.282   6.702 -0.4755  1.7387  0.8404
   94SAPS   C25 9253   4.137  -0.254   6.639 -0.1603 -0.9215  0.6229
   94SAPS   H5R 9254   4.201  -0.286   6.555  0.5209 -0.6932  1.0534
   94SAPS   C26 9255   4.197  -0.209   6.748  1.0682 -0.3932  0.1838
   94SAPS   H6R 9256   4.307  -0.214   6.756  1.0000 -0.9470  0.8548
   94SAPS   C27 9257   4.129  -0.149   6.867 -0.2536 -0.2094 -0.1377
   94SAPS   H7R 9258   4.107  -0.228   6.942  0.7239 -0.0816  0.2910
   94SAPS   H7S 9259   4.022  -0.121   6.855 -0.3636 -1.0429 -1.2625
   94SAPS   C28 9260   4.216  -0.039   6.925 -0.1026  0.5596  0.3177
   94SAPS   H8R 9261   4.224   0.055   6.870  1.1445 -0.2778 -0.9519
   94SAPS   C29 9262   4.273  -0.042   7.048  0.3186  0.6634 -0.6363
   94SAPS   H9R 9263   4.317   0.047   7.096 -2.3140  1.5790  0.1895
   94SAPS  C210 9264   4.271  -0.162   7.146 -0.0321  0.3779 -0.3874
   94SAPS  H10R 9265   4.374  -0.185   7.179  0.6349 -0.6749 -3.0451
   94SAPS  H10S 9266   4.242  -0.256   7.095 -0.2540  0.6241 -0.7194
   94SAPS  C211 9267   4.179  -0.139   7.255  0.4140  0.3546 -0.2199
   94SAPS  H11R 9268   4.086  -0.088   7.229 -0.2132  0.6114  2.3944
   94SAPS  C212 9269   4.194  -0.160   7.385  0.7426  0.9341 -0.3531
   94SAPS  H12R 9270   4.104  -0.141   7.444  1.8219 -1.2991  2.1046
   94SAPS  C213 9271   4.309  -0.228   7.462  0.0712 -0.2863 -0.3214
   94SAPS  H13R 9272   4.365  -0.301   7.400  1.8560 -1.6600  2.7960
   94SAPS  H13S 9273   4.257  -0.277   7.547 -2.5272  1.0175 -1.1206
   94SAPS  C214 9274   4.423  -0.121   7.499 -0.1452  0.4067 -0.1756
   94SAPS  H14R 9275   4.457  -0.057   7.416  2.3508  1.4539  1.6173
   94SAPS  C215 9276   4.451  -0.094   7.627  0.5182  0.1530  0.0434
   94SAPS  H15R 9277   4.521  -0.011   7.643 -1.4829  1.8543  0.2689
   94SAPS  C216 9278   4.407  -0.164   7.750  0.1733 -0.3493  0.5688
   94SAPS  H16R 9279   4.328  -0.240   7.729 -0.0444  0.1576 -0.4422
   94SAPS  H16S 9280   4.365  -0.091   7.823  0.4850  1.5992 -1.1509
   94SAPS  C217 9281   4.529  -0.237   7.807  0.0068  0.2209 -0.2873
   94SAPS  H17R 9282   4.596  -0.160   7.850 -2.5215  1.8020  0.9086
   94SAPS  H17S 9283   4.585  -0.298   7.733 -0.7526  0.8260 -1.3676
   94SAPS  C218 9284   4.481  -0.336   7.919  0.5045  0.1263  0.1522
   94SAPS  H18R 9285   4.417  -0.413   7.871  2.5596 -0.5219 -1.6459
   94SAPS  H18S 9286   4.417  -0.280   7.991 -0.8055 -0.7972 -0.2728
   94SAPS  C219 9287   4.598  -0.388   8.008  0.4858  0.0702 -0.2642
   94SAPS  H19R 9288   4.694  -0.359   7.960 -0.1792  1.5532 -0.7140
   94SAPS  H19S 9289   4.599  -0.499   8.004 -1.9676 -0.0112  0.6194
   94SAPS  C220 9290   4.579  -0.339   8.156  0.0645 -0.2781  0.5488
   94SAPS  H20R 9291   4.480  -0.333   8.205 -1.4037 -0.8361 -2.2518
   94SAPS  H20S 9292   4.610  -0.233   8.156  0.4939 -0.3725 -1.2563
   94SAPS  H20T 9293   4.641  -0.393   8.231  2.0934  1.1025 -0.0817
   94SAPS   C33 9294   3.517  -0.255   6.522 -0.7230 -0.4337  0.1305
   94SAPS   H3X 9295   3.627  -0.244   6.509 -0.8437 -1.4443 -2.0792
   94SAPS   H3Y 9296   3.503  -0.364   6.505 -0.1148  0.0372 -3.9451
   94SAPS   C34 9297   3.491  -0.226   6.662 -0.1380  0.5123 -0.1089
   94SAPS   H4X 9298   3.452  -0.123   6.678 -0.4034  0.0603  2.3065
   94SAPS   H4Y 9299   3.586  -0.244   6.718 -0.4828 -0.2710  0.2211
   94SAPS   C35 9300   3.376  -0.309   6.718  0.5925 -0.4178 -0.0767
   94SAPS   H5X 9301   3.390  -0.408   6.669  2.5699  0.4072 -1.2450
   94SAPS   H5Y 9302   3.282  -0.261   6.684  0.1480 -0.1942  1.4518
   94SAPS   C36 9303   3.372  -0.317   6.876 -0.9670 -0.6244  0.1062
   94SAPS   H6X 9304   3.438  -0.406   6.889 -0.3909 -0.1389  0.5337
   94SAPS   H6Y 9305   3.269  -0.332   6.913 -2.9064  4.3116 -2.8444
   94SAPS   C37 9306   3.432  -0.194   6.952 -0.5602 -0.6111 -0.5521
   94SAPS   H7X 9307   3.393  -0.097   6.914 -1.4899 -0.5260  0.5688
   94SAPS   H7Y 9308   3.542  -0.186   6.939 -0.7856  1.0269 -1.5307
   94SAPS   C38 9309   3.401  -0.200   7.100 -0.2624 -0.5549 -0.4922
   94SAPS   H8X 9310   3.290  -0.189   7.103 -0.0115  2.0922  0.1335
   94SAPS   H8Y 9311   3.454  -0.119   7.154 -2.0699 -0.6873  1.5481
   94SAPS   C39 9312   3.437  -0.330   7.170 -0.4479  0.4044  0.3427
   94SAPS   H9X 9313   3.544  -0.348   7.146 -0.6168 -1.1687  0.7245
   94SAPS   H9Y 9314   3.383  -0.413   7.119  1.9211 -0.4641 -0.8057
   94SAPS  C310 9315   3.421  -0.335   7.320  0.1333 -0.3814 -0.5736
   94SAPS  H10X 9316   3.315  -0.346   7.351  0.0421 -0.2944 -0.8539
   94SAPS  H10Y 9317   3.456  -0.236   7.356 -3.1110  0.4941  0.3276
   94SAPS  C311 9318   3.505  -0.443   7.376 -0.6218  0.2387 -0.5556
   94SAPS  H11X 9319   3.602  -0.453   7.323  0.4127  0.0282  1.3537
   94SAPS  H11Y 9320   3.445  -0.537   7.375  0.2878 -0.3429 -0.7975
   94SAPS  C312 9321   3.533  -0.417   7.523 -0.0043  0.3430  0.1604
   94SAPS  H12X 9322   3.600  -0.329   7.532  0.6850  0.1580 -2.7412
   94SAPS  H12Y 9323   3.590  -0.503   7.565  0.1431  0.3878  0.0481
   94SAPS  C313 9324   3.410  -0.395   7.614  0.0808  0.3851 -0.2980
   94SAPS  H13X 9325   3.349  -0.486   7.603 -0.3799  0.6146  0.3422
   94SAPS  H13Y 9326   3.358  -0.306   7.572 -0.7269 -0.0985 -0.3200
   94SAPS  C314 9327   3.461  -0.378   7.757  0.3078  0.1691 -0.1889
   94SAPS  H14X 9328   3.514  -0.281   7.768  0.3973  0.5273 -3.4699
   94SAPS  H14Y 9329   3.537  -0.455   7.787 -1.1737 -0.8990  0.9131
   94SAPS  C315 9330   3.348  -0.381   7.864 -0.0758 -0.2875  0.0259
   94SAPS  H15X 9331   3.282  -0.467   7.841 -0.3685  0.3242 -1.4969
   94SAPS  H15Y 9332   3.294  -0.284   7.859 -1.8829 -1.2448  0.7065
   94SAPS  C316 9333   3.404  -0.394   8.008 -0.0853  0.2767 -0.1867
   94SAPS  H16X 9334   3.488  -0.322   8.016  0.8642 -1.0422  2.1808
   94SAPS  H16Y 9335   3.440  -0.498   8.020 -1.6874 -0.2500  0.1658
   94SAPS  C317 9336   3.293  -0.361   8.108  0.0853 -0.5484 -0.1898
   94SAPS  H17X 9337   3.210  -0.434   8.111 -0.7459  0.3434 -1.1867
   94SAPS  H17Y 9338   3.262  -0.257   8.083 -0.0387  0.0626  2.3002
   94SAPS  C318 9339   3.355  -0.351   8.250 -0.1176  0.4031  0.5452
   94SAPS  H18X 9340   3.270  -0.368   8.319 -0.3721  1.9347  0.6167
   94SAPS  H18Y 9341   3.388  -0.249   8.279  1.8123 -0.1877  0.5013
   94SAPS  H18Z 9342   3.435  -0.424   8.274 -1.6809 -1.0787  1.3544
   95SAPS     N 9343   0.725   3.735   6.189  0.2139  0.3483  0.5436
   95SAPS   HN1 9344   0.626   3.712   6.168  0.2194  1.6916 -1.1395
   95SAPS   HN2 9345   0.757   3.707   6.284 -1.6672 -1.6059  0.6329
   95SAPS   HN3 9346   0.738   3.838   6.182  0.8392  0.1910 -0.8493
   95SAPS   C12 9347   0.801   3.675   6.068 -0.9763 -0.1148  0.9053
   95SAPS  H12A 9348   0.822   3.571   6.089  2.9306  0.0200 -1.8443
   95SAPS   C13 9349   0.738   3.701   5.931  0.1541  0.2598  0.8504
   95SAPS  O13A 9350   0.640   3.769   5.919 -0.0556  0.0477  0.4363
   95SAPS  O13B 9351   0.807   3.661   5.829 -0.1784 -0.2288  0.1898
   95SAPS   C11 9352   0.936   3.761   6.053 -0.2283 -0.4276  0.1690
   95SAPS  H11A 9353   0.913   3.858   6.004 -0.3562 -0.7299 -0.3612
   95SAPS  H11B 9354   1.001   3.710   5.979  2.1534  1.5918  0.7918
   95SAPS     P 9355   1.112   3.887   6.189 -0.2509  0.0527  0.0379
   95SAPS   O13 9356   1.231   3.854   6.106  0.1098 -0.3219 -0.0880
   95SAPS   O14 9357   1.052   4.013   6.163  0.3108  0.0986  0.1541
   95SAPS   O12 9358   1.008   3.773   6.171 -0.1107  0.1952  0.0667
   95SAPS   O11 9359   1.143   3.879   6.344 -0.4000  0.3256  0.0962
   95SAPS    C1 9360   1.048   3.847   6.444  0.4951 -0.0179 -0.2586
   95SAPS    HA 9361   0.953   3.807   6.401  0.8846 -0.8881 -0.3108
   95SAPS    HB 9362   1.084   3.763   6.507 -0.3262 -0.1058  0.1076
   95SAPS    C2 9363   1.019   3.972   6.546  0.4542 -0.3034  0.6849
   95SAPS    HS 9364   1.059   4.060   6.491 -0.0763  0.6135  1.7191
   95SAPS   O21 9365   1.105   3.949   6.661  0.4230  0.1255 -0.0011
   95SAPS   C21 9366   1.148   4.062   6.715 -0.7152  0.5264 -0.1751
   95SAPS   O22 9367   1.132   4.175   6.676 -0.3042 -0.3352  0.4023
   95SAPS   C22 9368   1.228   4.020   6.840 -0.6275  0.2321  0.6697
   95SAPS   H2R 9369   1.167   3.955   6.907  0.1582 -1.2542 -0.0313
   95SAPS   H2S 9370   1.308   3.955   6.800  1.5002  2.9928  0.2744
   95SAPS    C3 9371   0.869   3.998   6.585  0.6178  0.0364  0.5431
   95SAPS    HX 9372   0.823   4.014   6.485  1.0264 -3.3000 -0.2405
   95SAPS    HY 9373   0.850   4.101   6.622  0.3848 -0.0364  0.6227
   95SAPS   O31 9374   0.813   3.894   6.671  0.0881 -0.3980  0.4388
   95SAPS   C31 9375   0.828   3.915   6.798 -0.5890 -0.0929 -0.5855
   95SAPS   O32 9376   0.880   4.015   6.853  0.7106 -0.0625  0.1825
   95SAPS   C32 9377   0.773   3.788   6.861 -0.0037 -0.3384  0.2712
   95SAPS   H2X 9378   0.847   3.707   6.843  1.4913  0.5675  2.1887
   95SAPS   H2Y 9379   0.681   3.766   6.803  0.2396  0.1201 -0.2943
   95SAPS   C23 9380   1.294   4.135   6.920  0.1752 -0.1776  0.1651
   95SAPS   H3R 9381   1.217   4.214   6.926 -0.4749 -0.6031 -2.2212
   95SAPS   H3S 9382   1.375   4.174   6.855 -0.0535  1.5514  0.8945
   95SAPS   C24 9383   1.329   4.087   7.056  0.2557 -0.2749 -0.1013
   95SAPS   H4R 9384   1.245   4.043   7.114  0.0624  0.0274 -0.1529
   95SAPS   H4S 9385   1.362   4.175   7.115  2.1586 -0.4181 -0.9088
   95SAPS   C25 9386   1.443   3.985   7.068 -0.2157 -0.2180  0.1068
   95SAPS   H5R 9387   1.461   3.926   6.977  0.0698 -0.8200  0.5529
   95SAPS   C26 9388   1.511   3.961   7.181  0.3785  0.4061 -0.3087
   95SAPS   H6R 9389   1.579   3.875   7.183 -0.4253 -0.2106  2.1223
   95SAPS   C27 9390   1.497   4.025   7.317 -0.3303  0.1575 -0.5805
   95SAPS   H7R 9391   1.486   4.135   7.306 -0.3366  0.0849 -1.2888
   95SAPS   H7S 9392   1.578   3.988   7.383 -0.2269  1.8775  0.2781
   95SAPS   C28 9393   1.376   3.972   7.392 -0.2328 -0.1231 -0.0626
   95SAPS   H8R 9394   1.299   3.929   7.327  0.1873 -0.4323 -0.3614
   95SAPS   C29 9395   1.336   4.002   7.520  0.1169  0.4350  0.0645
   95SAPS   H9R 9396   1.236   3.969   7.553 -0.5865  3.9040  1.6570
   95SAPS  C210 9397   1.413   4.068   7.626 -0.3367 -0.3231 -0.0390
   95SAPS  H10R 9398   1.394   4.178   7.622  0.6145  0.0099  3.3024
   95SAPS  H10S 9399   1.517   4.038   7.598 -0.3642 -0.4764  0.0237
   95SAPS  C211 9400   1.385   4.021   7.767 -0.1645 -0.3092  0.5101
   95SAPS  H11R 9401   1.278   4.003   7.785 -0.1407 -1.2333 -0.2561
   95SAPS  C212 9402   1.473   4.010   7.870 -0.0523 -0.3979  0.3019
   95SAPS  H12R 9403   1.441   3.964   7.965  0.6075  1.7663  1.5901
   95SAPS  C213 9404   1.619   4.042   7.873  0.7033  0.5154  0.6861
   95SAPS  H13R 9405   1.642   4.127   7.941  0.9225  0.6226  0.4765
   95SAPS  H13S 9406   1.650   4.079   7.773  0.0142 -0.8765 -0.0525
   95SAPS  C214 9407   1.705   3.923   7.898 -0.0318 -0.3419  0.2463
   95SAPS  H14R 9408   1.677   3.821   7.867  0.5634 -0.5921  0.5146
   95SAPS  C215 9409   1.809   3.933   7.990  0.1680  0.5984  0.1144
   95SAPS  H15R 9410   1.847   3.834   8.020 -3.3905 -1.3663 -1.5265
   95SAPS  C216 9411   1.854   4.051   8.071  0.2129  1.6707  0.0741
   95SAPS  H16R 9412   1.771   4.116   8.106 -0.5605  0.5879  0.2680
   95SAPS  H16S 9413   1.922   4.120   8.017  0.7001  0.2991 -1.0900
   95SAPS  C217 9414   1.915   3.985   8.200 -0.1655  0.1069 -0.0817
   95SAPS  H17R 9415   2.004   3.919   8.184 -2.2943 -2.2173 -2.9962
   95SAPS  H17S 9416   1.839   3.932   8.260  2.4148 -1.4937  1.9095
   95SAPS  C218 9417   1.980   4.092   8.295  0.6959 -0.0113  0.7395
   95SAPS  H18R 9418   2.072   4.118   8.239 -0.8107  1.4151 -1.1151
   95SAPS  H18S 9419   2.010   4.054   8.395  0.1433 -1.3863  0.3966
   95SAPS  C219 9420   1.902   4.222   8.306 -0.5915  0.2956  0.4712
   95SAPS  H19R 9421   1.794   4.201   8.320 -0.6061 -0.3055 -0.5275
   95SAPS  H19S 9422   1.912   4.279   8.211 -0.3954  0.3122  0.5016
   95SAPS  C220 9423   1.954   4.311   8.420 -0.0246 -0.6364 -0.2297
   95SAPS  H20R 9424   2.057   4.349   8.401 -1.8235  3.1624 -3.1509
   95SAPS  H20S 9425   1.968   4.244   8.507  0.8701 -0.1247  0.0323
   95SAPS  H20T 9426   1.888   4.397   8.446  1.3960 -0.1947  2.1228
   95SAPS   C33 9427   0.739   3.816   7.004 -0.1438 -0.4869 -0.2490
   95SAPS   H3X 9428   0.672   3.905   7.007  0.3019 -0.1249 -1.0022
   95SAPS   H3Y 9429   0.829   3.839   7.065 -1.6963  1.8245  1.2578
   95SAPS   C34 9430   0.663   3.698   7.061 -0.4011 -0.2971  0.2968
   95SAPS   H4X 9431   0.729   3.610   7.043 -1.6957 -1.8225  2.8341
   95SAPS   H4Y 9432   0.579   3.683   6.990 -0.9440 -0.6340  1.0088
   95SAPS   C35 9433   0.628   3.729   7.203  0.2434  0.5063 -0.8044
   95SAPS   H5X 9434   0.566   3.821   7.199 -2.0011 -0.8345  1.5857
   95SAPS   H5Y 9435   0.721   3.731   7.264  1.3155  0.9534 -2.4248
   95SAPS   C36 9436   0.554   3.608   7.263  0.0062  0.4742 -1.3952
   95SAPS   H6X 9437   0.611   3.514   7.243 -0.9984 -0.0115 -2.0418
   95SAPS   H6Y 9438   0.458   3.616   7.208 -1.1426  1.9920  0.7687
   95SAPS   C37 9439   0.552   3.626   7.413 -0.2341 -0.5433  0.7115
   95SAPS   H7X 9440   0.476   3.560   7.459 -2.0414  0.8230 -0.2487
   95SAPS   H7Y 9441   0.521   3.729   7.441 -1.7356 -0.1637 -2.1208
   95SAPS   C38 9442   0.684   3.591   7.482  0.2127 -0.5716  0.2046
   95SAPS   H8X 9443   0.756   3.674   7.498  0.2913 -0.6432  0.2223
   95SAPS   H8Y 9444   0.732   3.508   7.427  0.1145 -0.0929 -0.6153
   95SAPS   C39 9445   0.660   3.535   7.626 -0.0411  0.8261  0.0388
   95SAPS   H9X 9446   0.749   3.484   7.668 -0.4547  0.6965  0.7730
   95SAPS   H9Y 9447   0.579   3.460   7.640 -0.4786  0.9797 -1.5558
   95SAPS  C310 9448   0.631   3.647   7.728  0.0572  0.4939  0.5528
   95SAPS  H10X 9449   0.536   3.700   7.703 -0.5513 -1.2802 -1.0360
   95SAPS  H10Y 9450   0.722   3.710   7.719 -0.6335  1.5531  0.9560
   95SAPS  C311 9451   0.611   3.591   7.869  0.1298  0.3921  0.5283
   95SAPS  H11X 9452   0.619   3.683   7.932 -3.5296  0.4682  0.9454
   95SAPS  H11Y 9453   0.704   3.531   7.881 -0.2971 -0.1631  1.0596
   95SAPS  C312 9454   0.482   3.517   7.905  0.0213  0.0072 -0.1880
   95SAPS  H12X 9455   0.463   3.437   7.831 -2.6819  0.2796  0.1504
   95SAPS  H12Y 9456   0.401   3.593   7.901 -0.3385 -0.4101 -0.8467
   95SAPS  C313 9457   0.478   3.458   8.048  0.1863  0.3416  0.7366
   95SAPS  H13X 9458   0.549   3.373   8.044  1.2686  1.3265 -1.7044
   95SAPS  H13Y 9459   0.378   3.410   8.059  0.4808 -0.5580 -0.4793
   95SAPS  C314 9460   0.497   3.544   8.173  0.3491  0.7332  0.1328
   95SAPS  H14X 9461   0.420   3.620   8.195 -2.4430 -1.7743 -0.6089
   95SAPS  H14Y 9462   0.594   3.597   8.162 -0.9442  3.3830  1.1351
   95SAPS  C315 9463   0.513   3.451   8.296  0.2665 -0.7540  0.6580
   95SAPS  H15X 9464   0.592   3.378   8.267 -0.5192 -1.4346  0.2236
   95SAPS  H15Y 9465   0.410   3.411   8.303 -0.9007  1.4395 -2.7310
   95SAPS  C316 9466   0.570   3.516   8.424  0.4576 -0.1806  0.7267
   95SAPS  H16X 9467   0.573   3.437   8.502  0.1079  0.0590  0.9846
   95SAPS  H16Y 9468   0.503   3.594   8.466 -1.4713 -1.0684 -0.6227
   95SAPS  C317 9469   0.714   3.556   8.390 -0.5881 -0.2409 -0.3995
   95SAPS  H17X 9470   0.717   3.642   8.320  1.1689  0.5842  0.6619
   95SAPS  H17Y 9471   0.757   3.461   8.351 -0.8104 -0.1248 -0.9391
   95SAPS  C318 9472   0.790   3.591   8.517 -0.0595 -0.5697  0.0078
   95SAPS  H18X 9473   0.897   3.605   8.488  0.5041 -3.0191  0.8668
   95SAPS  H18Y 9474   0.791   3.511   8.594  0.0324 -0.4316  0.1517
   95SAPS  H18Z 9475   0.759   3.686   8.565 -2.4705 -0.6695 -1.2673
   96SAPS     N 9476   1.489   5.655   6.075  0.1676 -0.1035  0.0697
   96SAPS   HN1 9477   1.442   5.569   6.042 -0.8933  0.1106  0.9785
   96SAPS   HN2 9478   1.414   5.700   6.132 -0.2496 -1.1957  0.3827
   96SAPS   HN3 9479   1.495   5.708   5.985 -3.6090 -0.2354 -0.3383
   96SAPS   C12 9480   1.605   5.654   6.162  0.7081 -0.5248  0.6430
   96SAPS  H12A 9481   1.693   5.630   6.105  0.5516 -0.4202  0.3561
   96SAPS   C13 9482   1.638   5.799   6.216  0.4292  0.5530  0.4003
   96SAPS  O13A 9483   1.564   5.901   6.194  0.1587 -0.4724 -0.4304
   96SAPS  O13B 9484   1.755   5.813   6.259 -0.7077  0.2390  0.3671
   96SAPS   C11 9485   1.586   5.548   6.280 -0.0338  0.8903  0.0039
   96SAPS  H11A 9486   1.496   5.586   6.334 -0.3792 -0.1305  0.1492
   96SAPS  H11B 9487   1.675   5.560   6.347 -0.5808  2.9524  0.4021
   96SAPS     P 9488   1.512   5.291   6.316 -0.1308  0.1433  0.4069
   96SAPS   O13 9489   1.399   5.233   6.242  0.5635 -0.0587  0.1333
   96SAPS   O14 9490   1.630   5.203   6.351 -0.2614 -0.0640 -0.1629
   96SAPS   O12 9491   1.559   5.416   6.234 -0.1374 -0.4046 -0.4625
   96SAPS   O11 9492   1.458   5.358   6.453 -0.0773  0.4601 -0.8005
   96SAPS    C1 9493   1.559   5.380   6.559 -0.1064 -0.9442 -0.5619
   96SAPS    HA 9494   1.666   5.390   6.528  1.3411  0.0624  4.2769
   96SAPS    HB 9495   1.532   5.483   6.593 -0.2418 -0.6946 -1.4072
   96SAPS    C2 9496   1.556   5.277   6.675 -0.1403  0.6853  1.3563
   96SAPS    HS 9497   1.576   5.174   6.638  3.7294  1.4633  1.0952
   96SAPS   O21 9498   1.420   5.288   6.723 -0.2637 -0.1067  0.0746
   96SAPS   C21 9499   1.334   5.192   6.684 -0.1435  0.8099 -0.8749
   96SAPS   O22 9500   1.346   5.112   6.593 -0.5775 -0.2075 -0.4588
   96SAPS   C22 9501   1.221   5.193   6.784 -0.4596  0.3763  0.6208
   96SAPS   H2R 9502   1.220   5.285   6.846 -2.8612  0.6544  0.2362
   96SAPS   H2S 9503   1.119   5.188   6.738  0.1425 -2.8002 -0.5173
   96SAPS    C3 9504   1.650   5.305   6.790  0.7488  0.1153 -0.2399
   96SAPS    HX 9505   1.615   5.396   6.842 -1.8722 -1.4148  0.7999
   96SAPS    HY 9506   1.754   5.315   6.754  1.0332  0.7953  0.7337
   96SAPS   O31 9507   1.642   5.197   6.883  0.2864  0.1979  0.1596
   96SAPS   C31 9508   1.755   5.137   6.917 -0.3859 -0.1635 -0.3637
   96SAPS   O32 9509   1.858   5.136   6.854 -0.0984  0.1483 -0.3104
   96SAPS   C32 9510   1.732   5.078   7.056  0.0127 -0.1061 -0.2292
   96SAPS   H2X 9511   1.814   5.009   7.085 -0.8654 -0.6830  0.9086
   96SAPS   H2Y 9512   1.638   5.019   7.047  0.2081 -0.2070 -1.7784
   96SAPS   C23 9513   1.216   5.070   6.876 -0.6229 -0.7241 -0.2503
   96SAPS   H3R 9514   1.229   4.974   6.822  1.0026 -1.0507  0.6819
   96SAPS   H3S 9515   1.113   5.062   6.914 -0.4991 -0.9089  0.0444
   96SAPS   C24 9516   1.311   5.085   6.994 -0.3199 -0.3735  0.3729
   96SAPS   H4R 9517   1.302   5.186   7.039 -1.8065 -0.4543  0.2752
   96SAPS   H4S 9518   1.414   5.087   6.954  1.2511  2.0818  4.2548
   96SAPS   C25 9519   1.286   4.969   7.086 -0.5605 -0.1376 -0.1085
   96SAPS   H5R 9520   1.318   4.871   7.046  0.2407  0.2868 -0.5391
   96SAPS   C26 9521   1.220   4.983   7.206 -0.0437 -0.1121 -1.1686
   96SAPS   H6R 9522   1.194   4.893   7.264  0.9131  1.0941  1.2322
   96SAPS   C27 9523   1.152   5.098   7.275  0.4981 -0.5831 -0.1338
   96SAPS   H7R 9524   1.180   5.188   7.216 -1.8811  0.4889  0.3057
   96SAPS   H7S 9525   1.187   5.111   7.380 -0.4215  1.4703 -0.0435
   96SAPS   C28 9526   0.999   5.083   7.261  0.7292  0.5812 -0.5870
   96SAPS   H8R 9527   0.962   5.069   7.158 -2.1102 -1.6655  0.6848
   96SAPS   C29 9528   0.909   5.062   7.355  0.1529  0.0456  0.4164
   96SAPS   H9R 9529   0.800   5.052   7.339  0.3868 -1.0798 -0.5238
   96SAPS  C210 9530   0.942   5.057   7.505 -0.2075 -0.4050  0.3909
   96SAPS  H10R 9531   1.043   5.014   7.519  0.0482  0.5587  1.5689
   96SAPS  H10S 9532   0.890   4.974   7.557  0.5385 -1.7442 -0.9799
   96SAPS  C211 9533   0.920   5.183   7.582  0.0747 -0.6389  0.2850
   96SAPS  H11R 9534   0.984   5.263   7.541  2.3311 -2.3766  0.2773
   96SAPS  C212 9535   0.834   5.208   7.683  0.2207 -0.5920 -0.8908
   96SAPS  H12R 9536   0.837   5.309   7.726  3.3939 -1.2136  0.4487
   96SAPS  C213 9537   0.750   5.106   7.749  0.5633 -0.1367  0.2601
   96SAPS  H13R 9538   0.762   5.004   7.708  3.7215  0.4782 -0.4964
   96SAPS  H13S 9539   0.642   5.133   7.739  0.9466  1.5245  0.4214
   96SAPS  C214 9540   0.794   5.108   7.900 -0.0997  0.7775  0.2351
   96SAPS  H14R 9541   0.902   5.095   7.918  0.3345 -0.4850 -2.9251
   96SAPS  C215 9542   0.714   5.111   8.003 -0.0390 -0.7416 -0.5279
   96SAPS  H15R 9543   0.759   5.113   8.103 -3.1490  3.7024  0.9324
   96SAPS  C216 9544   0.565   5.123   7.993 -0.2030 -0.0083 -0.1095
   96SAPS  H16R 9545   0.534   5.027   7.946 -1.4871  1.0977 -1.5781
   96SAPS  H16S 9546   0.537   5.199   7.917 -2.0817 -0.8718 -0.2960
   96SAPS  C217 9547   0.465   5.121   8.110 -0.6151  0.2619  0.3247
   96SAPS  H17R 9548   0.361   5.117   8.070  0.3075 -1.9479 -1.9734
   96SAPS  H17S 9549   0.490   5.213   8.167 -1.5342  1.7166 -1.5516
   96SAPS  C218 9550   0.478   4.988   8.184  0.2261 -0.2919 -0.7382
   96SAPS  H18R 9551   0.576   4.974   8.235 -0.1981 -0.4980  0.0422
   96SAPS  H18S 9552   0.465   4.900   8.117  0.4442  0.5352 -1.8740
   96SAPS  C219 9553   0.387   4.970   8.310  0.0234 -0.9181 -0.1400
   96SAPS  H19R 9554   0.405   4.868   8.349  1.3500 -1.0561 -1.0848
   96SAPS  H19S 9555   0.287   4.986   8.264  1.3590 -0.5836 -3.0155
   96SAPS  C220 9556   0.410   5.078   8.416  0.1704 -0.2317  0.7132
   96SAPS  H20R 9557   0.375   5.176   8.378  0.6090  0.0781  1.0920
   96SAPS  H20S 9558   0.513   5.091   8.456  0.7441  0.4541 -0.9647
   96SAPS  H20T 9559   0.342   5.063   8.502 -1.8635  0.4274 -0.7587
   96SAPS   C33 9560   1.706   5.184   7.171  0.2791 -0.0735 -0.1255
   96SAPS   H3X 9561   1.605   5.212   7.135 -0.1610 -0.2303  0.9627
   96SAPS   H3Y 9562   1.769   5.275   7.174  2.1467 -1.2880 -0.9179
   96SAPS   C34 9563   1.702   5.116   7.313 -0.0505  0.4256 -0.4413
   96SAPS   H4X 9564   1.803   5.074   7.330 -0.0359  1.5263  2.4208
   96SAPS   H4Y 9565   1.633   5.031   7.297 -0.3148  1.0513 -2.8441
   96SAPS   C35 9566   1.680   5.216   7.426  0.6322 -0.3511 -0.0688
   96SAPS   H5X 9567   1.748   5.303   7.437 -1.3351  1.1316  0.8414
   96SAPS   H5Y 9568   1.679   5.154   7.518 -1.3089 -1.4460 -0.7881
   96SAPS   C36 9569   1.540   5.276   7.413 -0.0733 -0.0108  0.1780
   96SAPS   H6X 9570   1.462   5.200   7.391  1.5822 -1.4161 -0.8961
   96SAPS   H6Y 9571   1.544   5.355   7.334  2.1536  0.4374  0.7190
   96SAPS   C37 9572   1.489   5.340   7.544 -0.1669 -0.1740  0.2272
   96SAPS   H7X 9573   1.417   5.422   7.524  0.8801  1.0332  1.3019
   96SAPS   H7Y 9574   1.578   5.372   7.602 -0.4522 -0.7421  0.9936
   96SAPS   C38 9575   1.424   5.248   7.657  0.6070 -0.3903 -0.8232
   96SAPS   H8X 9576   1.505   5.186   7.699 -1.1632 -2.1481  0.0800
   96SAPS   H8Y 9577   1.352   5.184   7.601 -0.5987  0.8109 -0.6859
   96SAPS   C39 9578   1.357   5.325   7.769 -0.0413  0.0288 -0.0119
   96SAPS   H9X 9579   1.286   5.394   7.718  1.4958  1.2208 -0.5873
   96SAPS   H9Y 9580   1.430   5.384   7.829 -0.9543  0.2221  0.9250
   96SAPS  C310 9581   1.284   5.228   7.855 -0.1660  0.1160 -0.1802
   96SAPS  H10X 9582   1.365   5.160   7.890  0.2045  0.0759 -1.1122
   96SAPS  H10Y 9583   1.232   5.164   7.781  0.8415 -1.6416  0.5835
   96SAPS  C311 9584   1.169   5.279   7.953 -0.5675 -0.1668 -0.6551
   96SAPS  H11X 9585   1.120   5.192   8.001 -2.3085  2.0816  1.7721
   96SAPS  H11Y 9586   1.094   5.326   7.885 -0.0775  2.4302  0.5136
   96SAPS  C312 9587   1.212   5.385   8.061 -0.6635  0.3708 -0.2733
   96SAPS  H12X 9588   1.245   5.481   8.016  3.3839 -2.2666 -3.2245
   96SAPS  H12Y 9589   1.311   5.351   8.097 -0.9548 -1.6733 -1.3427
   96SAPS  C313 9590   1.099   5.395   8.168 -0.5814  0.0510  0.1782
   96SAPS  H13X 9591   1.151   5.454   8.247  1.0201 -0.5913 -0.3687
   96SAPS  H13Y 9592   1.077   5.294   8.208  0.5718 -0.5289 -0.6299
   96SAPS  C314 9593   0.968   5.463   8.111 -0.2757  0.0764 -0.0159
   96SAPS  H14X 9594   0.929   5.390   8.038 -0.8836 -0.5840  0.9546
   96SAPS  H14Y 9595   1.002   5.549   8.048  2.8899 -0.8554  0.3165
   96SAPS  C315 9596   0.864   5.520   8.208  0.2213  0.2080  0.0608
   96SAPS  H15X 9597   0.795   5.592   8.159 -0.0598 -0.8452 -1.1162
   96SAPS  H15Y 9598   0.898   5.575   8.298 -1.0934  0.0140  0.6915
   96SAPS  C316 9599   0.765   5.412   8.269  0.5120 -0.1774  0.3487
   96SAPS  H16X 9600   0.826   5.330   8.313  1.0355 -0.2601 -0.5263
   96SAPS  H16Y 9601   0.703   5.390   8.180 -0.7528  1.1907  0.8546
   96SAPS  C317 9602   0.670   5.481   8.376  0.2277  0.1607 -0.3174
   96SAPS  H17X 9603   0.606   5.547   8.313  0.1775  1.5451  1.1473
   96SAPS  H17Y 9604   0.722   5.545   8.449 -0.2918  1.2006 -0.8478
   96SAPS  C318 9605   0.579   5.389   8.455 -0.0792  0.3762  0.3786
   96SAPS  H18X 9606   0.510   5.338   8.385 -1.6878  1.5663  1.0612
   96SAPS  H18Y 9607   0.514   5.434   8.533  1.4334  2.6625  0.3614
   96SAPS  H18Z 9608   0.640   5.317   8.514 -1.7422  1.2013  3.1847
   97SAPS     N 9609   2.157   3.428   6.243  0.5037 -0.8717  0.8883
   97SAPS   HN1 9610   2.172   3.509   6.307  4.6521 -0.5626 -0.3698
   97SAPS   HN2 9611   2.207   3.342   6.274 -1.4744 -1.4477  2.6613
   97SAPS   HN3 9612   2.186   3.455   6.147  0.0438  0.7708  1.1979
   97SAPS   C12 9613   2.017   3.387   6.240  0.1148 -0.3071 -0.0101
   97SAPS  H12A 9614   1.954   3.473   6.225  1.2479  0.8539  1.7308
   97SAPS   C13 9615   1.983   3.292   6.128  0.3106  0.2612  0.7285
   97SAPS  O13A 9616   2.067   3.245   6.044  0.0241 -0.2517 -0.0266
   97SAPS  O13B 9617   1.862   3.254   6.112  0.2614 -0.3802  0.3968
   97SAPS   C11 9618   1.980   3.333   6.384 -0.1067  0.3132  0.9184
   97SAPS  H11A 9619   2.040   3.240   6.399  0.6289  0.9234  1.8456
   97SAPS  H11B 9620   1.877   3.293   6.393 -0.9456  2.0058 -0.9732
   97SAPS     P 9621   1.904   3.516   6.559 -0.0161 -0.3627  0.2546
   97SAPS   O13 9622   1.969   3.603   6.658  0.6864 -0.4361  0.2562
   97SAPS   O14 9623   1.833   3.586   6.452 -0.2484 -0.1455  0.0750
   97SAPS   O12 9624   2.019   3.423   6.490 -0.4919  0.7369 -0.6718
   97SAPS   O11 9625   1.804   3.418   6.624 -0.3674  0.0346  0.3706
   97SAPS    C1 9626   1.835   3.334   6.737  0.1127  0.1708  0.1913
   97SAPS    HA 9627   1.808   3.229   6.714  1.7166 -0.9458  3.2954
   97SAPS    HB 9628   1.945   3.329   6.748  0.2062  1.0362 -0.2394
   97SAPS    C2 9629   1.751   3.379   6.857 -0.4169 -0.0628  0.4489
   97SAPS    HS 9630   1.772   3.488   6.867 -0.6490  0.0080  0.1591
   97SAPS   O21 9631   1.802   3.286   6.964 -0.3430 -0.3773  1.0955
   97SAPS   C21 9632   1.889   3.347   7.045  0.0658  0.4953 -0.7069
   97SAPS   O22 9633   1.929   3.463   7.036  0.3890  0.1447  0.4507
   97SAPS   C22 9634   1.919   3.246   7.155  0.0750  0.5730 -0.1042
   97SAPS   H2R 9635   1.838   3.237   7.231  0.1525 -2.6571 -0.3118
   97SAPS   H2S 9636   1.921   3.149   7.100  1.4589  0.2800  0.4549
   97SAPS    C3 9637   1.596   3.372   6.840 -0.7805 -0.3521  0.4546
   97SAPS    HX 9638   1.573   3.285   6.776  0.6433  1.0468 -2.0803
   97SAPS    HY 9639   1.562   3.466   6.790  3.7555  0.6175 -1.0540
   97SAPS   O31 9640   1.523   3.364   6.967  0.1564 -0.3316 -0.2517
   97SAPS   C31 9641   1.533   3.477   7.039  0.5823 -0.5206 -0.7120
   97SAPS   O32 9642   1.571   3.582   7.001 -0.1712 -0.0278  0.6168
   97SAPS   C32 9643   1.469   3.453   7.177 -0.1687  0.2158 -0.7134
   97SAPS   H2X 9644   1.502   3.354   7.214  0.8568  1.0528  0.6791
   97SAPS   H2Y 9645   1.360   3.445   7.155  0.0363  1.1062 -2.1136
   97SAPS   C23 9646   2.056   3.269   7.229  0.2486 -1.0866  0.0441
   97SAPS   H3R 9647   2.048   3.355   7.299 -1.4487 -1.1515 -0.0505
   97SAPS   H3S 9648   2.124   3.294   7.145 -0.7893 -0.2367 -0.5579
   97SAPS   C24 9649   2.118   3.143   7.287 -0.1124 -0.2826 -0.0860
   97SAPS   H4R 9650   2.223   3.163   7.317  0.1220 -0.1302 -1.0053
   97SAPS   H4S 9651   2.135   3.076   7.200 -1.0148  0.2194 -0.6561
   97SAPS   C25 9652   2.049   3.080   7.403  0.3949  0.4861  0.5143
   97SAPS   H5R 9653   1.960   3.021   7.378  0.2054  0.4299  1.3307
   97SAPS   C26 9654   2.083   3.093   7.533  0.3532  0.6180  0.0359
   97SAPS   H6R 9655   2.028   3.033   7.607  1.2126  0.7131  0.7565
   97SAPS   C27 9656   2.212   3.165   7.583  0.6024 -0.6644 -0.7157
   97SAPS   H7R 9657   2.193   3.273   7.597 -0.2965 -0.4655 -3.1863
   97SAPS   H7S 9658   2.291   3.163   7.505 -0.1925  0.5634 -1.5695
   97SAPS   C28 9659   2.253   3.094   7.707 -0.2996 -0.4684  0.2315
   97SAPS   H8R 9660   2.211   2.993   7.715 -2.1018  0.0968 -1.5143
   97SAPS   C29 9661   2.320   3.141   7.817  0.2091  0.1825  0.0571
   97SAPS   H9R 9662   2.358   3.071   7.893 -1.1268 -0.0235  0.5411
   97SAPS  C210 9663   2.378   3.283   7.824 -0.6087  0.4238  0.7845
   97SAPS  H10R 9664   2.333   3.349   7.747 -0.0709  0.6969  0.6971
   97SAPS  H10S 9665   2.485   3.286   7.795 -1.0780 -1.0052 -1.1815
   97SAPS  C211 9666   2.357   3.344   7.961 -0.4749 -0.0217 -0.4471
   97SAPS  H11R 9667   2.266   3.308   8.011  0.2236  0.3111  1.0843
   97SAPS  C212 9668   2.444   3.422   8.033 -0.5531 -0.4167 -0.1588
   97SAPS  H12R 9669   2.420   3.449   8.136 -1.7154 -1.1694 -0.2266
   97SAPS  C213 9670   2.578   3.477   7.980 -0.4460  0.2279  0.4014
   97SAPS  H13R 9671   2.592   3.451   7.873 -1.4052 -1.2609  0.6320
   97SAPS  H13S 9672   2.668   3.437   8.031  0.7236 -0.3987 -2.0345
   97SAPS  C214 9673   2.585   3.627   8.003 -0.1081  0.3004 -0.1943
   97SAPS  H14R 9674   2.490   3.675   8.029 -0.2672  0.1154 -0.4401
   97SAPS  C215 9675   2.705   3.689   8.003  0.0601  0.0702  0.1991
   97SAPS  H15R 9676   2.706   3.797   8.024 -0.2655  0.6393 -2.5347
   97SAPS  C216 9677   2.836   3.625   7.966 -0.5624 -0.4204 -0.1614
   97SAPS  H16R 9678   2.841   3.611   7.856  2.7697  0.0598 -0.1197
   97SAPS  H16S 9679   2.844   3.520   8.002 -1.2024 -0.4647 -0.1413
   97SAPS  C217 9680   2.964   3.696   8.026  0.0361 -0.1381  0.9063
   97SAPS  H17R 9681   2.959   3.807   8.016  0.7002 -0.3497 -2.3374
   97SAPS  H17S 9682   3.039   3.666   7.949 -1.6383 -1.6990 -0.1468
   97SAPS  C218 9683   3.016   3.647   8.162 -0.1919 -0.1471 -0.3252
   97SAPS  H18R 9684   2.930   3.642   8.233  1.0531 -0.7212  1.1663
   97SAPS  H18S 9685   3.085   3.725   8.201  1.1936 -0.8482 -1.3352
   97SAPS  C219 9686   3.079   3.507   8.152 -0.5061 -0.5899 -0.0193
   97SAPS  H19R 9687   3.173   3.519   8.095  1.2559  0.8786  3.0581
   97SAPS  H19S 9688   3.002   3.441   8.109 -1.9350 -0.0365  1.5922
   97SAPS  C220 9689   3.120   3.449   8.301 -0.5124 -0.3825  0.4130
   97SAPS  H20R 9690   3.206   3.379   8.296  0.7712  1.1413  0.6662
   97SAPS  H20S 9691   3.031   3.396   8.340 -1.7136  1.4400  0.2032
   97SAPS  H20T 9692   3.144   3.534   8.369  2.1829 -2.0743  1.6840
   97SAPS   C33 9693   1.497   3.562   7.285 -0.2989 -0.5254 -0.1692
   97SAPS   H3X 9694   1.429   3.536   7.369 -1.7732  2.7933 -0.2639
   97SAPS   H3Y 9695   1.481   3.663   7.244 -0.4185 -0.4688  0.0154
   97SAPS   C34 9696   1.639   3.547   7.346 -0.2453 -0.2418 -0.1656
   97SAPS   H4X 9697   1.654   3.639   7.407 -1.2098  1.2073 -2.0601
   97SAPS   H4Y 9698   1.714   3.568   7.266  0.6830  0.5799  0.8951
   97SAPS   C35 9699   1.670   3.416   7.424  0.8691  0.1857  0.7338
   97SAPS   H5X 9700   1.668   3.331   7.353  0.3343  0.1357  0.8018
   97SAPS   H5Y 9701   1.587   3.402   7.497 -0.8338 -3.1894 -1.7279
   97SAPS   C36 9702   1.801   3.422   7.509  0.0916 -0.1439 -0.2138
   97SAPS   H6X 9703   1.881   3.464   7.445 -0.5117  1.6822  0.2126
   97SAPS   H6Y 9704   1.825   3.320   7.545  0.8564  0.6194  1.5061
   97SAPS   C37 9705   1.786   3.506   7.644 -0.2029 -0.2117  0.1342
   97SAPS   H7X 9706   1.702   3.462   7.702 -0.5009 -1.4639 -1.2141
   97SAPS   H7Y 9707   1.758   3.609   7.613  1.7490 -0.2458 -1.8183
   97SAPS   C38 9708   1.912   3.494   7.727  0.1699  0.0496  0.4094
   97SAPS   H8X 9709   2.002   3.529   7.672 -0.6175 -0.5300 -1.2787
   97SAPS   H8Y 9710   1.929   3.385   7.746  1.8982 -0.0762 -1.7094
   97SAPS   C39 9711   1.894   3.577   7.858 -0.0441  0.6302 -0.3623
   97SAPS   H9X 9712   1.802   3.538   7.907  0.7639 -0.1112  0.5964
   97SAPS   H9Y 9713   1.880   3.686   7.847 -2.3197  0.6245  1.9797
   97SAPS  C310 9714   2.016   3.558   7.950  0.6003  0.1724 -0.4057
   97SAPS  H10X 9715   2.107   3.586   7.893  0.5523 -2.6127 -1.9521
   97SAPS  H10Y 9716   2.039   3.450   7.964 -0.9405  0.0906  1.6951
   97SAPS  C311 9717   2.005   3.618   8.091  0.6191 -0.6402  0.0534
   97SAPS  H11X 9718   1.915   3.578   8.141 -0.0179  1.5312  0.6785
   97SAPS  H11Y 9719   2.000   3.729   8.083 -0.4122 -0.8137 -1.8192
   97SAPS  C312 9720   2.131   3.579   8.170  0.8425  0.4654  0.4827
   97SAPS  H12X 9721   2.218   3.604   8.105 -1.5763  1.4056 -2.4965
   97SAPS  H12Y 9722   2.135   3.468   8.170  0.3149  0.4325 -0.9045
   97SAPS  C313 9723   2.135   3.625   8.314 -0.5340  0.1496  0.2138
   97SAPS  H13X 9724   2.182   3.550   8.382 -0.7569 -1.1513 -1.0422
   97SAPS  H13Y 9725   2.029   3.632   8.346 -0.5854  0.7533 -0.0986
   97SAPS  C314 9726   2.208   3.759   8.326 -0.0740 -0.2077 -0.4703
   97SAPS  H14X 9727   2.177   3.826   8.409  1.6239 -1.6866  1.4138
   97SAPS  H14Y 9728   2.190   3.813   8.231 -0.7441  2.1261  0.9353
   97SAPS  C315 9729   2.352   3.727   8.357 -0.1690 -0.4557 -0.0073
   97SAPS  H15X 9730   2.406   3.676   8.274  1.2323  0.9121  0.0517
   97SAPS  H15Y 9731   2.370   3.677   8.455  0.1328 -1.3720 -0.5286
   97SAPS  C316 9732   2.436   3.852   8.386  0.2029  0.4485  0.0041
   97SAPS  H16X 9733   2.396   3.920   8.464 -1.1882  0.8194 -1.0204
   97SAPS  H16Y 9734   2.438   3.914   8.294  0.9340 -2.5666 -2.0888
   97SAPS  C317 9735   2.578   3.826   8.437  0.5619  0.6843 -0.8002
   97SAPS  H17X 9736   2.645   3.808   8.350 -0.1109  0.6909 -1.3275
   97SAPS  H17Y 9737   2.576   3.736   8.502  0.1808  0.9027 -0.5067
   97SAPS  C318 9738   2.635   3.952   8.500  0.5127 -0.0474  0.5367
   97SAPS  H18X 9739   2.579   3.994   8.586 -1.4148  0.6888 -1.0271
   97SAPS  H18Y 9740   2.636   4.033   8.423  1.6766  1.9310  2.5830
   97SAPS  H18Z 9741   2.742   3.938   8.528  0.2871  1.9269  2.5014
   98SAPS     N 9742   0.455   3.975   6.004  0.4219  0.1255 -0.5045
   98SAPS   HN1 9743   0.507   3.886   5.993 -0.6524 -0.4020 -1.4687
   98SAPS   HN2 9744   0.372   3.980   5.941  0.1541  0.9944 -0.0950
   98SAPS   HN3 9745   0.524   4.049   5.980  1.3852 -0.3478  0.7589
   98SAPS   C12 9746   0.420   3.998   6.147 -0.5634 -0.4888  0.0263
   98SAPS  H12A 9747   0.500   4.042   6.205  0.0306  0.2916 -1.3529
   98SAPS   C13 9748   0.309   4.105   6.164  0.3316 -0.1682 -1.2383
   98SAPS  O13A 9749   0.242   4.143   6.065 -0.2191  0.3235  0.2539
   98SAPS  O13B 9750   0.306   4.177   6.269 -0.4302 -0.3993 -0.1165
   98SAPS   C11 9751   0.373   3.858   6.206 -0.1480 -0.2148 -1.0706
   98SAPS  H11A 9752   0.272   3.847   6.162 -1.9151 -0.4827  2.8125
   98SAPS  H11B 9753   0.357   3.864   6.316 -1.0901  0.6845 -1.2525
   98SAPS     P 9754   0.381   3.601   6.162 -0.1824 -0.5907 -0.4386
   98SAPS   O13 9755   0.271   3.602   6.068 -0.2350  0.1414 -0.3411
   98SAPS   O14 9756   0.495   3.506   6.142 -0.1942  0.1014  0.1778
   98SAPS   O12 9757   0.449   3.741   6.170  0.7887 -0.2025 -0.2547
   98SAPS   O11 9758   0.322   3.584   6.309  0.3440 -0.2262  0.1553
   98SAPS    C1 9759   0.286   3.453   6.360 -0.3159 -0.0072  0.5935
   98SAPS    HA 9760   0.178   3.439   6.339 -0.2373  1.0279 -0.5330
   98SAPS    HB 9761   0.340   3.371   6.308  1.4062 -0.0603  2.4152
   98SAPS    C2 9762   0.326   3.438   6.509 -0.4233 -0.3928 -0.3064
   98SAPS    HS 9763   0.338   3.328   6.522  1.3247  0.0289  1.8551
   98SAPS   O21 9764   0.224   3.483   6.604 -0.3209 -0.2664 -0.0713
   98SAPS   C21 9765   0.122   3.397   6.623 -0.3283 -0.5468  0.3997
   98SAPS   O22 9766   0.114   3.287   6.562  0.6045  0.0002  0.6131
   98SAPS   C22 9767   0.030   3.445   6.736  0.5009 -0.0422  0.5400
   98SAPS   H2R 9768   0.020   3.358   6.803 -0.6500  0.3894  0.9329
   98SAPS   H2S 9769   0.074   3.540   6.773  0.6753  0.5643 -1.1559
   98SAPS    C3 9770   0.461   3.520   6.529  0.3464 -0.0102 -0.2804
   98SAPS    HX 9771   0.441   3.629   6.543  0.5151 -0.2414  1.9759
   98SAPS    HY 9772   0.517   3.505   6.435 -0.4617 -0.4022 -0.7040
   98SAPS   O31 9773   0.524   3.480   6.650 -0.5832  0.2156  0.1896
   98SAPS   C31 9774   0.586   3.365   6.650  0.3257  0.1829 -0.0986
   98SAPS   O32 9775   0.576   3.275   6.568 -0.3230 -0.0230  0.4320
   98SAPS   C32 9776   0.668   3.346   6.778 -0.1167 -0.2091  0.1900
   98SAPS   H2X 9777   0.757   3.409   6.761  0.0209 -0.2963  0.5918
   98SAPS   H2Y 9778   0.704   3.241   6.778  1.0493  0.1805 -0.4620
   98SAPS   C23 9779  -0.118   3.474   6.684 -0.2976  0.8581 -0.0603
   98SAPS   H3R 9780  -0.169   3.399   6.620 -1.3571  0.5108  1.1648
   98SAPS   H3S 9781  -0.105   3.554   6.608  3.5910 -0.4138 -0.8014
   98SAPS   C24 9782  -0.211   3.515   6.799 -0.2986 -0.0871  0.1184
   98SAPS   H4R 9783  -0.212   3.449   6.888 -2.9758  0.2024  0.3283
   98SAPS   H4S 9784  -0.316   3.502   6.764 -0.1564  0.4124 -0.5112
   98SAPS   C25 9785  -0.183   3.652   6.847 -0.2594 -0.4436  0.1714
   98SAPS   H5R 9786  -0.176   3.733   6.772  0.3445  1.2367  1.9945
   98SAPS   C26 9787  -0.180   3.687   6.979 -0.0802  0.3228 -0.1964
   98SAPS   H6R 9788  -0.167   3.791   7.013  2.3735  0.2802 -0.8875
   98SAPS   C27 9789  -0.192   3.598   7.100 -0.2382 -0.3417 -0.7771
   98SAPS   H7R 9790  -0.178   3.654   7.195  0.4751 -2.6051  0.4808
   98SAPS   H7S 9791  -0.116   3.517   7.099  1.4599  1.0668  3.1507
   98SAPS   C28 9792  -0.327   3.520   7.107 -0.0699 -0.1956 -0.6979
   98SAPS   H8R 9793  -0.347   3.471   7.010 -0.0518  0.9831 -1.3105
   98SAPS   C29 9794  -0.409   3.509   7.210  0.5016 -0.8720  0.0122
   98SAPS   H9R 9795  -0.491   3.438   7.193 -1.8683  1.6388  0.6342
   98SAPS  C210 9796  -0.390   3.567   7.349 -0.0600 -0.4028  0.4340
   98SAPS  H10R 9797  -0.305   3.639   7.348 -0.6982  0.4381  3.1405
   98SAPS  H10S 9798  -0.356   3.485   7.415 -1.6613  0.4727  2.3912
   98SAPS  C211 9799  -0.505   3.637   7.409  0.0378 -0.8365 -0.6318
   98SAPS  H11R 9800  -0.595   3.657   7.347 -1.2628 -0.7532  1.2460
   98SAPS  C212 9801  -0.509   3.678   7.540  0.4176  0.3254  0.5073
   98SAPS  H12R 9802  -0.599   3.735   7.568  0.8533  1.6516 -0.7377
   98SAPS  C213 9803  -0.401   3.654   7.639  0.4486  0.5290  0.0603
   98SAPS  H13R 9804  -0.300   3.654   7.594  0.2251 -0.5840 -0.4819
   98SAPS  H13S 9805  -0.413   3.555   7.688 -0.0467  0.4947 -0.1232
   98SAPS  C214 9806  -0.398   3.746   7.756 -0.0183 -0.3238  0.8597
   98SAPS  H14R 9807  -0.325   3.828   7.745  0.0344 -0.4490  0.2285
   98SAPS  C215 9808  -0.459   3.733   7.873  0.0860 -0.4620  1.0233
   98SAPS  H15R 9809  -0.446   3.806   7.954  3.5316  1.3795 -1.0530
   98SAPS  C216 9810  -0.543   3.609   7.902  1.0948 -0.2013 -0.1861
   98SAPS  H16R 9811  -0.570   3.570   7.802 -0.3526  2.2348 -0.7834
   98SAPS  H16S 9812  -0.642   3.637   7.945  1.7086  3.6158 -1.1469
   98SAPS  C217 9813  -0.463   3.510   7.993  0.1018 -0.1710 -0.2270
   98SAPS  H17R 9814  -0.372   3.481   7.936 -1.0241 -1.3115 -1.4802
   98SAPS  H17S 9815  -0.528   3.419   7.993 -0.8458  0.4997 -0.4614
   98SAPS  C218 9816  -0.444   3.543   8.137  0.3431  0.0130  0.9729
   98SAPS  H18R 9817  -0.391   3.639   8.156  1.4516  0.0387 -2.0193
   98SAPS  H18S 9818  -0.383   3.458   8.176 -0.1468 -1.3698 -1.2203
   98SAPS  C219 9819  -0.583   3.566   8.197 -0.7056 -0.1824 -0.0817
   98SAPS  H19R 9820  -0.662   3.499   8.156 -0.2102 -0.9615  0.2309
   98SAPS  H19S 9821  -0.597   3.668   8.156 -0.1178 -0.9619 -2.2743
   98SAPS  C220 9822  -0.581   3.555   8.345  0.3147 -0.7502 -0.0307
   98SAPS  H20R 9823  -0.682   3.574   8.388 -0.4046 -0.4193 -1.8149
   98SAPS  H20S 9824  -0.513   3.625   8.397 -1.6366  1.0892  0.1046
   98SAPS  H20T 9825  -0.561   3.450   8.374  2.2753 -0.7520 -1.3471
   98SAPS   C33 9826   0.586   3.390   6.898  0.6402 -0.3564 -1.1500
   98SAPS   H3X 9827   0.545   3.493   6.888 -2.8055 -1.6375 -0.9467
   98SAPS   H3Y 9828   0.651   3.404   6.987 -0.3957 -0.2203 -0.4070
   98SAPS   C34 9829   0.470   3.292   6.930  0.9955 -0.0033  0.1980
   98SAPS   H4X 9830   0.506   3.198   6.977  0.5768 -1.4686 -2.3091
   98SAPS   H4Y 9831   0.419   3.263   6.835 -0.6519  4.0636 -0.2524
   98SAPS   C35 9832   0.360   3.354   7.031 -0.3686 -0.2466 -0.6386
   98SAPS   H5X 9833   0.323   3.446   6.982 -3.0441 -0.0199  1.6600
   98SAPS   H5Y 9834   0.400   3.385   7.130 -1.8237  0.3264 -0.2207
   98SAPS   C36 9835   0.238   3.263   7.048  1.0481  0.3413 -0.3027
   98SAPS   H6X 9836   0.259   3.158   7.078 -2.7681 -0.3174  0.3029
   98SAPS   H6Y 9837   0.196   3.265   6.945 -1.7159 -0.1037  0.7524
   98SAPS   C37 9838   0.129   3.327   7.146 -0.5639  0.2310 -0.3811
   98SAPS   H7X 9839   0.038   3.303   7.088 -0.9422 -1.3414  0.8139
   98SAPS   H7Y 9840   0.148   3.435   7.160 -0.5639  0.7205 -3.8979
   98SAPS   C38 9841   0.129   3.268   7.287 -0.0466  0.6781 -0.1599
   98SAPS   H8X 9842   0.220   3.299   7.343 -0.4639  0.1763  0.7978
   98SAPS   H8Y 9843   0.140   3.157   7.287  3.2160  0.9615  1.2936
   98SAPS   C39 9844   0.011   3.315   7.375  0.7893  0.3184  0.1735
   98SAPS   H9X 9845  -0.082   3.312   7.315 -1.0962 -0.2903  3.0458
   98SAPS   H9Y 9846   0.019   3.425   7.379  0.7244  0.3925 -1.3770
   98SAPS  C310 9847   0.018   3.247   7.516  0.2403 -0.5861  0.1460
   98SAPS  H10X 9848   0.099   3.297   7.574 -1.3601  2.5302 -0.1647
   98SAPS  H10Y 9849   0.036   3.139   7.496 -3.3772 -1.0192 -1.0477
   98SAPS  C311 9850  -0.123   3.259   7.585 -0.0424  0.0941 -0.0250
   98SAPS  H11X 9851  -0.185   3.178   7.541  0.8819 -0.8833  0.4594
   98SAPS  H11Y 9852  -0.190   3.346   7.568 -3.0472 -2.3528 -1.2708
   98SAPS  C312 9853  -0.110   3.232   7.733  0.5726  0.4274  0.0859
   98SAPS  H12X 9854  -0.037   3.309   7.766  0.7398  0.0775  0.5496
   98SAPS  H12Y 9855  -0.054   3.136   7.743 -1.9636 -1.3195 -2.0440
   98SAPS  C313 9856  -0.244   3.235   7.805 -0.2983  0.6536 -0.4281
   98SAPS  H13X 9857  -0.295   3.327   7.769 -0.5843  1.7410  2.5840
   98SAPS  H13Y 9858  -0.233   3.238   7.916  0.7528  0.7350 -0.5304
   98SAPS  C314 9859  -0.333   3.110   7.780  0.1846 -0.1527 -0.1596
   98SAPS  H14X 9860  -0.355   3.114   7.671 -0.3107 -0.9132 -0.0920
   98SAPS  H14Y 9861  -0.434   3.139   7.817  0.1936  2.0985 -1.7924
   98SAPS  C315 9862  -0.273   2.980   7.815  0.7845  0.7099  0.2568
   98SAPS  H15X 9863  -0.191   2.933   7.756  0.0756 -1.3159  0.8616
   98SAPS  H15Y 9864  -0.352   2.903   7.815 -0.6625  2.1605  0.9628
   98SAPS  C316 9865  -0.216   2.979   7.960  0.4742  0.3514  0.3679
   98SAPS  H16X 9866  -0.294   3.019   8.029  0.5575  2.1738 -0.5653
   98SAPS  H16Y 9867  -0.133   3.053   7.959 -0.4082  1.3602  0.9119
   98SAPS  C317 9868  -0.170   2.843   8.006  0.2724 -0.9523 -0.0266
   98SAPS  H17X 9869  -0.083   2.815   7.942  0.5504 -0.5575  0.1733
   98SAPS  H17Y 9870  -0.243   2.760   7.994 -0.2542 -0.2467 -1.8764
   98SAPS  C318 9871  -0.124   2.835   8.148 -0.0231 -0.5732  0.5896
   98SAPS  H18X 9872  -0.070   2.928   8.178  1.6795 -0.8049 -1.5908
   98SAPS  H18Y 9873  -0.049   2.755   8.164  1.7029  0.9863  0.5277
   98SAPS  H18Z 9874  -0.215   2.842   8.212 -1.1461  0.3291 -1.0751
   99SAPS     N 9875   0.121   1.522   6.149 -0.0866 -0.2965 -0.5248
   99SAPS   HN1 9876   0.121   1.592   6.227 -3.6697 -0.1239 -0.6091
   99SAPS   HN2 9877   0.156   1.430   6.182  1.9270  0.1024 -1.4753
   99SAPS   HN3 9878   0.180   1.565   6.075  0.3150  1.3274  0.6978
   99SAPS   C12 9879  -0.027   1.510   6.105 -0.5744  0.2305  0.0240
   99SAPS  H12A 9880  -0.049   1.590   6.036 -1.5276 -0.3840 -0.3910
   99SAPS   C13 9881  -0.054   1.375   6.036 -0.1317 -0.3943  0.3742
   99SAPS  O13A 9882   0.036   1.294   6.020  0.2770 -0.0629 -0.3166
   99SAPS  O13B 9883  -0.172   1.344   6.002  0.0318  0.0711  0.0415
   99SAPS   C11 9884  -0.115   1.518   6.229  0.8810  0.4122 -0.2347
   99SAPS  H11A 9885  -0.091   1.437   6.300 -2.6825 -0.2547  0.2771
   99SAPS  H11B 9886  -0.219   1.512   6.191  1.0541 -0.1822 -0.6052
   99SAPS     P 9887  -0.217   1.756   6.300 -0.0636 -0.3185  0.4113
   99SAPS   O13 9888  -0.157   1.888   6.271  0.3907 -0.0072  0.1107
   99SAPS   O14 9889  -0.334   1.714   6.215  0.1950  0.2863  0.5470
   99SAPS   O12 9890  -0.099   1.648   6.292 -0.1547 -0.3484  0.3949
   99SAPS   O11 9891  -0.258   1.762   6.452  0.3549  0.2667 -0.0240
   99SAPS    C1 9892  -0.155   1.782   6.546 -0.5674 -0.2358 -0.0808
   99SAPS    HA 9893  -0.086   1.695   6.550 -0.5809 -0.1687  2.6262
   99SAPS    HB 9894  -0.085   1.861   6.511 -1.4533  0.5828 -0.0139
   99SAPS    C2 9895  -0.197   1.812   6.694 -0.6155 -0.0235  0.1198
   99SAPS    HS 9896  -0.114   1.860   6.750  0.4837 -2.4636  0.6319
   99SAPS   O21 9897  -0.234   1.686   6.752  0.2025  0.5431  0.3613
   99SAPS   C21 9898  -0.233   1.674   6.880  0.6613  0.6753  0.0725
   99SAPS   O22 9899  -0.187   1.752   6.963 -0.1230 -0.4097 -0.4333
   99SAPS   C22 9900  -0.282   1.536   6.916  0.1864 -0.7624  0.6028
   99SAPS   H2R 9901  -0.382   1.522   6.868 -1.4405  2.0714  3.0225
   99SAPS   H2S 9902  -0.210   1.464   6.872  1.8425  0.3888  1.3895
   99SAPS    C3 9903  -0.322   1.908   6.692  0.7113 -0.3040  0.4302
   99SAPS    HX 9904  -0.401   1.853   6.638  1.0018  0.6572 -0.9771
   99SAPS    HY 9905  -0.298   2.002   6.639  1.5975 -1.7077 -1.7423
   99SAPS   O31 9906  -0.359   1.949   6.822  0.3056 -1.1780  0.5215
   99SAPS   C31 9907  -0.470   1.891   6.873 -0.2046  0.2678 -0.9375
   99SAPS   O32 9908  -0.538   1.810   6.815 -0.9849 -0.4767 -0.4855
   99SAPS   C32 9909  -0.501   1.945   7.014 -0.2465  0.2945 -0.1529
   99SAPS   H2X 9910  -0.598   1.999   7.014 -0.7843 -0.6590 -0.9679
   99SAPS   H2Y 9911  -0.433   2.029   7.040  0.1353 -0.6808  2.1271
   99SAPS   C23 9912  -0.320   1.516   7.065  0.5372  0.7835 -0.0892
   99SAPS   H3R 9913  -0.388   1.599   7.094  0.4876  0.5368  0.4988
   99SAPS   H3S 9914  -0.224   1.508   7.119  1.6574  2.9258 -1.6866
   99SAPS   C24 9915  -0.391   1.375   7.074 -0.3313  0.7574 -0.1355
   99SAPS   H4R 9916  -0.307   1.306   7.053 -0.9543  0.5390 -2.0058
   99SAPS   H4S 9917  -0.459   1.364   6.987  0.0873 -0.5688 -0.3082
   99SAPS   C25 9918  -0.458   1.348   7.206  0.1248  0.5424 -0.2559
   99SAPS   H5R 9919  -0.399   1.375   7.296 -0.6957 -2.5229  1.2601
   99SAPS   C26 9920  -0.586   1.308   7.231 -0.0203 -0.4321  0.2597
   99SAPS   H6R 9921  -0.619   1.300   7.336  1.2415  1.8670  0.8484
   99SAPS   C27 9922  -0.702   1.295   7.127  0.5338 -0.4265  0.6830
   99SAPS   H7R 9923  -0.655   1.309   7.028 -0.8404  0.0959  0.1036
   99SAPS   H7S 9924  -0.774   1.376   7.151  1.2559  0.7729 -1.1319
   99SAPS   C28 9925  -0.761   1.155   7.140  0.1947  0.0177 -0.5100
   99SAPS   H8R 9926  -0.695   1.079   7.185 -1.3331  0.2620  2.2656
   99SAPS   C29 9927  -0.888   1.114   7.105 -0.1375  0.0070  0.2106
   99SAPS   H9R 9928  -0.910   1.006   7.105  1.4079 -0.3397 -1.0609
   99SAPS  C210 9929  -0.991   1.199   7.046 -0.2256 -0.3712  0.2886
   99SAPS  H10R 9930  -0.997   1.162   6.941 -0.1146 -0.3774  0.2836
   99SAPS  H10S 9931  -0.965   1.307   7.044  0.5110 -0.5497 -2.8613
   99SAPS  C211 9932  -1.121   1.177   7.117  1.2015 -0.2627  0.3542
   99SAPS  H11R 9933  -1.106   1.205   7.222  1.5032 -0.8335  0.4642
   99SAPS  C212 9934  -1.237   1.116   7.089 -0.5643 -0.5091 -0.6278
   99SAPS  H12R 9935  -1.327   1.120   7.152 -1.1127 -2.1668 -1.2807
   99SAPS  C213 9936  -1.271   1.049   6.963 -0.2232  0.0616  0.1526
   99SAPS  H13R 9937  -1.228   0.948   6.948  2.3174  1.0935  0.1927
   99SAPS  H13S 9938  -1.219   1.101   6.879 -0.6166 -1.0943 -0.8196
   99SAPS  C214 9939  -1.422   1.048   6.945  0.2611 -0.0301  0.5782
   99SAPS  H14R 9940  -1.457   1.133   6.886  2.0747  0.2298 -0.1351
   99SAPS  C215 9941  -1.509   0.958   6.985  0.2325 -0.5858  0.4775
   99SAPS  H15R 9942  -1.617   0.976   6.992  0.4001  0.3683  0.6619
   99SAPS  C216 9943  -1.477   0.831   7.056  0.5484  0.1653  0.0498
   99SAPS  H16R 9944  -1.367   0.818   7.067  1.2574  3.8157 -1.7722
   99SAPS  H16S 9945  -1.514   0.746   6.995 -1.6269  0.3179  1.1112
   99SAPS  C217 9946  -1.536   0.824   7.198 -0.3022  0.7781  0.0645
   99SAPS  H17R 9947  -1.524   0.719   7.233 -3.0634  0.7524  1.0553
   99SAPS  H17S 9948  -1.645   0.845   7.197 -0.3783  0.3829 -0.1057
   99SAPS  C218 9949  -1.473   0.903   7.305  0.2617 -0.2785 -0.1139
   99SAPS  H18R 9950  -1.534   0.896   7.398  0.4067  1.3391  0.1175
   99SAPS  H18S 9951  -1.459   1.008   7.273  0.4377 -0.3140 -0.1531
   99SAPS  C219 9952  -1.331   0.862   7.347  0.0681 -0.5751 -0.2444
   99SAPS  H19R 9953  -1.264   0.869   7.258 -2.2222 -0.7039 -2.0071
   99SAPS  H19S 9954  -1.333   0.757   7.383  2.2222 -1.0338 -1.3315
   99SAPS  C220 9955  -1.279   0.965   7.450  0.3437 -0.1629 -0.1268
   99SAPS  H20R 9956  -1.242   1.057   7.401  0.6343 -0.4772 -0.5030
   99SAPS  H20S 9957  -1.185   0.930   7.499  0.6120  1.1673  0.3267
   99SAPS  H20T 9958  -1.346   0.981   7.537  2.6833 -0.3179  1.7740
   99SAPS   C33 9959  -0.493   1.836   7.124  0.5686 -0.6374 -0.6878
   99SAPS   H3X 9960  -0.390   1.798   7.139 -0.0066 -1.4745  1.2278
   99SAPS   H3Y 9961  -0.560   1.754   7.091  0.8758 -0.4406 -1.8390
   99SAPS   C34 9962  -0.535   1.884   7.264  0.2910 -0.1219  0.1374
   99SAPS   H4X 9963  -0.638   1.925   7.254  0.2857  0.2846  1.8114
   99SAPS   H4Y 9964  -0.468   1.969   7.285  0.4038 -0.5548  1.5682
   99SAPS   C35 9965  -0.518   1.767   7.359 -0.1259 -0.0707 -0.1356
   99SAPS   H5X 9966  -0.408   1.759   7.371 -0.3802  0.0978  2.5281
   99SAPS   H5Y 9967  -0.561   1.679   7.307 -2.1932  1.7873 -1.6670
   99SAPS   C36 9968  -0.591   1.779   7.498 -0.0135  0.2168  0.0872
   99SAPS   H6X 9969  -0.694   1.791   7.458  0.2513 -1.1905 -1.0464
   99SAPS   H6Y 9970  -0.553   1.873   7.544 -1.2849 -0.1748  1.9868
   99SAPS   C37 9971  -0.563   1.660   7.587 -0.0490  0.0870 -0.8048
   99SAPS   H7X 9972  -0.505   1.582   7.535  1.5036 -0.4506  1.6222
   99SAPS   H7Y 9973  -0.655   1.609   7.622  0.1313 -0.0230 -0.4853
   99SAPS   C38 9974  -0.483   1.692   7.720 -0.5505  0.1920 -0.0535
   99SAPS   H8X 9975  -0.504   1.792   7.764  1.3637 -0.2899  2.0368
   99SAPS   H8Y 9976  -0.378   1.710   7.690 -0.5345 -0.8215 -0.6224
   99SAPS   C39 9977  -0.490   1.588   7.834  0.7015 -0.1243 -0.4893
   99SAPS   H9X 9978  -0.439   1.496   7.798  1.6532  0.5906 -0.9859
   99SAPS   H9Y 9979  -0.598   1.571   7.852  1.0979 -0.9399  1.2143
   99SAPS  C310 9980  -0.416   1.639   7.955  0.3698 -0.5229  0.3968
   99SAPS  H10X 9981  -0.442   1.746   7.969 -1.4694 -0.5319 -2.4960
   99SAPS  H10Y 9982  -0.310   1.641   7.924 -0.2180 -0.2393 -1.6641
   99SAPS  C311 9983  -0.437   1.560   8.082  0.2046  0.3095 -0.4653
   99SAPS  H11X 9984  -0.413   1.454   8.063 -0.4604 -0.1932  1.3796
   99SAPS  H11Y 9985  -0.541   1.563   8.122 -0.2885 -0.4299 -1.6543
   99SAPS  C312 9986  -0.345   1.603   8.198 -0.1946  0.0512 -0.3314
   99SAPS  H12X 9987  -0.364   1.705   8.235  1.4283  0.7026 -1.2136
   99SAPS  H12Y 9988  -0.237   1.609   8.173 -0.0005 -0.0504  0.4668
   99SAPS  C313 9989  -0.352   1.495   8.317  0.2903 -0.5897  0.3308
   99SAPS  H13X 9990  -0.366   1.398   8.264 -1.6154 -0.5678  0.7421
   99SAPS  H13Y 9991  -0.452   1.513   8.362 -0.9106 -0.9121 -2.1030
   99SAPS  C314 9992  -0.237   1.508   8.419  0.1786  0.8776  0.0576
   99SAPS  H14X 9993  -0.235   1.616   8.446  2.3638  1.6261 -2.8929
   99SAPS  H14Y 9994  -0.143   1.479   8.366  0.2446  1.9704 -0.4431
   99SAPS  C315 9995  -0.252   1.424   8.544 -0.7351 -0.5205 -0.1173
   99SAPS  H15X 9996  -0.166   1.438   8.613  0.3137 -2.3113 -1.0168
   99SAPS  H15Y 9997  -0.235   1.319   8.509  1.6738 -0.3212  0.3962
   99SAPS  C316 9998  -0.391   1.425   8.616 -0.3295  0.0185 -0.4026
   99SAPS  H16X 9999  -0.468   1.396   8.541  1.5831 -0.6435 -2.1482
   99SAPS  H16Y10000  -0.418   1.526   8.654 -2.0617 -1.0911  1.4639
   99SAPS  C31710001  -0.400   1.331   8.738 -0.2072  0.4367  0.5342
   99SAPS  H17X10002  -0.493   1.335   8.799 -0.3390  0.9441  0.3037
   99SAPS  H17Y10003  -0.320   1.379   8.799 -0.7468  2.0051  0.0424
   99SAPS  C31810004  -0.352   1.183   8.717 -0.5221 -0.6471 -0.1572
   99SAPS  H18X10005  -0.424   1.133   8.648  2.7222 -1.8387 -2.8434
   99SAPS  H18Y10006  -0.355   1.131   8.815  3.5613  0.7323  0.7758
   99SAPS  H18Z10007  -0.246   1.172   8.686 -0.5084 -2.6181  0.5125
  100SAPS     N10008   1.903   2.988   6.188  0.6803  0.2685 -0.0465
  100SAPS   HN110009   1.890   3.052   6.107  1.6665 -1.0705 -1.2899
  100SAPS   HN210010   1.817   2.941   6.220  0.7098  0.3386  0.1338
  100SAPS   HN310011   1.950   3.035   6.269 -0.6589  1.1282  0.2395
  100SAPS   C1210012   1.994   2.881   6.136  0.1981  0.0320 -0.4118
  100SAPS  H12A10013   1.973   2.804   6.208  2.2754  0.3658  0.6066
  100SAPS   C1310014   1.963   2.837   5.988 -0.3206  0.2719  0.7096
  100SAPS  O13A10015   1.910   2.931   5.918 -0.6630 -0.1428 -0.3387
  100SAPS  O13B10016   2.012   2.733   5.942  0.0838  0.0248 -0.1006
  100SAPS   C1110017   2.143   2.925   6.147 -0.9559 -0.0141  0.5752
  100SAPS  H11A10018   2.176   2.992   6.065 -1.9774 -0.7132 -0.4332
  100SAPS  H11B10019   2.209   2.835   6.149 -2.3776 -1.0784  0.7163
  100SAPS     P10020   2.305   3.061   6.308  0.6672 -0.1453  0.2052
  100SAPS   O1310021   2.407   2.967   6.265  0.4003  0.3851 -0.2477
  100SAPS   O1410022   2.318   3.204   6.270  0.3255  0.0236 -0.0415
  100SAPS   O1210023   2.163   2.996   6.274 -0.1530  0.2904  0.2582
  100SAPS   O1110024   2.323   3.056   6.462  0.1937 -0.6978 -0.3118
  100SAPS    C110025   2.232   3.112   6.563 -0.4077 -0.1915  0.0338
  100SAPS    HA10026   2.218   3.222   6.560 -2.1563 -0.3760  0.3539
  100SAPS    HB10027   2.132   3.064   6.563 -1.1412  1.2837 -1.3300
  100SAPS    C210028   2.293   3.088   6.703 -0.4640  0.4793  0.8801
  100SAPS    HS10029   2.401   3.114   6.695  0.8805 -4.9978 -0.4886
  100SAPS   O2110030   2.273   2.947   6.732 -0.1592  0.2769  0.0229
  100SAPS   C2110031   2.379   2.878   6.762 -0.1017 -0.9101  0.3080
  100SAPS   O2210032   2.491   2.922   6.745 -0.0448  0.5830  0.0016
  100SAPS   C2210033   2.342   2.748   6.832  0.6006 -0.4959  1.0002
  100SAPS   H2R10034   2.307   2.781   6.932 -1.9041 -0.9735  0.3154
  100SAPS   H2S10035   2.256   2.697   6.783  1.6181 -0.6340 -0.6788
  100SAPS    C310036   2.235   3.168   6.821 -0.2545 -0.0339  0.3220
  100SAPS    HX10037   2.128   3.137   6.828 -0.4168 -0.2996 -2.6294
  100SAPS    HY10038   2.233   3.278   6.806  0.4288 -0.2753 -1.6873
  100SAPS   O3110039   2.301   3.129   6.943 -0.0131 -0.5783 -0.2627
  100SAPS   C3110040   2.406   3.201   6.968  0.8267 -0.2970  0.1290
  100SAPS   O3210041   2.457   3.275   6.883  0.2586  0.3121  0.0648
  100SAPS   C3210042   2.470   3.177   7.113 -0.0914  0.4636 -0.2115
  100SAPS   H2X10043   2.436   3.258   7.181 -1.4888  0.3822 -0.7775
  100SAPS   H2Y10044   2.576   3.204   7.097  0.7972 -2.1861  0.8479
  100SAPS   C2310045   2.453   2.641   6.833  0.4956  0.1421 -0.3622
  100SAPS   H3R10046   2.539   2.685   6.888 -0.0854  1.6795 -0.6608
  100SAPS   H3S10047   2.489   2.604   6.735  0.8714  1.4507 -0.7244
  100SAPS   C2410048   2.408   2.515   6.904 -0.3834  0.2332 -0.2325
  100SAPS   H4R10049   2.379   2.535   7.009 -1.5711 -1.6320 -0.1740
  100SAPS   H4S10050   2.495   2.447   6.920 -1.4049 -1.1488 -0.4360
  100SAPS   C2510051   2.300   2.430   6.843 -0.6646  0.6564  0.4189
  100SAPS   H5R10052   2.300   2.449   6.735 -0.3604  0.9713  0.4771
  100SAPS   C2610053   2.204   2.358   6.903 -0.6506  0.2690  0.7052
  100SAPS   H6R10054   2.130   2.313   6.835  1.1383 -0.2133 -0.9622
  100SAPS   C2710055   2.193   2.333   7.053 -0.0684  0.5947  0.7421
  100SAPS   H7R10056   2.277   2.386   7.103  0.5704  1.1145 -0.8547
  100SAPS   H7S10057   2.221   2.228   7.079  2.4307  0.7191 -1.1901
  100SAPS   C2810058   2.059   2.352   7.120 -0.0581 -0.2586  0.4816
  100SAPS   H8R10059   2.008   2.442   7.084 -0.6740 -1.2221 -1.1368
  100SAPS   C2910060   1.992   2.272   7.207 -0.1743  0.6837  0.5391
  100SAPS   H9R10061   1.886   2.293   7.228 -0.8504 -0.8083 -1.2630
  100SAPS  C21010062   2.038   2.144   7.268 -0.2790  0.1358 -0.2039
  100SAPS  H10R10063   2.115   2.174   7.342  0.9175  1.1596 -1.8147
  100SAPS  H10S10064   2.093   2.094   7.185  1.0689  1.1731  0.0397
  100SAPS  C21110065   1.937   2.048   7.335  0.1979 -0.3988  0.1388
  100SAPS  H11R10066   1.911   1.953   7.286 -0.6025  0.2750 -0.7683
  100SAPS  C21210067   1.887   2.059   7.459 -0.0719  0.2459  0.0861
  100SAPS  H12R10068   1.801   1.995   7.482 -0.1063 -0.4733 -1.9153
  100SAPS  C21310069   1.909   2.171   7.556 -0.6573 -0.4656  0.5695
  100SAPS  H13R10070   1.814   2.228   7.555  0.3502  1.2898  1.5117
  100SAPS  H13S10071   1.992   2.232   7.515 -0.1297 -1.9393 -0.6292
  100SAPS  C21410072   1.964   2.133   7.687  0.1000  0.6983 -0.5455
  100SAPS  H14R10073   2.052   2.068   7.676  0.3181  1.1528 -1.6429
  100SAPS  C21510074   1.922   2.173   7.808 -0.1213  0.1772  0.2422
  100SAPS  H15R10075   1.977   2.139   7.897  2.6310  2.1365 -0.6465
  100SAPS  C21610076   1.803   2.265   7.834  0.2939  0.1157  1.1362
  100SAPS  H16R10077   1.710   2.223   7.790  0.3195  0.8744  0.3556
  100SAPS  H16S10078   1.820   2.361   7.781 -0.0915  0.9413  2.4721
  100SAPS  C21710079   1.783   2.309   7.981  0.3236  0.6143 -0.6946
  100SAPS  H17R10080   1.884   2.342   8.014 -0.1704  1.4708 -0.0287
  100SAPS  H17S10081   1.758   2.219   8.040 -1.9406  1.5638 -0.1401
  100SAPS  C21810082   1.679   2.423   7.992 -0.7336 -0.9251 -0.0764
  100SAPS  H18R10083   1.583   2.375   7.962 -1.9717  1.6347 -0.2880
  100SAPS  H18S10084   1.707   2.509   7.927  0.2237 -0.9426  0.3136
  100SAPS  C21910085   1.663   2.479   8.133  0.3323 -0.2313 -0.4077
  100SAPS  H19R10086   1.766   2.503   8.167  0.9827 -1.1948 -1.6272
  100SAPS  H19S10087   1.640   2.400   8.208  0.0287 -0.6573 -0.9443
  100SAPS  C22010088   1.575   2.594   8.143  0.0426  0.7102 -1.6453
  100SAPS  H20R10089   1.510   2.604   8.053 -1.9730  0.6813 -0.2299
  100SAPS  H20S10090   1.635   2.687   8.133 -0.2125  0.8583 -1.8191
  100SAPS  H20T10091   1.506   2.591   8.230  1.6761  0.9407 -0.3330
  100SAPS   C3310092   2.463   3.035   7.173  0.5538  0.3825  0.1923
  100SAPS   H3X10093   2.502   2.950   7.112  2.1270  1.4917 -0.3694
  100SAPS   H3Y10094   2.357   3.012   7.198  0.2368  0.5944 -0.9405
  100SAPS   C3410095   2.542   3.032   7.307 -0.1010  0.3045 -0.6381
  100SAPS   H4X10096   2.489   3.109   7.367 -0.9765 -1.6382  1.1423
  100SAPS   H4Y10097   2.651   3.050   7.305  0.0159 -0.0124  1.9709
  100SAPS   C3510098   2.531   2.894   7.364 -0.5106  0.0452  0.3746
  100SAPS   H5X10099   2.564   2.810   7.299  3.7076  0.5404  1.7410
  100SAPS   H5Y10100   2.426   2.881   7.398 -0.0986  1.1047  2.0961
  100SAPS   C3610101   2.622   2.870   7.488 -0.4343  0.2057 -1.0984
  100SAPS   H6X10102   2.602   2.951   7.561 -0.5384 -1.0368  0.2881
  100SAPS   H6Y10103   2.727   2.888   7.457 -0.1855  1.0089  0.1834
  100SAPS   C3710104   2.586   2.742   7.564  0.0648  0.3709  0.2668
  100SAPS   H7X10105   2.578   2.658   7.492  0.2091  0.1033  0.5670
  100SAPS   H7Y10106   2.488   2.751   7.615 -0.1380 -1.9491  0.3503
  100SAPS   C3810107   2.697   2.721   7.667  0.1682  0.5987  0.0559
  100SAPS   H8X10108   2.747   2.821   7.670 -2.9894  2.2262  0.6067
  100SAPS   H8Y10109   2.776   2.650   7.635 -1.0725 -0.7860  0.0180
  100SAPS   C3910110   2.643   2.691   7.806 -0.3976 -0.2550 -0.7247
  100SAPS   H9X10111   2.600   2.589   7.800  2.2154 -1.3714 -1.1121
  100SAPS   H9Y10112   2.558   2.760   7.823  0.3701 -0.0259  2.3991
  100SAPS  C31010113   2.760   2.697   7.910  0.0810 -0.0270 -1.2099
  100SAPS  H10X10114   2.795   2.801   7.925  0.1611 -0.2111 -0.0126
  100SAPS  H10Y10115   2.852   2.639   7.888  0.4560  0.0248  0.1337
  100SAPS  C31110116   2.713   2.662   8.055  0.2533  0.0761 -0.5333
  100SAPS  H11X10117   2.801   2.692   8.116 -2.0001 -0.3407  3.0822
  100SAPS  H11Y10118   2.699   2.553   8.071  3.4698 -0.3726 -0.4628
  100SAPS  C31210119   2.602   2.747   8.115  0.1631 -0.2113  0.8306
  100SAPS  H12X10120   2.562   2.699   8.206 -0.1559 -0.2509  0.6693
  100SAPS  H12Y10121   2.510   2.751   8.052  1.1375 -1.3455 -0.7344
  100SAPS  C31310122   2.652   2.890   8.146  0.5364 -0.7673 -0.5223
  100SAPS  H13X10123   2.679   2.941   8.051  0.5023  0.3123  0.0479
  100SAPS  H13Y10124   2.744   2.888   8.207 -0.0804  2.8480  0.6033
  100SAPS  C31410125   2.549   2.977   8.218 -0.9794 -0.5191  0.4943
  100SAPS  H14X10126   2.531   2.920   8.312  1.3812  0.5165  1.6160
  100SAPS  H14Y10127   2.446   2.965   8.179 -1.1636  0.9308  0.5267
  100SAPS  C31510128   2.600   3.118   8.232  0.3748  0.1565  0.2578
  100SAPS  H15X10129   2.552   3.162   8.142 -3.5661 -1.2825  1.5444
  100SAPS  H15Y10130   2.711   3.117   8.226  0.3382  0.1768 -0.4551
  100SAPS  C31610131   2.571   3.193   8.357  0.0474  0.2683  0.2134
  100SAPS  H16X10132   2.587   3.133   8.449  0.0024 -1.9370 -1.1984
  100SAPS  H16Y10133   2.461   3.208   8.348 -0.0598  1.4610  2.7712
  100SAPS  C31710134   2.645   3.329   8.368 -0.3841  0.3326 -0.2687
  100SAPS  H17X10135   2.639   3.385   8.273  1.3615 -3.1169 -2.5029
  100SAPS  H17Y10136   2.753   3.304   8.375 -0.4656 -0.1803 -0.8657
  100SAPS  C31810137   2.592   3.406   8.488 -0.1186 -0.6257 -0.0340
  100SAPS  H18X10138   2.577   3.335   8.572  2.4043 -0.0954  0.9083
  100SAPS  H18Y10139   2.492   3.449   8.467  0.1920  0.3727  0.4870
  100SAPS  H18Z10140   2.652   3.495   8.517 -0.9803  0.1144 -0.4800
  101OSM      N10141   1.570   3.993  10.718  0.2242  0.6099 -0.3493
  101OSM    C1510142   1.629   4.077  10.832 -0.5835 -0.5624 -0.8217
  101OSM   H15A10143   1.549   4.146  10.854 -0.4046 -0.6571  0.1413
  101OSM   H15B10144   1.721   4.121  10.797 -0.6208  0.0859 -0.1022
  101OSM   H15C10145   1.655   4.019  10.919 -0.4288 -0.1037 -0.5589
  101OSM    C1410146   1.432   3.947  10.769 -0.0691 -0.2525 -0.3378
  101OSM   H14A10147   1.451   3.912  10.870  0.2635 -0.8205 -0.5934
  101OSM   H14B10148   1.385   3.871  10.708 -0.0036 -1.8985  1.5934
  101OSM   H14C10149   1.388   4.044  10.785  2.0855  1.2138 -2.9006
  101OSM    C1310150   1.538   4.092  10.610 -0.6633  0.5745  0.5611
  101OSM   H13A10151   1.491   4.039  10.529 -1.6568  0.6441  1.0833
  101OSM   H13B10152   1.619   4.151  10.569 -1.1205  0.9479  0.2023
  101OSM   H13C10153   1.468   4.165  10.647  1.4816  2.1622  1.6095
  101OSM    C1210154   1.661   3.873  10.678  0.7248  0.2428  0.2931
  101OSM   H12A10155   1.687   3.808  10.760  0.4742  0.4324  0.5245
  101OSM   H12B10156   1.749   3.923  10.640  0.6190 -0.3856 -0.7986
  101OSM    C1110157   1.609   3.779  10.561 -0.3285 -0.6065  0.2512
  101OSM   H11A10158   1.698   3.716  10.536 -1.2853 -0.5670 -3.6371
  101OSM   H11B10159   1.577   3.833  10.469 -2.6571 -0.1926  1.2819
  101OSM      P10160   1.510   3.596  10.726 -0.0257  0.0343  0.0591
  101OSM    O1310161   1.623   3.629  10.818  0.4313 -0.3659  0.2509
  101OSM    O1410162   1.375   3.587  10.794  1.0704  0.5250  0.3619
  101OSM    O1110163   1.532   3.454  10.652 -0.0710 -0.2228  0.6411
  101OSM    O1210164   1.507   3.698  10.610 -0.0056  0.1696 -0.0121
  101OSM    C1S10165   1.442   3.410  10.550 -0.4151  0.4688  0.4541
  101OSM    H1S10166   1.338   3.441  10.577 -0.9898 -0.3706 -0.7526
  101OSM    H1T10167   1.433   3.299  10.546  0.5506  0.3794  0.6486
  101OSM     NF10168   1.393   3.421  10.294  0.4643  0.3418  0.1824
  101OSM    HNF10169   1.412   3.344  10.234 -0.0074 -1.2490  2.0317
  101OSM    C2S10170   1.492   3.456  10.403  0.1948  0.0596  0.3064
  101OSM    H2S10171   1.506   3.566  10.408 -1.0396  0.1552  1.8301
  101OSM    C3S10172   1.628   3.383  10.371 -0.1723 -0.2183  0.3674
  101OSM    H3S10173   1.611   3.274  10.378  0.8305 -0.2650  2.3704
  101OSM     O310174   1.732   3.388  10.474  0.4158  0.2798  0.0549
  101OSM    HO310175   1.689   3.414  10.556  3.2118  1.2549  1.2943
  101OSM    C4S10176   1.681   3.424  10.238  0.2263  0.2148  0.0750
  101OSM    H4S10177   1.635   3.372  10.152 -1.0285 -0.4278  1.1117
  101OSM    C5S10178   1.791   3.501  10.214  0.1920  0.6887 -0.1616
  101OSM    H5S10179   1.840   3.538  10.306 -1.2861  0.9230  0.5591
  101OSM    C6S10180   1.839   3.533  10.072 -0.1063  0.5972  0.7085
  101OSM    H6S10181   1.905   3.450  10.040 -2.0608 -0.8826  0.4113
  101OSM    H6T10182   1.899   3.626  10.075  0.3238  0.3261  0.3934
  101OSM    C7S10183   1.741   3.548   9.948  1.2607 -0.2304  0.0358
  101OSM    H7S10184   1.645   3.599   9.971 -0.4032 -3.4414  0.4429
  101OSM    H7T10185   1.715   3.445   9.917 -1.0397  1.0702 -2.5286
  101OSM    C8S10186   1.802   3.620   9.826  0.6146 -0.2996 -1.0584
  101OSM    H8S10187   1.903   3.576   9.810  0.7949 -0.9590  1.6795
  101OSM    H8T10188   1.810   3.728   9.849  5.3004 -0.4310 -1.6413
  101OSM    C9S10189   1.715   3.607   9.697  0.1759  0.2638  0.2732
  101OSM    H9S10190   1.614   3.654   9.694 -0.2965 -0.7217  0.6406
  101OSM    H9T10191   1.698   3.499   9.676 -0.8214  0.6441 -0.9551
  101OSM   C10S10192   1.784   3.675   9.586  0.1157 -0.1315  0.2210
  101OSM   H10S10193   1.874   3.617   9.555  1.0551  0.3911  1.9028
  101OSM   H10T10194   1.813   3.778   9.616  0.8819  0.0645 -1.1225
  101OSM   C11S10195   1.702   3.689   9.453  0.2812  1.3010 -0.0273
  101OSM   H11S10196   1.718   3.787   9.403  1.6851  0.7049 -0.7784
  101OSM   H11T10197   1.592   3.695   9.466  0.2884  1.7412 -0.1527
  101OSM   C12S10198   1.721   3.573   9.361  0.7762 -0.6006 -0.4577
  101OSM   H12S10199   1.706   3.482   9.423  1.5421 -0.3123  0.1514
  101OSM   H12T10200   1.822   3.579   9.315  0.1701 -0.8734 -1.8616
  101OSM   C13S10201   1.605   3.558   9.261 -0.7784  0.1483 -0.4802
  101OSM   H13S10202   1.572   3.665   9.261 -1.7334 -0.1051  2.6589
  101OSM   H13T10203   1.523   3.496   9.301 -0.6579  0.4349  0.2190
  101OSM   C14S10204   1.642   3.513   9.122 -0.5375  0.8451  0.3659
  101OSM   H14S10205   1.680   3.409   9.113 -0.8083  0.9463 -2.2280
  101OSM   H14T10206   1.713   3.586   9.076  1.4787 -0.6472  1.0560
  101OSM   C15S10207   1.526   3.523   9.017  0.1397  0.5297 -0.4110
  101OSM   H15S10208   1.484   3.626   9.018  1.0271  0.9370 -2.8765
  101OSM   H15T10209   1.454   3.441   9.040  0.3762  0.7023  0.9936
  101OSM   C16S10210   1.577   3.499   8.877 -0.6616 -0.0678  0.4110
  101OSM   H16S10211   1.631   3.586   8.833 -2.0958  2.2158  3.0096
  101OSM   H16T10212   1.487   3.482   8.814  1.2801 -0.2430 -2.4214
  101OSM   C17S10213   1.655   3.370   8.866  0.7131 -0.5166  0.2236
  101OSM   H17S10214   1.604   3.294   8.929  0.1174  0.1599  0.5565
  101OSM   H17T10215   1.753   3.385   8.916  0.4110  1.1356  0.3517
  101OSM   C18S10216   1.667   3.319   8.726 -0.1756 -0.5053  0.3586
  101OSM   H18S10217   1.714   3.402   8.669 -0.7810 -0.5202 -0.1614
  101OSM   H18T10218   1.576   3.280   8.675  0.5653  0.1463 -1.5150
  101OSM   H18U10219   1.737   3.233   8.720  1.3018  0.7682 -1.1866
  101OSM    C1F10220   1.275   3.481  10.288 -0.4872 -0.1713 -0.7440
  101OSM     OF10221   1.246   3.580  10.353 -0.7325 -0.3537 -0.2238
  101OSM    C2F10222   1.167   3.412  10.201  0.1762 -0.8869 -0.4331
  101OSM    H2F10223   1.182   3.302  10.204 -1.3270 -1.1033 -0.5922
  101OSM    H2G10224   1.177   3.445  10.095 -1.4701  0.6005 -0.1453
  101OSM    C3F10225   1.026   3.447  10.260 -0.1783 -0.0729  1.3543
  101OSM    H3F10226   1.026   3.557  10.276  0.9963  0.5773 -2.5189
  101OSM    H3G10227   0.996   3.388  10.349  2.0109 -0.9371  1.5489
  101OSM    C4F10228   0.905   3.444  10.157 -0.4146 -0.1815  0.2461
  101OSM    H4F10229   0.809   3.461  10.210 -2.4139 -1.0978 -2.9339
  101OSM    H4G10230   0.895   3.346  10.106 -0.2370  0.0522 -0.2390
  101OSM    C5F10231   0.918   3.561  10.052  0.4014 -0.0894 -0.1619
  101OSM    H5F10232   1.017   3.550  10.003  0.5570  1.3784 -0.2271
  101OSM    H5G10233   0.910   3.661  10.101  0.0477 -0.9960  1.7015
  101OSM    C6F10234   0.804   3.559   9.948  0.3471 -0.8938 -0.3296
  101OSM    H6F10235   0.785   3.666   9.926  1.2658 -0.2191  2.0074
  101OSM    H6G10236   0.708   3.512   9.979  1.4620 -2.0186  1.4364
  101OSM    C7F10237   0.846   3.498   9.817  0.2823  0.4391  0.0012
  101OSM    H7F10238   0.878   3.392   9.833 -1.3042 -0.0002  0.3457
  101OSM    H7G10239   0.939   3.538   9.770  0.3599 -0.6354 -0.7843
  101OSM    C8F10240   0.751   3.501   9.691 -0.1273 -0.1285  0.0037
  101OSM    H8F10241   0.788   3.585   9.628  0.9774  0.3301  1.2240
  101OSM    H8G10242   0.647   3.519   9.727 -0.7043 -3.0648 -0.0676
  101OSM    C9F10243   0.752   3.371   9.613  0.1040 -0.0493  0.6525
  101OSM    H9F10244   0.709   3.290   9.674  0.0621 -0.5892 -0.0909
  101OSM   C10F10245   0.781   3.346   9.483 -0.3407 -0.0644  0.3624
  101OSM   H10F10246   0.768   3.241   9.454  0.3789 -0.0225 -0.1321
  101OSM   C11F10247   0.833   3.433   9.373  0.0474  0.3698  0.2231
  101OSM   H11F10248   0.944   3.424   9.371  0.1665  1.9006 -0.3696
  101OSM   H11G10249   0.810   3.542   9.379 -3.0514 -0.1635 -1.0476
  101OSM   C12F10250   0.775   3.379   9.241 -0.1122 -0.6253 -0.2339
  101OSM   H12F10251   0.806   3.275   9.216 -1.4433 -1.1698  0.3086
  101OSM   H12G10252   0.815   3.433   9.153  1.0436 -1.9266 -0.5116
  101OSM   C13F10253   0.628   3.393   9.234  0.7676 -0.2371 -0.2863
  101OSM   H13F10254   0.582   3.487   9.270  1.3728  0.3290 -0.9969
  101OSM   H13G10255   0.582   3.309   9.291  1.6642  1.4269  3.0094
  101OSM   C14F10256   0.568   3.394   9.096  0.5554  0.8114  0.3833
  101OSM   H14F10257   0.459   3.380   9.086  0.9548 -0.2452 -3.1915
  101OSM   H14G10258   0.603   3.308   9.036 -2.6555 -0.2637 -0.0376
  101OSM   C15F10259   0.594   3.525   9.017  0.0145 -0.2416  0.7769
  101OSM   H15F10260   0.587   3.504   8.908 -0.2667  0.1649  0.7130
  101OSM   H15G10261   0.697   3.561   9.035  0.3143 -0.0560 -1.1931
  101OSM   C16F10262   0.499   3.633   9.053  0.0511  0.3057 -0.2276
  101OSM   H16F10263   0.505   3.652   9.162  0.3511  1.5641 -0.4587
  101OSM   H16G10264   0.397   3.592   9.035  0.7913 -1.3415 -0.8351
  101OSM   C17F10265   0.531   3.758   8.981  0.3037 -0.0759  0.0729
  101OSM   H17F10266   0.505   3.737   8.875 -1.7749 -1.4506  0.8290
  101OSM   H17G10267   0.640   3.775   8.989  0.4084 -1.3949  1.7545
  101OSM   C18F10268   0.457   3.874   9.052 -0.1649 -0.0850  0.0556
  101OSM   H18F10269   0.477   3.972   9.003  1.7180 -0.9267 -0.8955
  101OSM   H18G10270   0.468   3.879   9.162  2.2591  0.6591 -0.1885
  101OSM   H18H10271   0.347   3.867   9.035 -0.3514  0.6215  0.9500
  102OSM      N10272   0.788   2.583  11.217  0.4030 -0.1701  0.1197
  102OSM    C1510273   0.929   2.628  11.236  0.8311 -0.6978 -0.4591
  102OSM   H15A10274   0.938   2.706  11.310  2.1560 -2.4564  1.2793
  102OSM   H15B10275   0.971   2.657  11.141 -0.4412 -0.5839 -0.9987
  102OSM   H15C10276   0.983   2.550  11.288  0.0777 -0.7656  0.2501
  102OSM    C1410277   0.731   2.534  11.351  0.1834 -0.4019  0.8996
  102OSM   H14A10278   0.798   2.464  11.399  1.3164  0.5394  0.7044
  102OSM   H14B10279   0.634   2.487  11.346 -0.5311  0.8535  2.5832
  102OSM   H14C10280   0.718   2.615  11.421 -1.8600 -0.7540  0.9664
  102OSM    C1310281   0.700   2.702  11.182  0.1119  0.1482 -0.7726
  102OSM   H13A10282   0.696   2.756  11.276  3.8549  1.6219 -1.3590
  102OSM   H13B10283   0.596   2.687  11.156  0.2762  0.0482 -1.3808
  102OSM   H13C10284   0.745   2.768  11.109 -0.6860  0.7364 -0.7414
  102OSM    C1210285   0.788   2.467  11.120 -1.4739  0.3340  0.5780
  102OSM   H12A10286   0.695   2.411  11.131 -0.5788 -0.7764  3.0158
  102OSM   H12B10287   0.871   2.405  11.149 -1.5122 -1.1631 -2.3519
  102OSM    C1110288   0.815   2.486  10.966 -0.3414  0.6665 -0.0446
  102OSM   H11A10289   0.733   2.548  10.923 -1.2502 -1.4361 -1.4697
  102OSM   H11B10290   0.801   2.384  10.925 -0.3414  0.3423  0.7480
  102OSM      P10291   1.056   2.474  10.857 -0.2620 -0.1354  0.1216
  102OSM    O1310292   1.172   2.560  10.845  0.2441 -0.4521 -0.3797
  102OSM    O1410293   1.072   2.343  10.922 -0.8550  0.3808 -0.0358
  102OSM    O1110294   0.986   2.460  10.711  0.0300 -0.8158  0.2108
  102OSM    O1210295   0.941   2.549  10.938 -0.2495 -0.0376 -0.0920
  102OSM    C1S10296   0.906   2.567  10.661 -0.9996  0.9854  0.1955
  102OSM    H1S10297   0.948   2.665  10.692  2.6158 -0.4554  0.1206
  102OSM    H1T10298   0.807   2.550  10.708 -1.4006 -0.0611 -0.9834
  102OSM     NF10299   0.814   2.683  10.463  0.3000 -1.3880 -0.7033
  102OSM    HNF10300   0.723   2.665  10.427 -0.4204  1.3467 -0.3626
  102OSM    C2S10301   0.893   2.563  10.504 -0.1912  0.0910  1.0179
  102OSM    H2S10302   0.992   2.566  10.454 -0.3876 -2.2770  0.4636
  102OSM    C3S10303   0.827   2.427  10.464 -0.1411 -0.5379 -0.1040
  102OSM    H3S10304   0.733   2.430  10.524 -0.2481  0.7138 -0.3064
  102OSM     O310305   0.890   2.316  10.513  0.0943  0.0854  0.1623
  102OSM    HO310306   0.943   2.355  10.583  0.5388  0.3331 -0.3162
  102OSM    C4S10307   0.802   2.423  10.317 -0.0107 -1.1483 -0.1898
  102OSM    H4S10308   0.702   2.460  10.288  1.0374  0.4821 -1.8276
  102OSM    C5S10309   0.881   2.364  10.230  0.4740 -0.4752  0.1688
  102OSM    H5S10310   0.977   2.326  10.268 -0.4064  0.2816  3.3561
  102OSM    C6S10311   0.861   2.355  10.082 -0.4820 -0.1168 -0.2145
  102OSM    H6S10312   0.875   2.250  10.048 -1.0494 -0.6624  1.2056
  102OSM    H6T10313   0.948   2.404  10.034 -1.1035  1.9231  0.6942
  102OSM    C7S10314   0.731   2.401  10.023  0.9513 -0.2157 -0.0104
  102OSM    H7S10315   0.720   2.511  10.035 -1.1687 -0.2303 -1.4446
  102OSM    H7T10316   0.652   2.355  10.086 -0.6506 -0.1547 -1.9217
  102OSM    C8S10317   0.721   2.358   9.876  0.3612  0.8726  0.0416
  102OSM    H8S10318   0.615   2.352   9.845  0.1780 -0.6910  0.9305
  102OSM    H8T10319   0.757   2.255   9.859 -0.6293  0.0951  2.4576
  102OSM    C9S10320   0.795   2.451   9.783  0.0811 -0.4031  0.1698
  102OSM    H9S10321   0.902   2.452   9.813 -0.0670  0.3901  0.6981
  102OSM    H9T10322   0.763   2.557   9.782 -0.2523 -0.4841 -3.2373
  102OSM   C10S10323   0.773   2.414   9.629 -0.4558  0.2527 -0.5953
  102OSM   H10S10324   0.666   2.393   9.607 -0.1626  0.1741 -1.9793
  102OSM   H10T10325   0.827   2.319   9.612 -1.2160 -0.7271  2.2371
  102OSM   C11S10326   0.821   2.527   9.531  0.8411 -0.0281 -0.7149
  102OSM   H11S10327   0.924   2.557   9.560  0.7157 -0.1401 -0.1568
  102OSM   H11T10328   0.753   2.615   9.540 -1.1701 -1.6698  0.4552
  102OSM   C12S10329   0.806   2.500   9.382  0.1458 -0.0026  0.9986
  102OSM   H12S10330   0.828   2.597   9.333 -1.5657  0.5622  1.3164
  102OSM   H12T10331   0.699   2.481   9.359  0.1802  1.2327 -0.2381
  102OSM   C13S10332   0.894   2.385   9.342 -0.2098 -0.1904  0.3203
  102OSM   H13S10333   0.863   2.298   9.405 -0.0141  0.1709  0.9220
  102OSM   H13T10334   0.999   2.411   9.369 -0.0637  1.2972 -1.6110
  102OSM   C14S10335   0.884   2.334   9.197  0.1665 -0.2736  0.3140
  102OSM   H14S10336   0.776   2.311   9.185  0.7714 -2.5314 -1.1769
  102OSM   H14T10337   0.935   2.238   9.177 -0.0135 -0.2905 -0.0737
  102OSM   C15S10338   0.943   2.437   9.090 -0.0735 -0.1720  0.4902
  102OSM   H15S10339   1.047   2.465   9.116 -0.4495 -1.1094  3.1717
  102OSM   H15T10340   0.876   2.525   9.101  1.1305  0.6826  1.0771
  102OSM   C16S10341   0.938   2.387   8.945 -0.0391  0.4395 -0.1827
  102OSM   H16S10342   0.834   2.361   8.914  0.6822 -1.5859 -0.9857
  102OSM   H16T10343   0.993   2.291   8.939 -1.7289 -0.5517 -0.4387
  102OSM   C17S10344   1.004   2.480   8.840  0.9378 -0.3778 -0.6464
  102OSM   H17S10345   1.094   2.516   8.894  2.0772 -3.0067 -0.6743
  102OSM   H17T10346   0.928   2.556   8.816 -1.1832 -1.3916  2.6211
  102OSM   C18S10347   1.061   2.402   8.717  0.2374 -0.6522  0.4770
  102OSM   H18S10348   0.980   2.369   8.649  0.8085  1.3285 -1.2305
  102OSM   H18T10349   1.107   2.306   8.750  0.1456 -1.3838 -1.4367
  102OSM   H18U10350   1.134   2.467   8.664  0.3807 -0.5735  0.7723
  102OSM    C1F10351   0.856   2.812  10.472 -0.2899 -0.7152  1.3139
  102OSM     OF10352   0.968   2.834  10.506  0.3290 -0.7613 -0.1505
  102OSM    C2F10353   0.749   2.907  10.439  0.0125 -0.5002 -0.3371
  102OSM    H2F10354   0.726   2.966  10.530  1.3767  0.1231 -0.3935
  102OSM    H2G10355   0.653   2.865  10.402  0.1405 -0.8053 -0.3239
  102OSM    C3F10356   0.801   3.005  10.334 -0.4309  0.5733 -0.0297
  102OSM    H3F10357   0.887   3.067  10.367  0.2572 -0.6280  0.4695
  102OSM    H3G10358   0.716   3.074  10.316 -0.2023 -0.2941 -5.1281
  102OSM    C4F10359   0.820   2.944  10.191  0.0471 -0.5618 -0.2229
  102OSM    H4F10360   0.775   2.843  10.185 -0.5865 -0.3029  0.0858
  102OSM    H4G10361   0.930   2.930  10.182  0.6588  1.7057  2.7164
  102OSM    C5F10362   0.779   3.036  10.071 -0.7558  0.9495 -0.5034
  102OSM    H5F10363   0.830   3.135  10.073  0.9744  0.0552  0.7274
  102OSM    H5G10364   0.670   3.051  10.078 -0.9481  0.0851 -1.4915
  102OSM    C6F10365   0.794   2.956   9.941 -0.4579 -0.0458 -0.6279
  102OSM    H6F10366   0.733   2.865   9.959 -0.0245  0.2491  2.5591
  102OSM    H6G10367   0.901   2.927   9.944  0.0901  2.0146  3.2825
  102OSM    C7F10368   0.758   3.032   9.809 -0.4288 -0.2993 -0.0858
  102OSM    H7F10369   0.829   3.115   9.787 -1.7993  1.1907  0.9274
  102OSM    H7G10370   0.651   3.061   9.819 -0.5872 -1.3589  1.4346
  102OSM    C8F10371   0.764   2.951   9.679 -0.7122 -0.4107 -0.5716
  102OSM    H8F10372   0.854   2.886   9.674  0.9590  1.6496  1.5369
  102OSM    H8G10373   0.778   3.027   9.600 -1.4600  1.7576  1.3229
  102OSM    C9F10374   0.640   2.867   9.646  0.2406 -0.0723  0.3645
  102OSM    H9F10375   0.624   2.782   9.713 -1.3663  0.3256  0.5053
  102OSM   C10F10376   0.563   2.887   9.541  0.2843  0.0278 -0.6517
  102OSM   H10F10377   0.472   2.826   9.531  0.0101  0.4308 -0.6339
  102OSM   C11F10378   0.562   2.986   9.424  0.4506 -0.4664 -0.4244
  102OSM   H11F10379   0.596   3.087   9.455  0.1785 -1.0061  1.7734
  102OSM   H11G10380   0.461   3.002   9.383  0.5524 -0.9944 -0.8813
  102OSM   C12F10381   0.651   2.941   9.303 -0.4659 -0.6358 -0.5183
  102OSM   H12F10382   0.755   2.906   9.322 -0.6057 -1.4504 -1.2559
  102OSM   H12G10383   0.636   3.020   9.226 -2.2917 -0.2100  0.2365
  102OSM   C13F10384   0.576   2.815   9.232 -0.3001 -0.6986  0.3468
  102OSM   H13F10385   0.471   2.844   9.208 -0.1195  0.3080  0.7825
  102OSM   H13G10386   0.577   2.730   9.304  1.0604 -1.6608 -0.7878
  102OSM   C14F10387   0.641   2.784   9.101 -0.0528 -0.0938  0.1303
  102OSM   H14F10388   0.742   2.745   9.125  0.0503  0.7642  1.1062
  102OSM   H14G10389   0.647   2.874   9.036 -2.4473 -0.3490 -0.4763
  102OSM   C15F10390   0.571   2.669   9.019 -0.3189  0.6473 -0.5695
  102OSM   H15F10391   0.461   2.680   9.019 -0.3096  0.8594  0.5393
  102OSM   H15G10392   0.597   2.569   9.060 -1.3796  0.5312 -0.1882
  102OSM   C16F10393   0.625   2.660   8.874 -0.1817  0.0748  0.2384
  102OSM   H16F10394   0.736   2.649   8.879 -0.2751 -1.5604 -0.8711
  102OSM   H16G10395   0.597   2.754   8.821  0.2727  1.6422  2.7117
  102OSM   C17F10396   0.564   2.546   8.797 -0.4597 -0.3320  0.0336
  102OSM   H17F10397   0.518   2.471   8.864  0.0339  0.0631  0.8279
  102OSM   H17G10398   0.639   2.477   8.755 -0.3445 -1.3895  1.9127
  102OSM   C18F10399   0.455   2.594   8.701  0.1095 -0.4002 -0.0433
  102OSM   H18F10400   0.495   2.642   8.609 -0.9075 -1.7307 -1.2092
  102OSM   H18G10401   0.381   2.661   8.749  0.6546  0.4075 -0.3111
  102OSM   H18H10402   0.395   2.508   8.664 -1.2793  0.6588 -0.2840
  103OSM      N10403   1.841   5.372  11.219  0.1507  0.1362 -0.0436
  103OSM    C1510404   1.859   5.497  11.293  0.3219  0.2506  0.1207
  103OSM   H15A10405   1.834   5.494  11.398 -0.5374 -4.7143 -0.0917
  103OSM   H15B10406   1.789   5.567  11.250  0.9336  2.0481  2.0195
  103OSM   H15C10407   1.960   5.531  11.273  1.2458 -1.7840  1.1269
  103OSM    C1410408   1.924   5.272  11.282  1.2028  0.4078 -0.2185
  103OSM   H14A10409   1.914   5.175  11.236  0.6417  0.3697 -0.0164
  103OSM   H14B10410   1.897   5.258  11.386 -0.5587  2.4287 -0.3729
  103OSM   H14C10411   2.028   5.301  11.287  0.9740  1.0578  0.8241
  103OSM    C1310412   1.698   5.335  11.216 -0.1639  0.2293  0.1377
  103OSM   H13A10413   1.632   5.404  11.166 -0.7434  0.2142  0.8595
  103OSM   H13B10414   1.648   5.323  11.312  0.5971  2.7137  0.8788
  103OSM   H13C10415   1.675   5.244  11.163  0.5451  0.6701 -0.9256
  103OSM    C1210416   1.881   5.387  11.071 -0.5521  0.2696 -0.0623
  103OSM   H12A10417   1.821   5.471  11.040 -0.1558  1.4377  2.2527
  103OSM   H12B10418   1.847   5.298  11.021  1.1056 -0.8477  0.7482
  103OSM    C1110419   2.029   5.420  11.035 -0.3411 -0.4897 -0.4133
  103OSM   H11A10420   2.060   5.357  10.949  2.7348 -2.0789  1.7508
  103OSM   H11B10421   2.091   5.383  11.119  0.9804  2.4805  0.0006
  103OSM      P10422   2.142   5.641  10.941 -0.0726 -0.4324  0.5443
  103OSM    O1310423   2.077   5.751  10.869  0.1817 -0.1255  0.0127
  103OSM    O1410424   2.256   5.678  11.029  0.4001  0.3871  0.4017
  103OSM    O1110425   2.187   5.525  10.839  0.2221 -0.4516  0.0568
  103OSM    O1210426   2.032   5.563  11.026  0.0971  0.6211 -0.0616
  103OSM    C1S10427   2.108   5.483  10.730  0.2732  0.2927  0.0768
  103OSM    H1S10428   2.003   5.521  10.729 -0.6189 -2.0991 -2.3588
  103OSM    H1T10429   2.082   5.377  10.747  0.5937  0.0824 -0.7078
  103OSM     NF10430   2.075   5.442  10.489 -0.1407  0.4137  0.2282
  103OSM    HNF10431   2.082   5.347  10.459  1.3923  0.2035  1.1639
  103OSM    C2S10432   2.173   5.490  10.586 -0.1475 -0.1501  0.1008
  103OSM    H2S10433   2.194   5.597  10.565  0.8894 -0.2457  0.6399
  103OSM    C3S10434   2.317   5.415  10.597  0.2754 -0.0660  0.3515
  103OSM    H3S10435   2.289   5.308  10.600 -1.8113  0.4848  2.2037
  103OSM     O310436   2.393   5.451  10.715 -0.2333  0.6098 -0.3997
  103OSM    HO310437   2.330   5.494  10.774 -0.4782  1.3320 -1.1781
  103OSM    C4S10438   2.409   5.446  10.482 -0.8475  0.3631  0.5557
  103OSM    H4S10439   2.441   5.551  10.489  1.2418 -0.2275  0.1674
  103OSM    C5S10440   2.466   5.358  10.393 -0.0370 -0.2560 -0.5190
  103OSM    H5S10441   2.458   5.251  10.416 -0.9671 -0.0560  0.1166
  103OSM    C6S10442   2.568   5.397  10.285 -0.1864 -0.5551 -0.0775
  103OSM    H6S10443   2.564   5.326  10.199  2.6691 -1.8500  0.7997
  103OSM    H6T10444   2.666   5.401  10.338 -0.2917 -1.5643  0.2105
  103OSM    C7S10445   2.549   5.541  10.212 -0.0138  0.3744  0.4658
  103OSM    H7S10446   2.543   5.619  10.291 -1.1898 -1.2991  2.0452
  103OSM    H7T10447   2.445   5.534  10.173  0.5545  1.4593 -1.3327
  103OSM    C8S10448   2.657   5.584  10.117  0.2393 -0.1376 -0.3620
  103OSM    H8S10449   2.759   5.606  10.154  0.3755  3.2314 -2.5595
  103OSM    H8T10450   2.624   5.681  10.075  0.8151  1.1166  2.0034
  103OSM    C9S10451   2.682   5.484  10.011  0.1873  0.6506 -0.0655
  103OSM    H9S10452   2.672   5.380  10.049  2.5130  0.0303 -1.0734
  103OSM    H9T10453   2.779   5.497   9.960  0.7033 -0.0879  0.7039
  103OSM   C10S10454   2.573   5.479   9.897 -0.1296 -0.5741  0.2912
  103OSM   H10S10455   2.565   5.585   9.865 -0.3044 -0.9537 -0.9317
  103OSM   H10T10456   2.473   5.443   9.931 -0.9545  0.7678 -0.6621
  103OSM   C11S10457   2.614   5.391   9.774 -0.4746 -0.1618 -0.4084
  103OSM   H11S10458   2.661   5.299   9.817 -0.5161  0.5328  1.1726
  103OSM   H11T10459   2.697   5.451   9.733 -0.1772  0.8650  1.6032
  103OSM   C12S10460   2.499   5.358   9.672  0.2524 -0.1827 -0.3735
  103OSM   H12S10461   2.431   5.441   9.645  2.4136  1.9676  0.6106
  103OSM   H12T10462   2.437   5.286   9.728 -1.7293  2.8447  1.4652
  103OSM   C13S10463   2.545   5.296   9.538  0.0572 -0.0300  0.0638
  103OSM   H13S10464   2.633   5.230   9.557 -1.3997 -1.3112  2.7429
  103OSM   H13T10465   2.598   5.370   9.474  0.3344 -1.2838 -1.1970
  103OSM   C14S10466   2.442   5.230   9.454 -0.4289 -0.6508  0.3219
  103OSM   H14S10467   2.357   5.302   9.444  1.5654  1.6309 -0.7229
  103OSM   H14T10468   2.410   5.136   9.503  1.5343 -0.7157  1.5446
  103OSM   C15S10469   2.500   5.191   9.317  0.0391  0.7608  0.3220
  103OSM   H15S10470   2.576   5.113   9.337 -0.6836 -1.1961 -3.9863
  103OSM   H15T10471   2.547   5.284   9.277 -0.7873  0.5125 -1.2727
  103OSM   C16S10472   2.391   5.140   9.220  0.2886  0.4539  0.1564
  103OSM   H16S10473   2.305   5.208   9.198 -0.1448 -0.6180 -1.5523
  103OSM   H16T10474   2.354   5.044   9.262  0.2149  0.7761  0.8315
  103OSM   C17S10475   2.449   5.106   9.080 -0.2396 -0.0872  1.1034
  103OSM   H17S10476   2.514   5.016   9.089  0.5626  0.3425 -0.1914
  103OSM   H17T10477   2.512   5.190   9.045 -1.2270 -0.4154 -1.6385
  103OSM   C18S10478   2.337   5.087   8.976  0.3675  0.2621  0.0153
  103OSM   H18S10479   2.260   5.167   8.982  3.9559  3.8459  0.2988
  103OSM   H18T10480   2.292   4.988   8.997 -1.5120  1.1529  0.3381
  103OSM   H18U10481   2.381   5.079   8.875 -0.5044 -2.3796 -0.1869
  103OSM    C1F10482   1.966   5.507  10.453 -0.0569  0.0198  0.2407
  103OSM     OF10483   1.958   5.624  10.497 -0.1924 -0.0472 -0.4029
  103OSM    C2F10484   1.850   5.439  10.378 -0.7092  0.0453 -0.6066
  103OSM    H2F10485   1.754   5.495  10.383  0.1560  1.3601  1.6924
  103OSM    H2G10486   1.839   5.337  10.422  4.3984 -0.9038 -1.1714
  103OSM    C3F10487   1.880   5.419  10.227  0.1676  0.3123  0.0987
  103OSM    H3F10488   1.966   5.353  10.206 -1.3544 -1.8215  0.3376
  103OSM    H3G10489   1.908   5.519  10.191 -2.4756  0.8752 -0.5331
  103OSM    C4F10490   1.765   5.380  10.136 -0.1608 -0.2176  0.6003
  103OSM    H4F10491   1.674   5.440  10.156 -0.3471  0.0178 -0.9414
  103OSM    H4G10492   1.741   5.274  10.162 -0.7091 -0.0709  0.6862
  103OSM    C5F10493   1.796   5.390   9.987  0.4506  0.1008  0.0865
  103OSM    H5F10494   1.881   5.323   9.961 -0.5982 -0.7829 -1.1277
  103OSM    H5G10495   1.815   5.498   9.973  0.1602  0.3836  1.8005
  103OSM    C6F10496   1.679   5.362   9.891  0.1295  0.7020 -0.3716
  103OSM    H6F10497   1.605   5.445   9.900 -3.3513 -1.9868 -2.5577
  103OSM    H6G10498   1.636   5.270   9.935  1.3363  0.7507  0.9391
  103OSM    C7F10499   1.728   5.318   9.752 -0.3111 -0.1506 -0.2842
  103OSM    H7F10500   1.652   5.263   9.693 -1.4880  2.0006 -0.8136
  103OSM    H7G10501   1.811   5.246   9.762 -1.9456 -2.1633 -0.9011
  103OSM    C8F10502   1.779   5.441   9.671 -0.2568 -0.2189 -0.2715
  103OSM    H8F10503   1.837   5.514   9.732  1.3753 -0.8364 -1.0307
  103OSM    H8G10504   1.696   5.503   9.633 -0.1884  0.6556  0.9873
  103OSM    C9F10505   1.864   5.416   9.555 -0.2636 -0.5513 -0.6126
  103OSM    H9F10506   1.969   5.395   9.579 -0.5685  1.7013  3.0610
  103OSM   C10F10507   1.824   5.399   9.426 -0.0595  0.0645  0.1301
  103OSM   H10F10508   1.899   5.362   9.355  3.1378  3.8261  1.3734
  103OSM   C11F10509   1.690   5.422   9.358 -0.9758  0.0536  0.5108
  103OSM   H11F10510   1.699   5.495   9.275  1.3504  0.2060  0.8664
  103OSM   H11G10511   1.619   5.451   9.439  1.5449  3.1232  1.6865
  103OSM   C12F10512   1.629   5.296   9.293  0.7555 -0.0856 -1.1765
  103OSM   H12F10513   1.534   5.342   9.260  0.3966 -0.7190 -1.0309
  103OSM   H12G10514   1.595   5.218   9.365  3.0818  0.1688  0.2527
  103OSM   C13F10515   1.715   5.238   9.188  0.5696 -0.2265  0.4039
  103OSM   H13F10516   1.741   5.319   9.117 -1.8782 -0.6969 -1.1134
  103OSM   H13G10517   1.796   5.185   9.241 -0.3498 -3.0133 -0.8787
  103OSM   C14F10518   1.628   5.144   9.099 -0.0197  0.2245 -0.2802
  103OSM   H14F10519   1.565   5.201   9.027 -0.2996  2.9241  2.0113
  103OSM   H14G10520   1.578   5.070   9.165  0.9687 -0.6138 -0.4540
  103OSM   C15F10521   1.712   5.064   9.005 -0.3827  0.7588 -0.4448
  103OSM   H15F10522   1.658   4.971   8.974  0.5368  0.6862 -1.8690
  103OSM   H15G10523   1.799   5.027   9.063 -0.1541  1.2404 -0.4802
  103OSM   C16F10524   1.761   5.157   8.890 -0.0044 -0.2220  0.1266
  103OSM   H16F10525   1.839   5.232   8.917  0.1337 -0.3248  0.0122
  103OSM   H16G10526   1.681   5.225   8.855  0.1682  0.9801  1.9967
  103OSM   C17F10527   1.806   5.077   8.760  0.6435  0.6588  1.0214
  103OSM   H17F10528   1.799   5.153   8.679 -3.6733 -1.5113 -0.8170
  103OSM   H17G10529   1.725   5.004   8.737  0.6544  0.5128  1.4579
  103OSM   C18F10530   1.938   5.000   8.764  0.3091  0.2995  0.9650
  103OSM   H18F10531   1.954   4.942   8.670  3.2068 -0.2880  1.7873
  103OSM   H18G10532   1.945   4.952   8.864 -3.2873 -2.2038  0.1271
  103OSM   H18H10533   2.017   5.076   8.780  1.5706 -0.6001 -0.8087
  104OSM      N10534   5.987   4.741  10.964 -0.6246  0.2740  0.2450
  104OSM    C1510535   6.011   4.597  10.964 -0.3553 -0.1159  0.0466
  104OSM   H15A10536   5.919   4.544  10.940 -0.3445 -0.2069  0.2082
  104OSM   H15B10537   6.060   4.563  11.053  0.1313 -0.6237 -0.4126
  104OSM   H15C10538   6.079   4.574  10.883 -0.2693 -1.9542  0.6123
  104OSM    C1410539   5.898   4.780  11.069 -0.3581  0.2223  0.2568
  104OSM   H14A10540   5.855   4.875  11.044  0.9261 -0.1134 -3.4361
  104OSM   H14B10541   5.950   4.779  11.164  0.4882 -0.6647 -0.2058
  104OSM   H14C10542   5.817   4.709  11.074  0.2297 -0.6069 -1.5301
  104OSM    C1310543   6.122   4.801  10.989 -0.6809  0.5629 -0.4237
  104OSM   H13A10544   6.099   4.904  11.013  0.3388  0.2871  1.9512
  104OSM   H13B10545   6.175   4.795  10.896  0.2890 -0.7980  0.1892
  104OSM   H13C10546   6.163   4.750  11.076 -0.8905 -1.5412 -1.5355
  104OSM    C1210547   5.929   4.792  10.829  0.5244 -0.8449 -0.7520
  104OSM   H12A10548   5.891   4.891  10.848 -0.6291 -1.1226 -1.5703
  104OSM   H12B10549   5.839   4.738  10.806  0.2463 -0.1141 -1.4032
  104OSM    C1110550   6.025   4.790  10.710  0.2645  0.0750 -0.0651
  104OSM   H11A10551   5.957   4.826  10.630 -1.2582  0.1790  1.2360
  104OSM   H11B10552   6.058   4.688  10.680  0.8997 -0.2350  1.6186
  104OSM      P10553   6.260   4.859  10.634 -0.1500 -0.0291  0.1496
  104OSM    O1310554   6.352   4.970  10.664  0.1191  0.6347 -0.2508
  104OSM    O1410555   6.310   4.723  10.651  0.2380  0.3223 -0.2991
  104OSM    O1110556   6.209   4.873  10.489 -0.4828 -0.0663  0.0318
  104OSM    O1210557   6.130   4.885  10.715  0.3902 -0.0056 -0.1127
  104OSM    C1S10558   6.136   4.988  10.449  0.0894 -0.4859  0.6276
  104OSM    H1S10559   6.184   5.085  10.476 -1.0292  0.2677 -0.0788
  104OSM    H1T10560   6.033   4.978  10.488 -0.7980  0.5249 -1.3941
  104OSM     NF10561   6.045   5.093  10.252 -0.6295  0.0544 -0.4262
  104OSM    HNF10562   5.949   5.080  10.231 -0.0546 -0.6036 -2.8027
  104OSM    C2S10563   6.115   4.974  10.295  0.0347  0.2912  1.0217
  104OSM    H2S10564   6.221   4.986  10.261 -0.1705  1.0374  0.6188
  104OSM    C3S10565   6.053   4.834  10.240 -0.0411  0.6684  0.4219
  104OSM    H3S10566   5.954   4.816  10.287  0.6500  0.6825  1.9205
  104OSM     O310567   6.134   4.718  10.279 -0.7625  0.2418 -0.0037
  104OSM    HO310568   6.175   4.749  10.360  0.6574  0.3626 -0.7384
  104OSM    C4S10569   6.037   4.833  10.091  0.2254 -0.3081 -0.2435
  104OSM    H4S10570   6.135   4.861  10.049  0.9750 -2.0519  0.2922
  104OSM    C5S10571   5.927   4.823  10.016 -0.8530  0.1916 -0.5150
  104OSM    H5S10572   5.829   4.823  10.066 -0.7864 -2.2434 -0.3521
  104OSM    C6S10573   5.927   4.833   9.868  0.8691  0.6806  0.0813
  104OSM    H6S10574   6.019   4.795   9.818 -0.3379 -1.6707 -0.4305
  104OSM    H6T10575   5.917   4.939   9.837  0.7071  0.8546  0.7382
  104OSM    C7S10576   5.803   4.761   9.819 -0.2181 -0.4805  0.4609
  104OSM    H7S10577   5.710   4.816   9.846 -1.6312 -1.8417 -1.4745
  104OSM    H7T10578   5.795   4.658   9.857  0.2890 -1.3362 -1.6405
  104OSM    C8S10579   5.814   4.752   9.668 -0.2023 -0.5606 -0.6497
  104OSM    H8S10580   5.895   4.682   9.638  1.0938  1.2568 -1.4818
  104OSM    H8T10581   5.839   4.852   9.626  1.5647 -1.1123 -0.9664
  104OSM    C9S10582   5.685   4.688   9.604 -0.1631 -0.4057 -0.0075
  104OSM    H9S10583   5.608   4.768   9.615  0.4794  0.3772 -1.1269
  104OSM    H9T10584   5.658   4.607   9.674 -4.5588  0.8093 -0.1447
  104OSM   C10S10585   5.690   4.642   9.458 -0.2069 -0.4947  0.9122
  104OSM   H10S10586   5.590   4.599   9.437 -1.0886  0.0189  3.7755
  104OSM   H10T10587   5.769   4.565   9.443  0.1954  0.0650  0.1167
  104OSM   C11S10588   5.721   4.757   9.370 -0.2336  0.0933  0.5877
  104OSM   H11S10589   5.824   4.797   9.379  0.2513 -0.8255 -0.6795
  104OSM   H11T10590   5.666   4.851   9.392  2.3116  1.5219  1.0799
  104OSM   C12S10591   5.697   4.729   9.216  0.4404 -0.5752 -0.3323
  104OSM   H12S10592   5.587   4.716   9.204  0.3866  0.6427 -1.1665
  104OSM   H12T10593   5.753   4.640   9.180 -0.3176 -1.7392  1.2471
  104OSM   C13S10594   5.735   4.847   9.128  0.0005 -0.0299 -0.4512
  104OSM   H13S10595   5.840   4.829   9.095 -0.9151 -1.6721 -2.5484
  104OSM   H13T10596   5.728   4.946   9.178 -1.7067 -2.4709  4.3768
  104OSM   C14S10597   5.635   4.861   9.007  0.0948 -0.0295  0.0098
  104OSM   H14S10598   5.534   4.878   9.050  0.8650 -1.0529  2.3637
  104OSM   H14T10599   5.637   4.766   8.949  0.9246 -0.0687  0.0901
  104OSM   C15S10600   5.693   4.986   8.928 -0.2900 -0.5392  0.0090
  104OSM   H15S10601   5.795   4.960   8.892 -0.9822 -0.2101 -2.2955
  104OSM   H15T10602   5.702   5.081   8.986 -0.4325 -0.5750  0.0910
  104OSM   C16S10603   5.612   5.032   8.804  0.0152  0.4912 -0.3622
  104OSM   H16S10604   5.686   5.086   8.742 -0.1066 -1.5833 -2.3524
  104OSM   H16T10605   5.531   5.104   8.828 -0.9458 -0.1876 -1.5344
  104OSM   C17S10606   5.560   4.924   8.710  0.1709  0.5620  0.0193
  104OSM   H17S10607   5.514   4.978   8.625 -1.6688  1.0721  1.3296
  104OSM   H17T10608   5.492   4.848   8.753  2.4661 -1.4976  0.1014
  104OSM   C18S10609   5.671   4.834   8.657 -0.4021 -0.2796  0.9591
  104OSM   H18S10610   5.677   4.753   8.733 -0.4470 -0.7784  0.4398
  104OSM   H18T10611   5.761   4.891   8.629 -0.6837  0.1390  0.9025
  104OSM   H18U10612   5.634   4.771   8.573 -1.1459  0.5963  0.6197
  104OSM    C1F10613   6.091   5.221  10.256  0.6877  0.0246  1.3324
  104OSM     OF10614   6.194   5.244  10.320  0.2429  0.2004  0.5211
  104OSM    C2F10615   6.012   5.323  10.194 -0.3389 -0.1837 -0.0702
  104OSM    H2F10616   5.941   5.374  10.264 -1.2298  1.9165 -2.4095
  104OSM    H2G10617   5.948   5.279  10.115 -2.3798  0.1495  1.3411
  104OSM    C3F10618   6.099   5.439  10.143 -0.4416 -0.2025  0.4460
  104OSM    H3F10619   6.161   5.399  10.059  1.8776  1.6379  1.2025
  104OSM    H3G10620   6.166   5.480  10.222 -0.1072  0.9830 -0.4353
  104OSM    C4F10621   6.026   5.569  10.097 -0.1746 -0.2688 -0.2460
  104OSM    H4F10622   6.101   5.641  10.057 -1.4415 -0.5009 -3.1509
  104OSM    H4G10623   5.968   5.608  10.183  1.8319  0.1903  0.9465
  104OSM    C5F10624   5.939   5.527   9.974  0.1073 -1.3822  0.1850
  104OSM    H5F10625   5.846   5.483  10.016  0.0891 -1.5960 -0.0807
  104OSM    H5G10626   5.999   5.459   9.909 -0.7469 -3.3914  1.4926
  104OSM    C6F10627   5.882   5.636   9.887  0.6632 -0.4162  0.3862
  104OSM    H6F10628   5.963   5.707   9.856  0.5765 -1.0543 -1.3727
  104OSM    H6G10629   5.812   5.697   9.949  0.0804  0.2796 -0.9324
  104OSM    C7F10630   5.815   5.586   9.762 -0.6543  0.4013 -0.2718
  104OSM    H7F10631   5.766   5.668   9.706  0.4624  0.3099 -1.4100
  104OSM    H7G10632   5.735   5.521   9.803 -0.2167  0.1104  0.1231
  104OSM    C8F10633   5.904   5.519   9.661 -0.6222  0.1642  0.5628
  104OSM    H8F10634   5.968   5.443   9.710 -1.8149  0.2223  2.2715
  104OSM    H8G10635   5.969   5.598   9.618  1.5346 -1.9791 -0.2304
  104OSM    C9F10636   5.814   5.454   9.562  0.7483 -0.1924  0.3820
  104OSM    H9F10637   5.770   5.364   9.606 -0.1293 -0.1152 -0.3144
  104OSM   C10F10638   5.775   5.510   9.443  0.0806  0.3298  0.2001
  104OSM   H10F10639   5.709   5.453   9.376  1.6578 -0.2398 -0.9055
  104OSM   C11F10640   5.818   5.640   9.384  0.5329  0.0355 -0.1389
  104OSM   H11F10641   5.885   5.683   9.461  1.5776 -0.9700 -0.4703
  104OSM   H11G10642   5.726   5.698   9.360  1.1353  0.9231 -0.3263
  104OSM   C12F10643   5.889   5.629   9.252 -0.5346  1.0217 -0.6157
  104OSM   H12F10644   5.820   5.571   9.187  0.1670 -0.8324  0.2674
  104OSM   H12G10645   5.993   5.589   9.249 -0.8801  0.1991 -2.6628
  104OSM   C13F10646   5.924   5.766   9.193  0.1397 -0.7470  0.2726
  104OSM   H13F10647   5.974   5.824   9.275 -1.5727  0.6391  0.3764
  104OSM   H13G10648   5.824   5.814   9.186 -0.0371 -0.7093  2.6108
  104OSM   C14F10649   5.981   5.762   9.058 -0.0467  0.2104 -0.4422
  104OSM   H14F10650   5.914   5.701   8.993  0.4136 -0.1908 -0.5341
  104OSM   H14G10651   6.078   5.711   9.075 -0.7640 -1.3493 -0.9393
  104OSM   C15F10652   6.013   5.900   8.999 -0.4791  0.7204 -0.0451
  104OSM   H15F10653   6.101   5.935   9.057  0.0406 -0.0397 -0.3653
  104OSM   H15G10654   5.927   5.968   9.018 -0.8355  0.2524  0.0162
  104OSM   C16F10655   6.048   5.901   8.851 -0.5016  0.3800 -0.5388
  104OSM   H16F10656   6.118   5.817   8.829  0.6351  0.8753  1.0719
  104OSM   H16G10657   6.106   5.992   8.824  1.7736 -0.5516  1.0671
  104OSM   C17F10658   5.934   5.868   8.752 -0.0707  0.3913  0.1739
  104OSM   H17F10659   5.851   5.939   8.772  1.0851  1.6866  0.5084
  104OSM   H17G10660   5.900   5.766   8.779 -1.9981  1.0526  0.3012
  104OSM   C18F10661   5.987   5.873   8.614  0.2390 -0.2448 -0.0961
  104OSM   H18F10662   6.001   5.979   8.584  0.4326 -0.5184 -0.9930
  104OSM   H18G10663   5.912   5.834   8.542 -1.8172  2.7215  0.3113
  104OSM   H18H10664   6.076   5.808   8.610 -1.3417 -2.4570 -0.1618
  105OSM      N10665   5.390   4.794  10.615 -0.5084  0.6273  0.3416
  105OSM    C1510666   5.401   4.937  10.599  0.2871  0.4951 -0.0438
  105OSM   H15A10667   5.494   4.978  10.635 -0.5261  3.3362 -1.0584
  105OSM   H15B10668   5.318   4.991  10.642  0.0261 -0.6763  0.9802
  105OSM   H15C10669   5.396   4.955  10.493 -4.8118 -2.7046 -0.5328
  105OSM    C1410670   5.388   4.767  10.765  0.2513  0.5299  0.4843
  105OSM   H14A10671   5.463   4.820  10.821 -1.6243  2.7384  1.0028
  105OSM   H14B10672   5.385   4.662  10.786 -0.3854  0.8080  1.8339
  105OSM   H14C10673   5.295   4.812  10.800 -1.0377  0.2357 -2.4344
  105OSM    C1310674   5.252   4.758  10.577 -0.3864 -0.7866  0.0560
  105OSM   H13A10675   5.252   4.766  10.469  2.4651 -1.2951 -0.0348
  105OSM   H13B10676   5.174   4.821  10.615 -1.5655 -1.2402 -1.5302
  105OSM   H13C10677   5.237   4.653  10.597  1.3755 -1.1925 -0.6278
  105OSM    C1210678   5.497   4.708  10.550 -0.0182  0.1536 -0.0536
  105OSM   H12A10679   5.498   4.722  10.443 -1.1150 -2.3355 -0.4237
  105OSM   H12B10680   5.472   4.603  10.548  1.4845 -0.2776  1.6930
  105OSM    C1110681   5.647   4.738  10.590  0.4513  0.1001  0.5857
  105OSM   H11A10682   5.668   4.846  10.605  1.3116 -0.2560  2.0745
  105OSM   H11B10683   5.688   4.711  10.491 -1.3968 -1.5100  0.2153
  105OSM      P10684   5.705   4.504  10.696  0.5457  0.1988  0.3991
  105OSM    O1310685   5.799   4.456  10.796 -0.1370  1.1477 -0.2336
  105OSM    O1410686   5.568   4.453  10.715  0.6918 -0.1497 -0.0095
  105OSM    O1110687   5.757   4.455  10.557  0.2776 -0.3765  0.1988
  105OSM    O1210688   5.714   4.661  10.692  0.3428 -0.5045  0.3259
  105OSM    C1S10689   5.887   4.483  10.516 -1.1052 -0.3627  0.3410
  105OSM    H1S10690   5.961   4.437  10.584  0.0089 -0.1921 -0.7412
  105OSM    H1T10691   5.898   4.594  10.507  0.8779 -0.6652 -1.5364
  105OSM     NF10692   6.052   4.442  10.342  0.3623  0.3368 -0.7257
  105OSM    HNF10693   6.071   4.528  10.296 -2.8024  1.0103 -0.9020
  105OSM    C2S10694   5.915   4.426  10.373  0.5023  0.0195 -0.6099
  105OSM    H2S10695   5.883   4.320  10.381  0.8379  0.0650  1.4725
  105OSM    C3S10696   5.830   4.505  10.270 -0.2363  0.5062  0.1202
  105OSM    H3S10697   5.866   4.610  10.263 -0.8573  0.8478  1.8055
  105OSM     O310698   5.692   4.526  10.308 -0.1908 -0.0953 -1.0668
  105OSM    HO310699   5.697   4.511  10.402 -1.1884  1.8859 -0.6715
  105OSM    C4S10700   5.852   4.451  10.127  0.2553 -0.2126  0.0525
  105OSM    H4S10701   5.935   4.494  10.069 -0.0407 -1.1312 -1.0568
  105OSM    C5S10702   5.772   4.360  10.074  0.1076 -0.0507  0.8021
  105OSM    H5S10703   5.678   4.337  10.126  0.4281  1.4475  2.0862
  105OSM    C6S10704   5.793   4.303   9.937 -0.3765  0.2053  0.3860
  105OSM    H6S10705   5.730   4.364   9.870 -1.4837  1.9387  2.9291
  105OSM    H6T10706   5.752   4.200   9.934 -0.6894  0.3362  0.1377
  105OSM    C7S10707   5.941   4.295   9.887  0.7522  0.2358 -0.2838
  105OSM    H7S10708   6.007   4.237   9.955  1.6174  1.3722 -0.1404
  105OSM    H7T10709   5.998   4.390   9.880 -0.7311  1.0177 -2.5667
  105OSM    C8S10710   5.945   4.215   9.761  0.1899  0.1138  1.1168
  105OSM    H8S10711   5.861   4.249   9.696 -1.4887  1.0008  3.6679
  105OSM    H8T10712   5.909   4.114   9.788 -0.3160  0.7333  2.8034
  105OSM    C9S10713   6.075   4.200   9.685 -0.3470 -0.3553  0.0699
  105OSM    H9S10714   6.160   4.155   9.740  1.1057 -0.4975 -2.1839
  105OSM    H9T10715   6.109   4.303   9.658  0.5417 -0.0896  2.1213
  105OSM   C10S10716   6.075   4.125   9.550 -0.2532  0.0969 -0.0085
  105OSM   H10S10717   6.001   4.183   9.491 -0.1712  0.8172  0.5780
  105OSM   H10T10718   6.024   4.028   9.569 -0.7130  0.7071  2.0948
  105OSM   C11S10719   6.203   4.107   9.470 -0.5599 -1.2697 -0.2859
  105OSM   H11S10720   6.175   4.059   9.374 -0.5367 -2.2793  0.2057
  105OSM   H11T10721   6.284   4.047   9.517 -0.2016 -2.0613 -1.8816
  105OSM   C12S10722   6.268   4.246   9.421 -0.9193  0.2894  0.2014
  105OSM   H12S10723   6.363   4.262   9.476 -1.3770  0.0275  1.0853
  105OSM   H12T10724   6.198   4.325   9.458 -0.2822 -0.2211  2.5899
  105OSM   C13S10725   6.302   4.257   9.271  0.6188  0.0708 -0.0074
  105OSM   H13S10726   6.382   4.188   9.235  0.8694 -0.0615  0.7875
  105OSM   H13T10727   6.339   4.360   9.253 -1.4726  0.5439 -1.7491
  105OSM   C14S10728   6.179   4.228   9.183 -0.4264 -0.5303  0.6336
  105OSM   H14S10729   6.100   4.292   9.229  0.1250 -0.5221  1.5728
  105OSM   H14T10730   6.154   4.120   9.174 -0.1981 -0.6961  1.9297
  105OSM   C15S10731   6.196   4.284   9.041 -0.6952 -0.1196  0.4751
  105OSM   H15S10732   6.298   4.270   8.998  0.1566 -1.0311  2.7146
  105OSM   H15T10733   6.162   4.389   9.028  2.0614  0.6251 -1.2383
  105OSM   C16S10734   6.096   4.205   8.950  0.8482 -0.3626  0.3910
  105OSM   H16S10735   5.996   4.236   8.988  0.0246  0.1177 -2.0586
  105OSM   H16T10736   6.117   4.097   8.958  2.1190 -0.0787  0.9985
  105OSM   C17S10737   6.102   4.237   8.799  0.0929 -0.2748 -0.0362
  105OSM   H17S10738   6.051   4.160   8.737 -0.8240 -0.7550  1.2841
  105OSM   H17T10739   6.211   4.243   8.776 -0.3195  1.4116 -1.6855
  105OSM   C18S10740   6.036   4.367   8.767 -0.4377 -0.4090 -0.3660
  105OSM   H18S10741   6.031   4.385   8.657 -1.2722  0.1350 -0.2463
  105OSM   H18T10742   6.091   4.450   8.816  2.5435 -0.8861 -2.7589
  105OSM   H18U10743   5.931   4.366   8.802 -1.3460 -0.6354 -2.9645
  105OSM    C1F10744   6.139   4.361  10.392  0.5628  0.2971  0.3024
  105OSM     OF10745   6.102   4.269  10.463  0.0604 -0.1797 -0.2219
  105OSM    C2F10746   6.284   4.393  10.371  0.2157 -0.2316 -0.7529
  105OSM    H2F10747   6.331   4.386  10.471 -1.7680 -1.0224  0.1468
  105OSM    H2G10748   6.300   4.498  10.339 -0.3102  1.0815  3.0885
  105OSM    C3F10749   6.346   4.289  10.273  0.0940  0.8169  0.5150
  105OSM    H3F10750   6.334   4.187  10.316  3.4830 -0.3930 -1.2373
  105OSM    H3G10751   6.455   4.308  10.271  0.4932 -1.1402  1.9194
  105OSM    C4F10752   6.301   4.290  10.129  0.2762  0.7299 -0.5972
  105OSM    H4F10753   6.205   4.238  10.111  0.5684  0.5676 -1.7349
  105OSM    H4G10754   6.376   4.229  10.075  0.4862 -0.6251  1.1771
  105OSM    C5F10755   6.288   4.430  10.059  0.5098  0.4001  0.2875
  105OSM    H5F10756   6.380   4.483  10.094  1.4874 -0.6730 -0.6014
  105OSM    H5G10757   6.193   4.470  10.100 -0.7689 -1.7481 -0.5068
  105OSM    C6F10758   6.296   4.434   9.902 -0.0821  0.0532  0.8405
  105OSM    H6F10759   6.234   4.346   9.875 -0.2593  0.1884  0.8071
  105OSM    H6G10760   6.401   4.408   9.877  1.0327  3.5391  1.6131
  105OSM    C7F10761   6.248   4.565   9.834 -0.1453  0.3402  0.6844
  105OSM    H7F10762   6.302   4.658   9.863  1.2662 -0.5882  1.1074
  105OSM    H7G10763   6.142   4.582   9.860 -0.3400  1.7743 -0.9473
  105OSM    C8F10764   6.270   4.570   9.677 -0.4463 -0.4675 -0.4442
  105OSM    H8F10765   6.210   4.485   9.638  1.1166 -1.5237 -0.5560
  105OSM    H8G10766   6.378   4.550   9.665  0.2488  1.2416  2.5445
  105OSM    C9F10767   6.238   4.697   9.608 -0.2789  0.3597  0.2306
  105OSM    H9F10768   6.296   4.780   9.651  0.4609  1.0893 -2.1002
  105OSM   C10F10769   6.154   4.719   9.509  0.0864  0.1147  0.2270
  105OSM   H10F10770   6.155   4.825   9.478  1.0778  1.1121  3.4621
  105OSM   C11F10771   6.071   4.616   9.436  0.3351 -0.2232 -0.3679
  105OSM   H11F10772   5.966   4.652   9.430 -0.2229 -1.6427  0.6669
  105OSM   H11G10773   6.067   4.518   9.488 -0.6455 -1.3257 -2.4812
  105OSM   C12F10774   6.100   4.584   9.297  0.2701 -0.0354  0.3215
  105OSM   H12F10775   6.021   4.517   9.257  1.1161 -0.5397 -0.5026
  105OSM   H12G10776   6.195   4.527   9.297 -0.0498 -0.5778  0.8844
  105OSM   C13F10777   6.110   4.711   9.209 -0.3271  0.2965  0.2738
  105OSM   H13F10778   6.206   4.766   9.220 -0.3857  0.2833  0.9060
  105OSM   H13G10779   6.032   4.786   9.236 -0.9116 -0.2869  0.1976
  105OSM   C14F10780   6.086   4.670   9.060 -0.4619 -0.3371  1.2825
  105OSM   H14F10781   5.988   4.618   9.067  0.0077 -1.3344  0.6993
  105OSM   H14G10782   6.169   4.598   9.044  0.1102  0.6611 -0.3783
  105OSM   C15F10783   6.086   4.785   8.953  0.3227  0.3982 -0.0309
  105OSM   H15F10784   5.992   4.840   8.973  0.9543  1.1922  0.7925
  105OSM   H15G10785   6.073   4.739   8.853  2.4439 -3.9209  1.5581
  105OSM   C16F10786   6.210   4.872   8.951  0.0488 -0.1435 -1.3543
  105OSM   H16F10787   6.299   4.805   8.946 -0.7534 -1.2953 -0.4109
  105OSM   H16G10788   6.202   4.933   9.044  0.1470  0.8875 -2.0221
  105OSM   C17F10789   6.206   4.983   8.840  0.1377  0.3000 -0.0310
  105OSM   H17F10790   6.289   5.051   8.867  0.9213  0.1515 -1.9975
  105OSM   H17G10791   6.111   5.040   8.851  1.5969  2.7874 -0.0379
  105OSM   C18F10792   6.228   4.932   8.693 -0.6330  0.1418 -0.6650
  105OSM   H18F10793   6.152   4.860   8.656  0.6979 -1.1837 -0.8944
  105OSM   H18G10794   6.322   4.873   8.692 -0.3373  0.4796  2.1674
  105OSM   H18H10795   6.229   5.015   8.620 -0.7441  0.6943 -0.0431
  106OSM      N10796   0.100   2.086  10.979  0.8116 -0.0804 -0.3758
  106OSM    C1510797   0.136   2.214  11.058  0.3389 -0.3194  0.4106
  106OSM   H15A10798   0.116   2.300  10.994 -1.4631 -0.3930  0.8569
  106OSM   H15B10799   0.243   2.219  11.070  0.6034  0.3446 -1.8270
  106OSM   H15C10800   0.086   2.230  11.152  0.5323  0.6967  0.3551
  106OSM    C1410801   0.143   1.979  11.063 -0.1753  0.6687  0.2322
  106OSM   H14A10802   0.099   1.978  11.161 -2.5171  0.8515 -0.7800
  106OSM   H14B10803   0.248   1.996  11.083  0.4527  0.2403 -2.4794
  106OSM   H14C10804   0.134   1.882  11.016 -1.0825  1.3083 -0.9315
  106OSM    C1310805  -0.051   2.083  10.969 -0.3222  0.5859  0.1187
  106OSM   H13A10806  -0.097   2.046  11.059  1.4982 -1.6597  0.1842
  106OSM   H13B10807  -0.071   2.022  10.882 -0.0733  0.1652  0.3549
  106OSM   H13C10808  -0.090   2.180  10.942 -0.9054  0.3140 -0.0069
  106OSM    C1210809   0.174   2.091  10.850 -0.9240 -0.0024  0.3684
  106OSM   H12A10810   0.131   2.161  10.779 -1.0433 -0.0580  0.3851
  106OSM   H12B10811   0.153   1.992  10.814  0.6886 -1.3332  2.9415
  106OSM    C1110812   0.331   2.106  10.855  0.5461  0.3877  0.4565
  106OSM   H11A10813   0.373   2.057  10.764 -0.2209 -0.3948  0.5138
  106OSM   H11B10814   0.375   2.050  10.940  1.1343  2.8013  1.7849
  106OSM      P10815   0.488   2.312  10.795 -0.6461  0.0370  0.1296
  106OSM    O1310816   0.483   2.448  10.848  0.2999  0.3985  0.3213
  106OSM    O1410817   0.606   2.224  10.817 -0.0027  0.2419 -0.3934
  106OSM    O1110818   0.451   2.305  10.648 -1.0196  0.4234  0.3492
  106OSM    O1210819   0.357   2.243  10.852 -0.7553  0.3829 -0.3387
  106OSM    C1S10820   0.372   2.412  10.584 -0.1644 -0.9194  0.8674
  106OSM    H1S10821   0.422   2.510  10.595 -0.1994 -0.7539 -0.3527
  106OSM    H1T10822   0.273   2.413  10.634  0.3227 -0.3970  1.8281
  106OSM     NF10823   0.340   2.500  10.349  0.4996 -0.4479 -0.2404
  106OSM    HNF10824   0.252   2.514  10.305 -0.6821 -0.4819  1.9860
  106OSM    C2S10825   0.357   2.378  10.427 -1.0507 -0.5050  0.0878
  106OSM    H2S10826   0.452   2.335  10.387 -2.0538 -1.0774 -1.7829
  106OSM    C3S10827   0.245   2.276  10.415 -0.5145 -0.2257 -0.1382
  106OSM    H3S10828   0.150   2.330  10.434 -0.6023  0.1062 -1.4512
  106OSM     O310829   0.249   2.170  10.508 -0.2146  0.2756 -0.3093
  106OSM    HO310830   0.324   2.193  10.563 -0.9306  0.6490  0.5257
  106OSM    C4S10831   0.229   2.220  10.280 -0.8771 -0.3010 -0.2569
  106OSM    H4S10832   0.151   2.274  10.225 -2.5319 -1.7664  0.6000
  106OSM    C5S10833   0.280   2.108  10.227  0.3564  0.5664 -0.7518
  106OSM    H5S10834   0.352   2.052  10.288 -2.2381 -1.8190  0.2248
  106OSM    C6S10835   0.258   2.064  10.084 -0.0750 -0.1733 -0.0889
  106OSM    H6S10836   0.174   2.118  10.037  1.0436  0.0581 -1.8737
  106OSM    H6T10837   0.225   1.958  10.089  0.9328 -0.6424 -2.5625
  106OSM    C7S10838   0.384   2.060  10.000 -0.2879  0.0235  1.5077
  106OSM    H7S10839   0.453   1.975  10.016 -2.1410 -1.3922  2.1661
  106OSM    H7T10840   0.424   2.163  10.010 -1.3663  0.8267 -1.6615
  106OSM    C8S10841   0.336   2.063   9.850  0.7538  0.0435 -0.1833
  106OSM    H8S10842   0.264   2.144   9.825  1.0406 -0.5126 -2.9498
  106OSM    H8T10843   0.277   1.971   9.827  1.3592 -0.4266  0.1387
  106OSM    C9S10844   0.463   2.059   9.762 -0.0640 -0.0041 -0.1972
  106OSM    H9S10845   0.512   1.959   9.763  0.5222  0.2759 -0.7341
  106OSM    H9T10846   0.537   2.137   9.787 -0.8189  0.9882 -0.9958
  106OSM   C10S10847   0.437   2.069   9.608  0.2711 -0.5185  0.6810
  106OSM   H10S10848   0.393   2.170   9.597 -1.8411 -1.6811 -1.8836
  106OSM   H10T10849   0.357   1.997   9.582 -0.0905 -0.1870  0.8644
  106OSM   C11S10850   0.562   2.068   9.523 -0.4680  0.3093 -0.0205
  106OSM   H11S10851   0.630   1.986   9.554 -1.1621 -0.3730 -0.3021
  106OSM   H11T10852   0.622   2.160   9.540  0.6618  0.0190 -2.2596
  106OSM   C12S10853   0.524   2.042   9.383 -0.0305  0.3874  0.3506
  106OSM   H12S10854   0.436   2.107   9.360  0.4185  1.6781  2.1455
  106OSM   H12T10855   0.473   1.944   9.372 -1.0523  0.8317  1.0055
  106OSM   C13S10856   0.622   2.061   9.267  0.3108  0.6735  1.2031
  106OSM   H13S10857   0.681   1.970   9.244 -3.8433 -1.9100  0.1575
  106OSM   H13T10858   0.698   2.140   9.282  0.9894  0.4233 -0.8655
  106OSM   C14S10859   0.539   2.094   9.140  0.4457 -0.1883  0.0234
  106OSM   H14S10860   0.515   2.202   9.141 -1.0538 -0.5104  1.5217
  106OSM   H14T10861   0.444   2.036   9.142 -0.4613  1.2929  0.4494
  106OSM   C15S10862   0.620   2.061   9.014  0.0239 -1.7635 -0.4806
  106OSM   H15S10863   0.634   1.952   8.999 -0.3065 -1.7869 -0.6143
  106OSM   H15T10864   0.720   2.109   9.022 -1.3837  1.2937 -0.7280
  106OSM   C16S10865   0.556   2.117   8.883  0.4017 -0.4132 -0.0531
  106OSM   H16S10866   0.538   2.225   8.901  2.3160  0.0157 -0.5797
  106OSM   H16T10867   0.458   2.067   8.865 -0.3746  0.9354  0.3805
  106OSM   C17S10868   0.651   2.113   8.765 -0.6589  0.6534 -0.2687
  106OSM   H17S10869   0.674   2.008   8.739  1.6860  0.8106  1.0071
  106OSM   H17T10870   0.743   2.166   8.799 -0.5060  0.5668 -0.5464
  106OSM   C18S10871   0.595   2.176   8.630 -0.6729 -0.2843  0.1900
  106OSM   H18S10872   0.544   2.270   8.662 -0.5355  0.0346 -0.5335
  106OSM   H18T10873   0.519   2.117   8.575 -1.4596  1.1969 -0.3401
  106OSM   H18U10874   0.688   2.192   8.572 -1.1073  3.0867  0.3192
  106OSM    C1F10875   0.424   2.601  10.331 -0.1319 -0.4719 -0.4093
  106OSM     OF10876   0.537   2.603  10.382  0.3094  0.3375 -0.3300
  106OSM    C2F10877   0.375   2.713  10.245  0.4146 -0.1829 -0.4451
  106OSM    H2F10878   0.340   2.796  10.311  0.7958  0.0306 -0.5107
  106OSM    H2G10879   0.277   2.684  10.203 -0.2192  0.8679  0.2866
  106OSM    C3F10880   0.462   2.753  10.130 -0.7411 -0.3577  0.1390
  106OSM    H3F10881   0.562   2.780  10.171 -0.8310  0.9657 -0.4812
  106OSM    H3G10882   0.424   2.853  10.101 -0.1338  0.1489  1.0603
  106OSM    C4F10883   0.467   2.655  10.019  0.3834 -0.1227 -0.1752
  106OSM    H4F10884   0.498   2.553  10.051  0.6912 -0.5182 -1.6536
  106OSM    H4G10885   0.543   2.685   9.943  0.8652  0.7582  0.6583
  106OSM    C5F10886   0.343   2.648   9.926 -0.5268  0.7603  0.3908
  106OSM    H5F10887   0.320   2.750   9.891 -2.3919  0.3729  0.4427
  106OSM    H5G10888   0.259   2.623   9.994  0.0114  1.8624  1.4655
  106OSM    C6F10889   0.343   2.538   9.806  0.3120 -0.5386  0.1424
  106OSM    H6F10890   0.241   2.496   9.797 -1.0420  2.1653  2.2294
  106OSM    H6G10891   0.410   2.457   9.844 -0.0431 -0.7927  0.2319
  106OSM    C7F10892   0.392   2.595   9.679  0.2344 -0.3106  0.3206
  106OSM    H7F10893   0.493   2.635   9.703  0.4759  0.4196 -1.7924
  106OSM    H7G10894   0.331   2.683   9.651  1.5286  0.5561  0.1709
  106OSM    C8F10895   0.394   2.496   9.558 -0.1612  0.1486  0.1592
  106OSM    H8F10896   0.449   2.405   9.591 -0.2080  0.5825  1.4593
  106OSM    H8G10897   0.453   2.540   9.475 -1.5463  0.8492 -0.4696
  106OSM    C9F10898   0.259   2.463   9.515  0.3890 -0.5483 -0.0548
  106OSM    H9F10899   0.187   2.452   9.597 -0.1406 -0.5810 -0.5212
  106OSM   C10F10900   0.219   2.467   9.382 -0.5755 -0.0627 -0.5435
  106OSM   H10F10901   0.115   2.447   9.350 -0.7075 -1.2644  0.6230
  106OSM   C11F10902   0.303   2.505   9.258  0.2885  0.0775 -1.3128
  106OSM   H11F10903   0.411   2.485   9.275  0.4936  1.0128 -1.4747
  106OSM   H11G10904   0.295   2.613   9.232  3.6114  0.6793  0.0069
  106OSM   C12F10905   0.263   2.411   9.142  0.2379  0.0464  0.0096
  106OSM   H12F10906   0.278   2.305   9.173 -1.4491  0.1051  1.0954
  106OSM   H12G10907   0.341   2.420   9.063  0.1052  0.5207 -0.0695
  106OSM   C13F10908   0.126   2.441   9.089 -0.1162  0.3006 -0.8277
  106OSM   H13F10909   0.082   2.511   9.162  0.1019 -0.9267  0.4976
  106OSM   H13G10910   0.061   2.351   9.094 -0.0582  0.2696 -0.6329
  106OSM   C14F10911   0.139   2.500   8.955  0.6949  0.0521 -0.5648
  106OSM   H14F10912   0.144   2.416   8.883 -0.5253  1.2843 -2.1258
  106OSM   H14G10913   0.235   2.555   8.942  0.9273 -0.4617 -1.0042
  106OSM   C15F10914   0.025   2.593   8.948  0.4290 -0.6178 -0.2306
  106OSM   H15F10915   0.027   2.660   9.036 -0.2417 -0.4034 -0.3746
  106OSM   H15G10916  -0.067   2.536   8.970  1.2549 -1.8150  0.1368
  106OSM   C16F10917   0.011   2.692   8.836  0.4422  0.1665 -0.5829
  106OSM   H16F10918   0.091   2.768   8.828 -0.4668  1.3875  1.5691
  106OSM   H16G10919  -0.082   2.750   8.855 -1.6076 -3.3072  0.5372
  106OSM   C17F10920   0.006   2.623   8.704  1.0899  0.3806  0.6660
  106OSM   H17F10921  -0.081   2.554   8.707  1.7725 -0.5462 -0.4796
  106OSM   H17G10922   0.099   2.564   8.688 -0.6042 -1.8481 -1.1558
  106OSM   C18F10923  -0.021   2.715   8.580  0.2002 -0.4982 -0.1716
  106OSM   H18F10924  -0.002   2.662   8.485  2.1936  0.2050 -0.1844
  106OSM   H18G10925   0.055   2.796   8.592 -0.6521  0.0863  1.5847
  106OSM   H18H10926  -0.124   2.752   8.564 -0.2910 -1.4710  0.7064
  107OSM      N10927   0.677   0.161  10.967 -0.2449  0.1050  0.6444
  107OSM    C1510928   0.534   0.172  10.983 -0.1531  0.4827 -0.4227
  107OSM   H15A10929   0.489   0.142  10.889  1.0239 -0.3383 -0.7347
  107OSM   H15B10930   0.505   0.273  11.010  0.7029  0.9424 -1.2070
  107OSM   H15C10931   0.494   0.115  11.065 -2.4145  3.6331  0.7721
  107OSM    C1410932   0.740   0.183  11.105  0.4807 -0.9131 -0.3260
  107OSM   H14A10933   0.845   0.160  11.099  0.5128 -0.6832 -0.7523
  107OSM   H14B10934   0.696   0.140  11.193 -0.8142  1.2992  0.1628
  107OSM   H14C10935   0.741   0.290  11.124 -0.3557 -0.9540 -0.0464
  107OSM    C1310936   0.704   0.013  10.924  0.1951  0.4111 -0.6027
  107OSM   H13A10937   0.670  -0.006  10.824  1.5851 -2.2729 -0.5930
  107OSM   H13B10938   0.645  -0.058  10.979  1.4360  0.2351  0.5402
  107OSM   H13C10939   0.810  -0.007  10.930  0.0566  0.0621  0.7372
  107OSM    C1210940   0.739   0.251  10.865  0.1753 -0.4333  0.3921
  107OSM   H12A10941   0.758   0.345  10.915  0.2060 -0.3650  0.2507
  107OSM   H12B10942   0.669   0.281  10.788  1.6546 -0.2248 -0.8931
  107OSM    C1110943   0.880   0.221  10.803 -0.6203  0.6147 -0.0133
  107OSM   H11A10944   0.907   0.302  10.732 -0.3003 -0.4270 -1.0933
  107OSM   H11B10945   0.863   0.128  10.745 -1.7631 -1.8869  4.0820
  107OSM      P10946   1.080   0.298  10.952 -0.0639  0.2876 -0.1056
  107OSM    O1310947   1.007   0.422  10.989 -0.3466  0.0589 -0.4364
  107OSM    O1410948   1.175   0.250  11.055  0.2770  0.2886 -0.0738
  107OSM    O1110949   1.152   0.332  10.813 -0.2225 -0.0497 -0.9962
  107OSM    O1210950   0.985   0.186  10.903 -0.3854  0.0318  0.0668
  107OSM    C1S10951   1.229   0.243  10.738 -0.7607 -0.1542  0.3863
  107OSM    H1S10952   1.178   0.145  10.736  1.0582 -1.1917  2.3459
  107OSM    H1T10953   1.323   0.224  10.795 -0.4510  0.8333  0.2113
  107OSM     NF10954   1.298   0.187  10.510 -0.8301 -0.5668 -0.4261
  107OSM    HNF10955   1.397   0.181  10.497 -0.6309 -2.2708  1.7361
  107OSM    C2S10956   1.257   0.299  10.600  0.0767 -0.3940  0.6280
  107OSM    H2S10957   1.157   0.339  10.572  1.0429  0.2043 -2.2047
  107OSM    C3S10958   1.357   0.416  10.603  0.2226 -0.1165 -0.2673
  107OSM    H3S10959   1.458   0.384  10.637 -0.0677  2.3047  3.1038
  107OSM     O310960   1.316   0.525  10.691  0.2174  0.3498  0.6776
  107OSM    HO310961   1.246   0.482  10.741 -0.8474 -1.3811 -2.2027
  107OSM    C4S10962   1.374   0.481  10.466 -0.4420  0.4567  0.1127
  107OSM    H4S10963   1.291   0.549  10.444 -0.1756  0.2406 -1.6504
  107OSM    C5S10964   1.484   0.488  10.388  0.1244 -0.2511  0.2101
  107OSM    H5S10965   1.570   0.432  10.429  0.4826  0.4360  0.3907
  107OSM    C6S10966   1.495   0.565  10.260 -1.1136  0.7410 -0.1556
  107OSM    H6S10967   1.583   0.632  10.260 -0.6152  0.0927 -1.0168
  107OSM    H6T10968   1.405   0.628  10.237 -0.2108  1.7380 -1.0200
  107OSM    C7S10969   1.516   0.483  10.130 -0.0380  0.3986 -0.5288
  107OSM    H7S10970   1.430   0.426  10.089 -0.7342  1.3773 -0.4512
  107OSM    H7T10971   1.601   0.414  10.149 -0.1698  0.4952  0.4469
  107OSM    C8S10972   1.556   0.578  10.013  0.4455  1.2038 -0.3062
  107OSM    H8S10973   1.657   0.620  10.036  0.8119  0.7225 -1.0134
  107OSM    H8T10974   1.490   0.666   9.997  1.9684  2.5334  0.5721
  107OSM    C9S10975   1.550   0.504   9.877 -0.2229  0.6048 -0.7936
  107OSM    H9S10976   1.445   0.469   9.875  0.3081 -1.0022 -0.8552
  107OSM    H9T10977   1.612   0.413   9.883 -1.2133 -0.1541 -1.8741
  107OSM   C10S10978   1.612   0.581   9.758 -0.0881  0.1514  0.0738
  107OSM   H10S10979   1.720   0.604   9.770  0.3182 -1.5157 -0.1471
  107OSM   H10T10980   1.545   0.668   9.744 -0.2540 -0.0589 -0.4981
  107OSM   C11S10981   1.608   0.498   9.624 -0.4195  0.2959  0.2083
  107OSM   H11S10982   1.508   0.465   9.588 -0.2494 -0.4081  0.3675
  107OSM   H11T10983   1.677   0.411   9.629  0.3653  0.8889 -0.1264
  107OSM   C12S10984   1.647   0.585   9.503  0.1974 -0.4417 -0.4616
  107OSM   H12S10985   1.745   0.635   9.522 -1.7141  2.5657  1.8547
  107OSM   H12T10986   1.579   0.671   9.493  1.5859  0.6625 -0.6390
  107OSM   C13S10987   1.648   0.504   9.373 -0.5813  0.4269 -0.0795
  107OSM   H13S10988   1.558   0.440   9.382 -0.3762  0.2701  0.9701
  107OSM   H13T10989   1.736   0.436   9.371  0.4312  1.7584 -1.8073
  107OSM   C14S10990   1.643   0.593   9.247  0.2941 -0.3541  0.7291
  107OSM   H14S10991   1.733   0.659   9.239 -0.0050 -0.1614 -1.2265
  107OSM   H14T10992   1.557   0.663   9.254 -0.0719 -0.7163 -0.1073
  107OSM   C15S10993   1.627   0.515   9.117 -0.2621 -0.3764 -0.2736
  107OSM   H15S10994   1.534   0.455   9.117 -0.8975  0.5049  2.8524
  107OSM   H15T10995   1.704   0.435   9.117 -1.3428 -1.4262 -1.0775
  107OSM   C16S10996   1.639   0.605   8.995 -0.5382 -0.0278 -0.0151
  107OSM   H16S10997   1.671   0.542   8.909 -1.4040  0.4431 -0.6790
  107OSM   H16T10998   1.720   0.679   9.014  0.0500 -0.6209 -0.1845
  107OSM   C17S10999   1.514   0.687   8.971  0.6842 -0.8576 -0.3353
  107OSM   H17S11000   1.552   0.771   8.910 -0.0393 -1.0003 -0.9810
  107OSM   H17T11001   1.490   0.731   9.070  0.4558 -3.6409  0.9143
  107OSM   C18S11002   1.398   0.619   8.904 -0.0412  0.8003 -0.0890
  107OSM   H18S11003   1.314   0.691   8.920 -0.1127  0.4180  1.3143
  107OSM   H18T11004   1.384   0.524   8.961  0.1864  1.5090  1.1735
  107OSM   H18U11005   1.410   0.604   8.795  1.6840 -0.3723  0.2429
  107OSM    C1F11006   1.214   0.092  10.477  1.0482  0.9891 -0.0185
  107OSM     OF11007   1.088   0.098  10.472 -0.2078  0.4453 -0.3108
  107OSM    C2F11008   1.288  -0.042  10.442  0.1436 -0.0366 -0.8979
  107OSM    H2F11009   1.264  -0.130  10.505  0.0631 -0.5706 -1.6624
  107OSM    H2G11010   1.396  -0.015  10.444  0.3020 -0.4415 -3.0559
  107OSM    C3F11011   1.244  -0.098  10.308  0.4242 -0.7927 -0.5716
  107OSM    H3F11012   1.248  -0.030  10.221 -0.4936 -1.5782 -1.2418
  107OSM    H3G11013   1.136  -0.123  10.315 -0.0967  1.7283  1.0405
  107OSM    C4F11014   1.308  -0.237  10.266  0.5942 -0.6868 -0.6076
  107OSM    H4F11015   1.309  -0.308  10.352  1.0810 -1.2810 -1.0965
  107OSM    H4G11016   1.413  -0.218  10.234  1.2859 -1.0189  1.3601
  107OSM    C5F11017   1.223  -0.296  10.157 -0.2397 -0.5348 -0.8388
  107OSM    H5F11018   1.122  -0.326  10.194 -0.5431 -3.0903 -3.5859
  107OSM    H5G11019   1.262  -0.396  10.127 -0.4902 -1.4328  1.7048
  107OSM    C6F11020   1.199  -0.210  10.033 -0.5074 -0.4105  0.0705
  107OSM    H6F11021   1.291  -0.162   9.995 -0.0334  0.1461  1.8768
  107OSM    H6G11022   1.117  -0.138  10.052  0.6632  1.3115 -1.2742
  107OSM    C7F11023   1.154  -0.307   9.926 -0.3283  0.0840 -0.0503
  107OSM    H7F11024   1.067  -0.364   9.966 -2.6410  2.1799 -1.9181
  107OSM    H7G11025   1.238  -0.379   9.914  0.1613  0.5777  0.4121
  107OSM    C8F11026   1.108  -0.243   9.804  0.1796 -0.2495  0.7046
  107OSM    H8F11027   1.027  -0.168   9.810  1.2674  1.1042 -1.0233
  107OSM    H8G11028   1.058  -0.319   9.740 -3.5552  2.6382  0.0306
  107OSM    C9F11029   1.222  -0.166   9.729  0.0825 -0.1722  0.3978
  107OSM    H9F11030   1.250  -0.065   9.765 -0.5124 -0.5822  2.0823
  107OSM   C10F11031   1.278  -0.206   9.611  0.3127 -0.5367 -0.1641
  107OSM   H10F11032   1.342  -0.134   9.558  1.9304 -0.9022  1.2428
  107OSM   C11F11033   1.244  -0.340   9.545 -0.8211 -0.7592 -0.7115
  107OSM   H11F11034   1.210  -0.417   9.617  0.0339 -1.2896 -0.8635
  107OSM   H11G11035   1.337  -0.394   9.519  0.4917  1.4481 -0.7681
  107OSM   C12F11036   1.155  -0.334   9.425  0.1650  0.4829  0.4884
  107OSM   H12F11037   1.057  -0.294   9.458 -0.3208 -1.1450  1.0413
  107OSM   H12G11038   1.134  -0.435   9.384  1.7071  0.5045 -0.3952
  107OSM   C13F11039   1.211  -0.245   9.306 -0.3293  0.9422  0.8564
  107OSM   H13F11040   1.312  -0.281   9.279 -0.4854  0.1297  1.3329
  107OSM   H13G11041   1.227  -0.146   9.353  1.2077 -0.1507  2.7139
  107OSM   C14F11042   1.113  -0.234   9.185  0.5658 -0.5620  0.1681
  107OSM   H14F11043   1.016  -0.194   9.221  0.3095 -1.1714  0.1513
  107OSM   H14G11044   1.098  -0.337   9.145  1.0356 -0.5777  0.0276
  107OSM   C15F11045   1.171  -0.138   9.068 -0.3475  0.1755 -0.2416
  107OSM   H15F11046   1.281  -0.150   9.067 -0.2438  1.0157 -2.7313
  107OSM   H15G11047   1.158  -0.029   9.088  0.8509  0.0163  1.4572
  107OSM   C16F11048   1.120  -0.179   8.925 -0.3821  0.3340 -0.2027
  107OSM   H16F11049   1.145  -0.287   8.914  0.5508  0.4658  0.5267
  107OSM   H16G11050   1.187  -0.125   8.855 -1.1430  1.2440 -0.2440
  107OSM   C17F11051   0.968  -0.147   8.904  0.8224 -0.5141 -0.8238
  107OSM   H17F11052   0.958  -0.045   8.948  2.1890 -0.1145 -1.4192
  107OSM   H17G11053   0.907  -0.219   8.963 -0.9538  0.7918 -1.0441
  107OSM   C18F11054   0.931  -0.149   8.760 -0.2756  0.3903  0.0911
  107OSM   H18F11055   0.946  -0.251   8.718  0.5062  0.8623 -0.8024
  107OSM   H18G11056   0.990  -0.074   8.702 -1.1395  1.5527  0.6879
  107OSM   H18H11057   0.822  -0.127   8.753 -0.0718  1.6872  0.7548
  108OSM      N11058   4.461   4.469  11.218 -0.0818 -0.4359 -0.4932
  108OSM    C1511059   4.327   4.481  11.295 -0.4443 -0.8670  0.2917
  108OSM   H15A11060   4.256   4.405  11.266 -1.2434 -0.4579  1.1392
  108OSM   H15B11061   4.282   4.576  11.272  0.7466 -0.8382 -2.0447
  108OSM   H15C11062   4.329   4.469  11.403 -2.5112 -0.3340  0.4094
  108OSM    C1411063   4.560   4.551  11.297 -0.4821  0.1537 -0.3783
  108OSM   H14A11064   4.574   4.500  11.391 -0.5754  1.6618  0.4789
  108OSM   H14B11065   4.515   4.649  11.308 -2.3948 -0.9591  2.4081
  108OSM   H14C11066   4.653   4.539  11.243  0.0276 -1.5970  0.8533
  108OSM    C1311067   4.500   4.321  11.224 -1.4248 -0.4511  1.0941
  108OSM   H13A11068   4.421   4.263  11.180 -0.7815  0.3024 -1.1048
  108OSM   H13B11069   4.516   4.296  11.328  2.3256  1.1989  0.9870
  108OSM   H13C11070   4.593   4.303  11.171 -1.7192  1.2366 -0.0334
  108OSM    C1211071   4.442   4.522  11.075  1.0131 -0.9416 -0.4387
  108OSM   H12A11072   4.393   4.618  11.078 -0.9767 -1.9726  1.9455
  108OSM   H12B11073   4.372   4.455  11.028  0.4111 -2.5166  2.5743
  108OSM    C1111074   4.569   4.535  10.990  0.6380  0.1423 -0.2445
  108OSM   H11A11075   4.539   4.559  10.885  0.3631 -0.0293 -0.2054
  108OSM   H11B11076   4.619   4.436  10.986  0.2432 -0.0554 -0.2153
  108OSM      P11077   4.816   4.603  11.007  0.2017 -0.1266 -0.3267
  108OSM    O1311078   4.881   4.734  11.015 -0.5772  0.6478  0.4735
  108OSM    O1411079   4.873   4.496  11.092  0.0258  0.0645 -0.3345
  108OSM    O1111080   4.805   4.553  10.856 -0.2967 -0.1187 -0.3794
  108OSM    O1211081   4.661   4.627  11.027 -0.5644 -0.6065  0.2073
  108OSM    C1S11082   4.777   4.640  10.751 -1.1427 -0.3192 -1.0865
  108OSM    H1S11083   4.815   4.743  10.767 -0.8615 -0.4540 -0.8875
  108OSM    H1T11084   4.667   4.645  10.737 -1.6536  1.4912  2.9017
  108OSM     NF11085   4.787   4.653  10.502 -0.2716 -0.4188 -0.0184
  108OSM    HNF11086   4.709   4.619  10.449  0.0337  0.4397 -1.0343
  108OSM    C2S11087   4.844   4.583  10.619  0.2648 -0.8277  0.0784
  108OSM    H2S11088   4.950   4.616  10.626  0.4111 -1.0785 -0.9055
  108OSM    C3S11089   4.826   4.423  10.616 -0.2388  0.2083 -0.6265
  108OSM    H3S11090   4.716   4.418  10.631 -0.1516 -0.8910 -0.3210
  108OSM     O311091   4.892   4.353  10.724  0.7227  0.1802  0.4766
  108OSM    HO311092   4.911   4.424  10.786  3.0426  1.2087 -1.3650
  108OSM    C4S11093   4.874   4.374  10.485 -0.2576  0.0724  0.0865
  108OSM    H4S11094   4.798   4.364  10.407 -0.4468  1.1130  0.1400
  108OSM    C5S11095   4.997   4.328  10.446  0.2049 -0.2151  0.0016
  108OSM    H5S11096   5.085   4.335  10.512  0.7289 -2.5369 -0.4154
  108OSM    C6S11097   5.038   4.280  10.303  1.2908  0.0774  0.2090
  108OSM    H6S11098   5.067   4.174  10.318  2.3404  0.0827 -1.6805
  108OSM    H6T11099   5.123   4.342  10.266  1.3140  1.4582  2.4234
  108OSM    C7S11100   4.931   4.307  10.195 -0.1441  0.2448  0.2579
  108OSM    H7S11101   4.924   4.418  10.199  0.1265  0.2310  1.1813
  108OSM    H7T11102   4.832   4.268  10.225 -1.3567  2.4560 -0.7230
  108OSM    C8S11103   4.983   4.249  10.064 -0.0708  0.1538  1.4818
  108OSM    H8S11104   4.979   4.140  10.084 -0.6478 -0.2950 -0.9255
  108OSM    H8T11105   5.082   4.291  10.037 -2.0996  1.7883 -4.0080
  108OSM    C9S11106   4.913   4.275   9.931 -0.2015 -0.3547  0.7634
  108OSM    H9S11107   4.909   4.374   9.879 -3.2325 -1.5142 -1.3856
  108OSM    H9T11108   4.808   4.242   9.944 -0.3712 -0.1078  0.0791
  108OSM   C10S11109   4.973   4.188   9.817 -0.2587  0.2377 -0.7824
  108OSM   H10S11110   4.974   4.079   9.837 -0.8257  0.4894  0.7167
  108OSM   H10T11111   5.075   4.232   9.808 -0.2033  0.5673  1.1514
  108OSM   C11S11112   4.892   4.211   9.694 -0.3324 -0.0280  0.0886
  108OSM   H11S11113   4.846   4.310   9.672  2.5748  1.0872 -1.2971
  108OSM   H11T11114   4.809   4.138   9.680  0.4781 -1.3120  1.8374
  108OSM   C12S11115   4.974   4.177   9.569  0.3099 -0.2220  0.2139
  108OSM   H12S11116   4.995   4.068   9.576 -0.5416 -0.3693  0.5813
  108OSM   H12T11117   5.072   4.229   9.557  0.1434 -0.2565 -1.5170
  108OSM   C13S11118   4.907   4.200   9.438 -0.0525  0.4315  0.5027
  108OSM   H13S11119   4.865   4.303   9.441 -0.7700  0.0951  2.4982
  108OSM   H13T11120   4.825   4.125   9.437 -1.3303  1.7743  1.4923
  108OSM   C14S11121   4.999   4.189   9.308  0.7462  0.2738 -0.3112
  108OSM   H14S11122   5.099   4.147   9.333  0.8025  1.2731  1.2294
  108OSM   H14T11123   5.009   4.290   9.263 -1.3914  1.5946  2.0150
  108OSM   C15S11124   4.923   4.107   9.200 -0.1990  0.1794  0.0218
  108OSM   H15S11125   4.818   4.141   9.193  0.3686  1.7038 -1.3308
  108OSM   H15T11126   4.921   4.002   9.236  1.1153 -0.0009 -0.4125
  108OSM   C16S11127   5.001   4.102   9.068  0.7282 -0.1030  0.2326
  108OSM   H16S11128   4.971   4.020   8.999  0.9848 -1.6192  1.8718
  108OSM   H16T11129   5.098   4.088   9.120  0.8793 -0.1884 -0.0688
  108OSM   C17S11130   5.005   4.243   8.992 -0.5344  0.3853 -0.4541
  108OSM   H17S11131   4.975   4.330   9.054  0.9130  1.9405 -1.8900
  108OSM   H17T11132   4.922   4.236   8.918 -1.0429 -0.0705  0.1517
  108OSM   C18S11133   5.135   4.275   8.922  0.5612  0.2618  0.5167
  108OSM   H18S11134   5.176   4.190   8.863 -1.8269 -0.0849 -0.6757
  108OSM   H18T11135   5.216   4.300   8.994  2.2037 -1.1484 -0.7653
  108OSM   H18U11136   5.109   4.352   8.847  2.4123  0.3963 -0.0217
  108OSM    C1F11137   4.818   4.776  10.471 -0.0313 -0.8160 -0.9270
  108OSM     OF11138   4.885   4.841  10.548  0.2292 -0.3635  0.2454
  108OSM    C2F11139   4.791   4.837  10.333 -0.6294 -0.1008 -0.0778
  108OSM    H2F11140   4.681   4.840  10.321 -1.0659  0.4138  3.5378
  108OSM    H2G11141   4.846   4.771  10.263 -0.2152 -0.5616  0.6776
  108OSM    C3F11142   4.830   4.990  10.312  0.7333  0.7769  0.7253
  108OSM    H3F11143   4.940   4.992  10.328  0.8514 -0.1245  0.0332
  108OSM    H3G11144   4.786   5.058  10.389  1.8336  2.0605  0.2483
  108OSM    C4F11145   4.779   5.039  10.173  0.1003 -0.0520 -0.2910
  108OSM    H4F11146   4.670   5.023  10.176  0.0843  0.0422 -0.4044
  108OSM    H4G11147   4.823   4.973  10.095  0.5367  1.7998 -1.6608
  108OSM    C5F11148   4.789   5.192  10.158 -0.1380  0.1061 -0.6931
  108OSM    H5F11149   4.897   5.215  10.154  0.5357 -2.4388  1.4710
  108OSM    H5G11150   4.746   5.254  10.240  1.3132  1.5539 -1.0019
  108OSM    C6F11151   4.741   5.234  10.024 -1.0047 -0.4568 -0.2089
  108OSM    H6F11152   4.734   5.345  10.016  0.4363 -0.1725  1.9402
  108OSM    H6G11153   4.639   5.192  10.008 -1.4347  0.8302 -0.9456
  108OSM    C7F11154   4.840   5.188   9.916 -0.9304 -0.3389 -0.4745
  108OSM    H7F11155   4.824   5.078   9.915  4.2459 -1.2344 -1.8745
  108OSM    H7G11156   4.947   5.204   9.942 -0.0732 -4.0150 -1.4294
  108OSM    C8F11157   4.815   5.257   9.783  0.5837 -0.6054 -0.0658
  108OSM    H8F11158   4.904   5.285   9.723  0.1721  0.7348 -0.0775
  108OSM    H8G11159   4.773   5.356   9.811 -0.1940 -0.5649 -1.3383
  108OSM    C9F11160   4.709   5.182   9.703 -0.3973 -0.3289  0.4045
  108OSM    H9F11161   4.636   5.127   9.765 -0.2436 -1.8983 -0.7709
  108OSM   C10F11162   4.692   5.172   9.575 -0.0960 -0.7215  0.1973
  108OSM   H10F11163   4.601   5.120   9.541 -1.0318  1.5903 -0.9416
  108OSM   C11F11164   4.773   5.230   9.467 -0.2503 -0.2187  0.0061
  108OSM   H11F11165   4.848   5.160   9.424 -0.8254 -0.2116 -1.0235
  108OSM   H11G11166   4.835   5.316   9.499 -2.3220  1.1667  0.3983
  108OSM   C12F11167   4.690   5.313   9.367  0.2535 -0.4648  0.0490
  108OSM   H12F11168   4.752   5.331   9.277 -0.5274 -1.9150 -0.7917
  108OSM   H12G11169   4.659   5.408   9.416  1.7812  0.8127 -1.3940
  108OSM   C13F11170   4.564   5.243   9.316 -0.0720  0.2613 -0.7648
  108OSM   H13F11171   4.509   5.308   9.245  1.2043  1.7350 -0.4231
  108OSM   H13G11172   4.501   5.202   9.397  0.8944 -3.3423 -1.7543
  108OSM   C14F11173   4.600   5.126   9.210  0.0386  0.1367  0.0721
  108OSM   H14F11174   4.523   5.046   9.203  1.1513 -0.8157 -1.6654
  108OSM   H14G11175   4.690   5.065   9.235  1.3326  2.3848  1.0146
  108OSM   C15F11176   4.621   5.183   9.070 -0.4937  0.6154  0.4075
  108OSM   H15F11177   4.698   5.263   9.075 -0.1182  0.3970 -1.3148
  108OSM   H15G11178   4.527   5.233   9.039 -1.4939 -1.3970  0.0911
  108OSM   C16F11179   4.667   5.076   8.968 -0.3360  0.0159  0.8301
  108OSM   H16F11180   4.591   4.996   8.957 -0.0411 -0.5654  2.8435
  108OSM   H16G11181   4.753   5.020   9.012  0.2761  1.6758  1.8144
  108OSM   C17F11182   4.708   5.121   8.828  0.0363  0.7159  0.4421
  108OSM   H17F11183   4.624   5.164   8.770  0.1459 -1.8241 -1.6404
  108OSM   H17G11184   4.736   5.031   8.770  3.2126  1.2763  1.0023
  108OSM   C18F11185   4.812   5.231   8.821  0.6716 -0.1198  0.2160
  108OSM   H18F11186   4.915   5.194   8.844  1.1030  1.6109  1.1249
  108OSM   H18G11187   4.791   5.307   8.899 -1.4490  0.9852 -1.3874
  108OSM   H18H11188   4.829   5.264   8.717  1.9008  1.0365  0.7602
  109OSM      N11189   6.077   5.420  10.677 -0.5453  0.8782  0.2786
  109OSM    C1511190   6.171   5.339  10.762 -0.5515  0.2730  0.2566
  109OSM   H15A11191   6.244   5.409  10.801  0.0538 -0.3987  0.3338
  109OSM   H15B11192   6.221   5.273  10.692 -1.7451  1.9841 -2.2917
  109OSM   H15C11193   6.119   5.281  10.837  2.2067 -1.9037  0.5908
  109OSM    C1411194   6.163   5.470  10.560 -0.6763  0.6324 -1.0996
  109OSM   H14A11195   6.107   5.519  10.481  2.2040  2.9293 -1.8159
  109OSM   H14B11196   6.225   5.395  10.515 -2.6219 -1.3656 -0.5360
  109OSM   H14C11197   6.218   5.555  10.596 -1.9242  0.4138  1.4584
  109OSM    C1311198   5.981   5.332  10.610 -0.4641 -0.0127  0.2052
  109OSM   H13A11199   5.902   5.394  10.570  1.2943  2.3721  0.2732
  109OSM   H13B11200   5.929   5.261  10.671 -0.5782 -1.3042 -1.3570
  109OSM   H13C11201   6.029   5.287  10.524 -0.8593 -1.0331  0.5199
  109OSM    C1211202   6.010   5.540  10.741 -0.8005 -0.0568  0.1212
  109OSM   H12A11203   6.093   5.588  10.792 -1.0272 -2.6767  3.1158
  109OSM   H12B11204   5.940   5.518  10.821  1.1688 -1.7708  1.4243
  109OSM    C1111205   5.938   5.641  10.650  0.4088 -0.3252 -0.6938
  109OSM   H11A11206   6.008   5.704  10.590 -0.4355  0.4990 -0.8162
  109OSM   H11B11207   5.902   5.730  10.706  0.7857  0.3713 -1.5266
  109OSM      P11208   5.698   5.552  10.646  0.3022  0.4209 -0.0853
  109OSM    O1311209   5.694   5.412  10.665 -0.3169 -0.1911  0.6263
  109OSM    O1411210   5.692   5.632  10.770  0.0806 -0.1096 -0.6856
  109OSM    O1111211   5.588   5.593  10.551  0.8076 -0.0913  0.4832
  109OSM    O1211212   5.833   5.582  10.566 -0.5657 -0.0738 -0.7749
  109OSM    C1S11213   5.588   5.698  10.459 -0.0086  0.2402 -0.0255
  109OSM    H1S11214   5.636   5.660  10.367  0.0901  1.0481 -0.3065
  109OSM    H1T11215   5.648   5.787  10.488 -0.7531  1.0196 -0.8717
  109OSM     NF11216   5.439   5.841  10.312  0.3003  0.4148  0.1360
  109OSM    HNF11217   5.458   5.937  10.331 -1.7157  1.1836 -1.4917
  109OSM    C2S11218   5.443   5.753  10.433  0.0168  0.4537  0.7068
  109OSM    H2S11219   5.388   5.658  10.415  2.5767 -1.0698  0.6484
  109OSM    C3S11220   5.385   5.818  10.560  1.2470 -0.1480 -0.3621
  109OSM    H3S11221   5.449   5.901  10.596  1.3302 -1.3409  2.3232
  109OSM     O311222   5.389   5.726  10.670 -0.1413  0.5179  0.1278
  109OSM    HO311223   5.455   5.665  10.637 -1.5139 -1.6298  1.2170
  109OSM    C4S11224   5.248   5.870  10.534  0.0811  0.2063 -0.2356
  109OSM    H4S11225   5.175   5.790  10.549  0.5718 -0.1910  0.0637
  109OSM    C5S11226   5.213   5.992  10.485 -0.3668  0.1545 -0.0107
  109OSM    H5S11227   5.298   6.061  10.473 -0.5829  0.1524 -1.8107
  109OSM    C6S11228   5.070   6.029  10.457 -0.4245 -0.1408  0.4120
  109OSM    H6S11229   5.041   6.082  10.550  1.2391 -0.4542  1.1342
  109OSM    H6T11230   5.004   5.940  10.463 -2.0474  1.1417  2.7940
  109OSM    C7S11231   5.042   6.111  10.340  0.2357 -0.5230  0.9448
  109OSM    H7S11232   5.088   6.211  10.355  1.6321 -1.4261  2.9731
  109OSM    H7T11233   4.932   6.113  10.332  0.2628 -2.2897 -0.3344
  109OSM    C8S11234   5.105   6.044  10.215  0.3129  0.5481  0.9360
  109OSM    H8S11235   5.053   5.946  10.207 -1.5301  1.6335 -0.8292
  109OSM    H8T11236   5.214   6.044  10.237 -0.0920  1.5882  3.0640
  109OSM    C9S11237   5.055   6.101  10.083  0.3946 -0.0890 -0.6949
  109OSM    H9S11238   5.047   6.212  10.076  0.1652 -0.0521  0.1458
  109OSM    H9T11239   4.951   6.066  10.061 -1.3862  2.7866  2.6034
  109OSM   C10S11240   5.123   6.045   9.962  0.6068  0.3068  0.6771
  109OSM   H10S11241   5.104   5.936   9.965 -1.4308  0.6361  0.7910
  109OSM   H10T11242   5.234   6.050   9.955  0.5550 -2.0083 -2.6698
  109OSM   C11S11243   5.069   6.104   9.835 -0.2930 -0.2626 -0.1441
  109OSM   H11S11244   5.049   6.212   9.852 -0.4928 -0.4375  0.7362
  109OSM   H11T11245   4.967   6.061   9.827 -0.3064 -0.3562  0.5012
  109OSM   C12S11246   5.142   6.095   9.700 -0.0037 -0.1681  0.4674
  109OSM   H12S11247   5.153   5.987   9.679  0.8459  0.5576 -3.0433
  109OSM   H12T11248   5.241   6.143   9.718  0.2343 -1.4547  2.9378
  109OSM   C13S11249   5.072   6.180   9.589 -0.2664  0.2006  0.4657
  109OSM   H13S11250   5.065   6.290   9.606  0.3136 -0.2127  3.5903
  109OSM   H13T11251   4.966   6.152   9.602  0.2796 -1.9938  0.4158
  109OSM   C14S11252   5.116   6.146   9.450  0.0470  0.5032  0.5346
  109OSM   H14S11253   5.132   6.037   9.442 -1.0196  0.5929 -4.2336
  109OSM   H14T11254   5.203   6.210   9.425  0.6816  0.3178  2.1588
  109OSM   C15S11255   4.998   6.175   9.348  0.4807  0.2414  0.5100
  109OSM   H15S11256   4.966   6.281   9.351 -0.0080  0.1475 -0.8118
  109OSM   H15T11257   4.916   6.113   9.389 -0.0857 -0.1747 -1.2103
  109OSM   C16S11258   5.023   6.131   9.198  0.5030 -0.1591 -0.1726
  109OSM   H16S11259   5.087   6.203   9.143  0.8374 -1.3766 -1.4017
  109OSM   H16T11260   4.928   6.121   9.140  0.6951 -2.2648 -0.1741
  109OSM   C17S11261   5.102   6.000   9.187  0.5126  0.1831 -0.4018
  109OSM   H17S11262   5.067   5.920   9.256  1.2920 -0.5732 -0.8777
  109OSM   H17T11263   5.208   6.012   9.218 -0.0021  1.3333  0.9433
  109OSM   C18S11264   5.107   5.948   9.041  0.6770 -0.1378  0.2693
  109OSM   H18S11265   5.006   5.925   9.000  0.4393  1.6107 -0.1916
  109OSM   H18T11266   5.165   5.853   9.044  0.8356 -0.1438 -1.8839
  109OSM   H18U11267   5.152   6.023   8.973 -1.4472  1.9344  1.0857
  109OSM    C1F11268   5.458   5.785  10.190  0.0294  0.8665 -0.1946
  109OSM     OF11269   5.462   5.667  10.175  0.4682  0.6260 -0.0331
  109OSM    C2F11270   5.467   5.873  10.075  0.6121  0.0044  0.4017
  109OSM    H2F11271   5.559   5.931  10.095  1.5218 -1.0160 -0.8241
  109OSM    H2G11272   5.379   5.941  10.071  0.5079 -0.1849 -0.5251
  109OSM    C3F11273   5.484   5.794   9.939 -0.0670  0.2882 -0.1370
  109OSM    H3F11274   5.391   5.735   9.922  0.7535 -0.6283 -1.5675
  109OSM    H3G11275   5.569   5.722   9.947 -0.4970 -0.0195  2.2843
  109OSM    C4F11276   5.493   5.890   9.826  0.1926 -0.6809  0.3858
  109OSM    H4F11277   5.582   5.956   9.819 -1.2102  1.1783 -0.3381
  109OSM    H4G11278   5.406   5.958   9.832  1.4683  1.0695 -0.5057
  109OSM    C5F11279   5.486   5.813   9.687  0.7807  0.0056  0.8345
  109OSM    H5F11280   5.394   5.750   9.689 -0.0614  1.1926  0.2512
  109OSM    H5G11281   5.574   5.747   9.677  0.8039  0.2244 -0.4155
  109OSM    C6F11282   5.470   5.905   9.568 -0.0574 -0.4220 -0.0248
  109OSM    H6F11283   5.568   5.958   9.570  0.7108 -1.8413  0.2554
  109OSM    H6G11284   5.389   5.981   9.574  0.7359  0.3341  1.6390
  109OSM    C7F11285   5.453   5.824   9.437  0.0306 -0.4781 -0.0007
  109OSM    H7F11286   5.358   5.766   9.433  0.5537 -1.2200 -2.4936
  109OSM    H7G11287   5.535   5.749   9.425 -0.1391 -0.5063 -0.9837
  109OSM    C8F11288   5.460   5.899   9.303 -0.1317  0.3246  0.2107
  109OSM    H8F11289   5.556   5.956   9.303  0.0018  0.1092  0.9933
  109OSM    H8G11290   5.389   5.984   9.293 -0.6584 -0.0121  1.0650
  109OSM    C9F11291   5.454   5.791   9.190 -0.6923 -0.5302 -0.2765
  109OSM    H9F11292   5.451   5.682   9.208  0.2687 -0.8495 -1.9090
  109OSM   C10F11293   5.474   5.819   9.058  0.1505 -0.1090 -0.3161
  109OSM   H10F11294   5.440   5.737   8.993  0.3126 -0.9022  0.5869
  109OSM   C11F11295   5.500   5.954   8.993 -0.0965 -0.0927 -0.7507
  109OSM   H11F11296   5.608   5.980   9.004 -0.1075 -0.9112  1.6539
  109OSM   H11G11297   5.444   6.033   9.049  0.6386  0.3826 -0.6751
  109OSM   C12F11298   5.465   5.970   8.843  0.4130  0.1200 -0.1217
  109OSM   H12F11299   5.354   5.959   8.839  0.5683 -2.2835  1.0798
  109OSM   H12G11300   5.524   5.894   8.788 -0.8813  0.7990 -2.5288
  109OSM   C13F11301   5.516   6.108   8.794  0.4229  0.0502  0.0599
  109OSM   H13F11302   5.619   6.108   8.835  1.5111 -0.6109 -2.5556
  109OSM   H13G11303   5.455   6.190   8.840 -1.8022 -2.1745  1.1946
  109OSM   C14F11304   5.523   6.125   8.645 -0.0069 -0.0170  0.4899
  109OSM   H14F11305   5.576   6.033   8.610 -0.0519 -0.3750  1.3623
  109OSM   H14G11306   5.582   6.207   8.599  0.7353 -0.9833 -0.3146
  109OSM   C15F11307   5.392   6.135   8.567 -0.6032 -0.1145  0.1737
  109OSM   H15F11308   5.339   6.042   8.597 -0.6369  0.2773  1.3939
  109OSM   H15G11309   5.407   6.125   8.458  0.3772  2.8299  0.0181
  109OSM   C16F11310   5.300   6.261   8.599  0.5497 -0.4697  0.0421
  109OSM   H16F11311   5.362   6.352   8.609 -1.0538  0.5852  0.4752
  109OSM   H16G11312   5.273   6.247   8.706 -3.0338 -0.4658 -0.7911
  109OSM   C17F11313   5.181   6.283   8.512 -0.1696  0.1164 -0.5987
  109OSM   H17F11314   5.208   6.260   8.406  4.3423  0.6457  0.3096
  109OSM   H17G11315   5.153   6.390   8.504 -1.5303 -0.1683  0.2625
  109OSM   C18F11316   5.058   6.200   8.560 -0.4074 -0.3289  0.1682
  109OSM   H18F11317   5.095   6.121   8.628 -1.1286 -0.2917  0.5959
  109OSM   H18G11318   5.008   6.161   8.469  0.1425 -2.5706  0.7939
  109OSM   H18H11319   4.995   6.272   8.617  0.5246 -0.4700  1.3910
  110OSM      N11320   6.507   4.654  11.164 -0.1825 -0.4852 -0.0850
  110OSM    C1511321   6.402   4.575  11.107  0.5834  0.0277  0.5686
  110OSM   H15A11322   6.343   4.518  11.177 -4.7353  3.4085 -0.8762
  110OSM   H15B11323   6.431   4.499  11.035  2.7219 -0.2910  1.7427
  110OSM   H15C11324   6.330   4.632  11.049  0.1971 -2.7056 -1.7753
  110OSM    C1411325   6.438   4.780  11.231  0.7180  0.2412 -0.2963
  110OSM   H14A11326   6.363   4.826  11.168  0.0103  1.1389  1.1602
  110OSM   H14B11327   6.503   4.854  11.276  0.4475 -0.2230  0.8639
  110OSM   H14C11328   6.389   4.748  11.322  2.6985 -0.1720  0.6449
  110OSM    C1311329   6.583   4.577  11.274 -0.2179 -0.7816 -0.5645
  110OSM   H13A11330   6.518   4.553  11.357 -0.8368  3.6945  0.3844
  110OSM   H13B11331   6.653   4.650  11.315 -2.9918  2.1692 -0.8572
  110OSM   H13C11332   6.641   4.494  11.237  0.1703 -1.9665  2.5626
  110OSM    C1211333   6.603   4.706  11.059  0.8043 -0.8640  0.0102
  110OSM   H12A11334   6.658   4.624  11.015 -1.0934 -0.9857 -2.2799
  110OSM   H12B11335   6.675   4.771  11.107  2.0593 -1.3620 -1.1284
  110OSM    C1111336   6.545   4.783  10.938  0.6851 -0.5272 -0.7273
  110OSM   H11A11337   6.447   4.738  10.913  0.5593 -0.4023 -0.4542
  110OSM   H11B11338   6.617   4.764  10.856  1.3775  0.5822 -0.3890
  110OSM      P11339   6.669   5.020  10.958  0.0380 -0.5156  0.1746
  110OSM    O1311340   6.636   5.153  10.895 -0.7799 -0.2488 -0.1116
  110OSM    O1411341   6.743   5.019  11.087 -0.3056  0.1328 -0.3235
  110OSM    O1111342   6.758   4.955  10.843 -0.3994 -0.2584 -0.1181
  110OSM    O1211343   6.543   4.924  10.968 -0.1068  0.4450  0.0348
  110OSM    C1S11344   6.710   4.960  10.709 -0.0096  0.5696 -0.5065
  110OSM    H1S11345   6.713   5.064  10.669 -2.6394  1.3435  1.1298
  110OSM    H1T11346   6.604   4.931  10.695  0.2206 -0.4427 -0.1464
  110OSM     NF11347   6.694   4.824  10.499  0.4770 -0.8014 -0.2435
  110OSM    HNF11348   6.640   4.741  10.504 -1.0781  0.0868 -1.5811
  110OSM    C2S11349   6.781   4.855  10.612 -0.5789  0.5601  0.5428
  110OSM    H2S11350   6.872   4.906  10.574  1.2847 -2.3673  0.9707
  110OSM    C3S11351   6.831   4.726  10.675 -0.1779  0.3252 -0.2599
  110OSM    H3S11352   6.746   4.664  10.710 -0.7983  2.1796  1.6282
  110OSM     O311353   6.920   4.744  10.783  0.1353  0.5921 -0.2650
  110OSM    HO311354   6.892   4.825  10.827 -3.5504  0.5455 -2.3097
  110OSM    C4S11355   6.909   4.641  10.576  0.2888 -0.3177 -0.2479
  110OSM    H4S11356   6.859   4.550  10.540  1.0222 -0.3281 -1.2660
  110OSM    C5S11357   7.025   4.663  10.515 -0.5432  0.0619 -0.5078
  110OSM    H5S11358   7.081   4.757  10.522  0.5302 -0.6053  0.0763
  110OSM    C6S11359   7.084   4.560  10.426  0.3056  0.0065  0.9895
  110OSM    H6S11360   7.061   4.457  10.463 -0.5264 -0.4744 -0.7799
  110OSM    H6T11361   7.193   4.575  10.414  0.0027  1.4521 -0.0950
  110OSM    C7S11362   7.016   4.563  10.289 -0.1791  0.1147  1.0694
  110OSM    H7S11363   6.910   4.539  10.309 -0.1139 -0.2201  1.0256
  110OSM    H7T11364   7.067   4.485  10.228 -0.9494  1.1350 -0.9343
  110OSM    C8S11365   7.012   4.689  10.207 -0.7577  0.0938 -0.9422
  110OSM    H8S11366   7.111   4.705  10.159  1.8726  0.3835  4.2300
  110OSM    H8T11367   7.013   4.790  10.252  0.0228  0.1139 -0.9918
  110OSM    C9S11368   6.907   4.690  10.099  0.2601 -0.2778 -0.4011
  110OSM    H9S11369   6.804   4.706  10.138  0.4134  2.0979 -0.8920
  110OSM    H9T11370   6.920   4.588  10.056  1.0971 -0.3848  0.0887
  110OSM   C10S11371   6.932   4.802   9.994 -0.6177 -0.1985  0.3111
  110OSM   H10S11372   7.023   4.787   9.933 -0.6788 -0.3656  0.2601
  110OSM   H10T11373   6.953   4.892  10.055  4.0304 -2.1692  1.7657
  110OSM   C11S11374   6.819   4.827   9.896  0.3062  0.2511 -0.0724
  110OSM   H11S11375   6.842   4.929   9.857  0.9961  0.5180  1.0174
  110OSM   H11T11376   6.723   4.819   9.952  0.2547 -0.2116 -0.2208
  110OSM   C12S11377   6.801   4.720   9.789  1.1744  0.3016  0.8003
  110OSM   H12S11378   6.793   4.622   9.840 -0.5675 -0.3065 -0.5686
  110OSM   H12T11379   6.894   4.717   9.729 -0.4013  2.9285 -1.9605
  110OSM   C13S11380   6.677   4.746   9.698  0.0799 -0.1170 -0.4607
  110OSM   H13S11381   6.587   4.771   9.760 -0.4317  0.1877 -1.3172
  110OSM   H13T11382   6.664   4.658   9.632  2.9188 -0.3409 -0.7443
  110OSM   C14S11383   6.697   4.875   9.608  0.1722 -0.2417  0.4475
  110OSM   H14S11384   6.779   4.837   9.543  0.0059 -0.7093  0.5085
  110OSM   H14T11385   6.724   4.957   9.677 -1.0139  0.1100  0.5093
  110OSM   C15S11386   6.581   4.924   9.523  0.4005  0.1376  0.1075
  110OSM   H15S11387   6.554   5.029   9.546  1.0922  0.1057  1.1166
  110OSM   H15T11388   6.496   4.863   9.561  0.6247 -1.0517 -1.2555
  110OSM   C16S11389   6.604   4.919   9.372  0.2307  0.4914 -0.2595
  110OSM   H16S11390   6.629   4.814   9.346  1.4129  0.2609  1.6496
  110OSM   H16T11391   6.694   4.979   9.345  1.1845 -0.4693  0.7421
  110OSM   C17S11392   6.484   4.957   9.288 -0.6166  0.5264  0.1873
  110OSM   H17S11393   6.451   5.062   9.303  1.4356  1.6345 -2.6529
  110OSM   H17T11394   6.408   4.889   9.332  0.9122  0.4957  2.8947
  110OSM   C18S11395   6.515   4.918   9.145  0.7485  0.0553  0.5688
  110OSM   H18S11396   6.429   4.960   9.088  0.8756  0.9846  1.0565
  110OSM   H18T11397   6.535   4.810   9.128  0.7765  0.1306  0.1330
  110OSM   H18U11398   6.600   4.979   9.108 -0.4550  0.4371 -1.6616
  110OSM    C1F11399   6.683   4.914  10.399  0.6325  0.0880 -0.0906
  110OSM     OF11400   6.771   4.997  10.385  0.0292  0.9937  0.2533
  110OSM    C2F11401   6.556   4.912  10.311 -0.0497 -0.5633  0.3416
  110OSM    H2F11402   6.477   4.985  10.340  0.3591  0.3438 -0.7791
  110OSM    H2G11403   6.519   4.808  10.299 -1.2468 -0.1958  0.7682
  110OSM    C3F11404   6.600   4.956  10.170 -0.7485 -0.4932 -0.0728
  110OSM    H3F11405   6.681   4.890  10.134 -0.0542  0.0581  0.4550
  110OSM    H3G11406   6.637   5.061  10.166  0.2602 -0.9036 -1.9882
  110OSM    C4F11407   6.477   4.972  10.071  0.4010 -0.6349 -0.3289
  110OSM    H4F11408   6.394   5.024  10.124  2.1131  0.6553  1.1358
  110OSM    H4G11409   6.449   4.867  10.047  0.8447 -1.1402  1.3215
  110OSM    C5F11410   6.503   5.048   9.939 -0.5150 -0.6168 -0.9213
  110OSM    H5F11411   6.582   5.000   9.877  0.1992  0.6574 -1.0122
  110OSM    H5G11412   6.533   5.154   9.953 -1.6377 -0.4063 -0.0259
  110OSM    C6F11413   6.380   5.070   9.848  0.9691  0.5201  0.3825
  110OSM    H6F11414   6.340   4.971   9.817 -1.7042  1.3107  1.1716
  110OSM    H6G11415   6.416   5.132   9.763 -0.7727 -1.1028 -1.5868
  110OSM    C7F11416   6.264   5.150   9.917 -0.9460 -0.3686  0.5338
  110OSM    H7F11417   6.296   5.254   9.938  0.0153 -0.6364  0.4422
  110OSM    H7G11418   6.229   5.103  10.012 -1.2588 -0.0872  0.5574
  110OSM    C8F11419   6.132   5.176   9.835 -0.2571  0.2368 -0.4123
  110OSM    H8F11420   6.064   5.234   9.901  2.7857  1.7158  1.5232
  110OSM    H8G11421   6.081   5.078   9.821  0.7528 -0.4648  0.6994
  110OSM    C9F11422   6.167   5.254   9.710  0.2819 -0.0043  0.0660
  110OSM    H9F11423   6.184   5.361   9.730  0.2337 -0.3318  1.9131
  110OSM   C10F11424   6.169   5.213   9.587  0.3469 -0.1662  0.8434
  110OSM   H10F11425   6.180   5.282   9.503 -1.2697  1.1131  1.6626
  110OSM   C11F11426   6.139   5.071   9.551 -0.0467  0.5395  0.0166
  110OSM   H11F11427   6.116   5.006   9.638  0.7358 -0.0909 -0.2482
  110OSM   H11G11428   6.209   5.020   9.483 -2.1771 -1.9088 -0.4165
  110OSM   C12F11429   6.008   5.095   9.473 -0.1364  0.1794 -0.6596
  110OSM   H12F11430   5.931   5.135   9.544  0.6353 -1.0645  0.8915
  110OSM   H12G11431   5.962   4.996   9.456 -1.4692  0.9154 -1.4129
  110OSM   C13F11432   6.018   5.176   9.344  0.5433  0.1773  0.0730
  110OSM   H13F11433   6.124   5.165   9.313  0.2902  0.8018 -1.0737
  110OSM   H13G11434   5.998   5.284   9.359  0.5250  0.3827 -1.3583
  110OSM   C14F11435   5.940   5.109   9.229 -0.7424 -0.0791  0.3868
  110OSM   H14F11436   5.830   5.119   9.243 -1.0013  1.9127 -2.5973
  110OSM   H14G11437   5.984   5.007   9.222  3.4021  1.7612 -2.6728
  110OSM   C15F11438   5.979   5.174   9.092 -0.4216  0.0254 -0.0549
  110OSM   H15F11439   5.952   5.114   9.002 -3.0609 -1.9443  1.9822
  110OSM   H15G11440   6.090   5.172   9.089 -0.4652 -2.8108 -1.3857
  110OSM   C16F11441   5.921   5.313   9.065  0.5735 -0.2562  0.1663
  110OSM   H16F11442   5.971   5.381   9.137  2.4090  0.3557 -1.6271
  110OSM   H16G11443   5.813   5.308   9.089  1.0832  0.2230  2.6917
  110OSM   C17F11444   5.935   5.365   8.916  0.1886  0.8335  0.9343
  110OSM   H17F11445   5.889   5.466   8.916  1.8756  1.6191 -0.9126
  110OSM   H17G11446   5.875   5.290   8.860  2.1127  0.2316 -0.3483
  110OSM   C18F11447   6.070   5.373   8.848 -0.6164 -0.0298  0.4789
  110OSM   H18F11448   6.069   5.439   8.759  0.6425  0.2867  0.6877
  110OSM   H18G11449   6.110   5.275   8.812  0.0165 -0.2994  1.8920
  110OSM   H18H11450   6.150   5.405   8.919  1.8314 -0.1356 -2.1468
  111OSM      N11451   1.570   1.423  10.983  0.0581 -0.0371 -0.5141
  111OSM    C1511452   1.669   1.326  10.922  0.3010 -0.3860 -0.1442
  111OSM   H15A11453   1.768   1.367  10.928  0.3585 -0.5763  0.2242
  111OSM   H15B11454   1.654   1.299  10.819 -0.7741 -2.9705  0.6279
  111OSM   H15C11455   1.669   1.231  10.975 -1.1475 -1.8890 -2.7449
  111OSM    C1411456   1.443   1.344  11.011  0.2649  1.2257 -0.5450
  111OSM   H14A11457   1.453   1.256  11.072 -2.7653 -0.7372 -2.7266
  111OSM   H14B11458   1.394   1.316  10.919  0.2637  0.0800 -0.2056
  111OSM   H14C11459   1.377   1.403  11.072  0.5331 -1.2012  2.1717
  111OSM    C1311460   1.620   1.471  11.111  0.0452 -0.2001  1.0442
  111OSM   H13A11461   1.712   1.528  11.116  0.7826 -1.3874  1.4655
  111OSM   H13B11462   1.628   1.382  11.172 -0.1086 -1.5561 -0.8721
  111OSM   H13C11463   1.542   1.526  11.161 -0.0712 -1.9704  2.8711
  111OSM    C1211464   1.536   1.539  10.889  0.8214  0.2047 -0.2733
  111OSM   H12A11465   1.623   1.589  10.849  0.9866 -1.0670 -1.5504
  111OSM   H12B11466   1.478   1.616  10.938 -0.1671 -1.0132  0.4827
  111OSM    C1111467   1.467   1.509  10.755 -0.3864 -0.4501 -0.3702
  111OSM   H11A11468   1.530   1.441  10.695 -1.4063 -2.1250  0.4378
  111OSM   H11B11469   1.451   1.602  10.696  0.1079  0.1904  0.4935
  111OSM      P11470   1.206   1.516  10.820 -0.0656  0.0122  0.3345
  111OSM    O1311471   1.124   1.418  10.885 -0.5918 -0.3642  0.0101
  111OSM    O1411472   1.246   1.632  10.904 -0.4028 -0.0184  0.2595
  111OSM    O1111473   1.144   1.558  10.680 -0.3475 -0.2169  0.0953
  111OSM    O1211474   1.343   1.447  10.774 -0.0338 -0.1426 -0.2453
  111OSM    C1S11475   1.176   1.484  10.563  0.8440 -0.1811  0.4615
  111OSM    H1S11476   1.150   1.376  10.568  1.3834 -0.2492  2.0998
  111OSM    H1T11477   1.281   1.479  10.528  0.3857 -0.4417 -0.8974
  111OSM     NF11478   1.100   1.445  10.338 -0.1194  0.1507 -0.2024
  111OSM    HNF11479   1.156   1.469  10.259  0.7959 -1.0167  0.0622
  111OSM    C2S11480   1.092   1.537  10.446  0.2412  0.2255  0.1055
  111OSM    H2S11481   0.986   1.541  10.481  0.2949  1.8366  0.1128
  111OSM    C3S11482   1.140   1.679  10.399 -0.4460  0.6206 -0.0797
  111OSM    H3S11483   1.250   1.671  10.387 -0.4698 -1.8675  1.2008
  111OSM     O311484   1.118   1.782  10.495  0.1340 -0.1114  0.5798
  111OSM    HO311485   1.126   1.734  10.578 -1.2612 -1.9133 -0.3041
  111OSM    C4S11486   1.084   1.713  10.262  0.2136 -1.7277 -0.5603
  111OSM    H4S11487   1.158   1.717  10.181 -0.8515 -0.4785 -1.4879
  111OSM    C5S11488   0.961   1.762  10.242 -0.4799 -0.7862 -0.1407
  111OSM    H5S11489   0.913   1.779  10.340  1.1266  0.2016  0.5075
  111OSM    C6S11490   0.887   1.809  10.119 -0.1748  0.0455  0.4454
  111OSM    H6S11491   0.918   1.913  10.092 -0.7567  0.5514  1.7149
  111OSM    H6T11492   0.779   1.821  10.143 -0.4970 -0.5174 -0.7011
  111OSM    C7S11493   0.911   1.719   9.999 -0.1572  0.6809 -0.4226
  111OSM    H7S11494   0.872   1.616  10.013  0.3895  0.7179  1.6893
  111OSM    H7T11495   1.021   1.703   9.999 -0.3392 -1.1202  2.3924
  111OSM    C8S11496   0.877   1.785   9.865  0.9306 -0.2623  0.1333
  111OSM    H8S11497   0.928   1.880   9.838  2.4049 -0.6326  1.5426
  111OSM    H8T11498   0.767   1.800   9.868  0.8508 -1.1329  2.6670
  111OSM    C9S11499   0.899   1.680   9.754  0.3810  0.1359 -0.1093
  111OSM    H9S11500   0.822   1.603   9.773 -1.8752  1.9129 -1.8005
  111OSM    H9T11501   0.996   1.626   9.750  1.8394  2.6249  0.4871
  111OSM   C10S11502   0.880   1.735   9.611  0.3140 -0.3224 -0.1836
  111OSM   H10S11503   0.964   1.802   9.585  1.1665 -1.4461 -0.3730
  111OSM   H10T11504   0.791   1.801   9.604  0.3090 -0.2923  0.1739
  111OSM   C11S11505   0.880   1.630   9.501 -0.3823  0.4035 -0.1961
  111OSM   H11S11506   0.788   1.570   9.512  2.2907 -4.0289 -0.5365
  111OSM   H11T11507   0.973   1.569   9.509 -0.5587  0.3215  1.2581
  111OSM   C12S11508   0.873   1.672   9.360  0.7619  0.1263 -0.3368
  111OSM   H12S11509   0.795   1.751   9.357  0.3644 -0.3211 -1.8814
  111OSM   H12T11510   0.836   1.590   9.296 -0.0298  0.8910 -0.8707
  111OSM   C13S11511   0.997   1.737   9.302  0.2803  0.5899 -0.3746
  111OSM   H13S11512   1.079   1.662   9.294  0.1112  0.2590  0.9271
  111OSM   H13T11513   1.053   1.810   9.365 -0.0901  2.5243 -2.2245
  111OSM   C14S11514   0.963   1.812   9.173  0.1072  0.5524  0.1883
  111OSM   H14S11515   1.054   1.874   9.155  1.6000 -1.5793  0.2270
  111OSM   H14T11516   0.881   1.882   9.199 -0.7069 -0.4129  0.2458
  111OSM   C15S11517   0.934   1.716   9.055  0.2310 -0.0623 -0.2297
  111OSM   H15S11518   0.839   1.667   9.084 -0.6155  0.8445 -1.4004
  111OSM   H15T11519   1.017   1.645   9.035  1.1548  2.0325 -4.6701
  111OSM   C16S11520   0.909   1.792   8.920 -0.2880  0.3570 -0.1211
  111OSM   H16S11521   1.002   1.847   8.894  2.4824 -3.0758  2.0053
  111OSM   H16T11522   0.822   1.858   8.938  0.0856  0.3297  1.9550
  111OSM   C17S11523   0.890   1.692   8.800  1.0879 -0.3620 -0.0350
  111OSM   H17S11524   0.794   1.642   8.825  0.9312  0.7278  1.6671
  111OSM   H17T11525   0.970   1.615   8.800  1.0637 -0.3934 -1.1997
  111OSM   C18S11526   0.877   1.763   8.663 -0.2399 -0.4098  0.7350
  111OSM   H18S11527   0.826   1.693   8.594 -1.3916  1.6391 -0.5309
  111OSM   H18T11528   0.978   1.782   8.621 -0.9814 -0.4522 -1.0933
  111OSM   H18U11529   0.811   1.851   8.671  1.2853  0.8432 -0.2467
  111OSM    C1F11530   1.022   1.341  10.323 -0.1091  0.3291  0.3242
  111OSM     OF11531   0.936   1.310  10.403 -0.0559 -0.2875 -0.0846
  111OSM    C2F11532   1.051   1.252  10.206 -0.3781  0.5110 -0.1524
  111OSM    H2F11533   1.038   1.149  10.247  1.3042 -0.3005 -1.6016
  111OSM    H2G11534   1.159   1.259  10.181 -0.2466 -0.4485  0.1057
  111OSM    C3F11535   0.967   1.286  10.078  0.9505 -0.6409  0.2975
  111OSM    H3F11536   0.989   1.220   9.991 -2.7806  0.2568 -1.4079
  111OSM    H3G11537   0.979   1.393  10.054 -2.0495 -0.0448  1.2788
  111OSM    C4F11538   0.818   1.285  10.093 -0.0825  0.3811  0.2683
  111OSM    H4F11539   0.772   1.328  10.185 -3.1686 -0.3309 -0.8704
  111OSM    H4G11540   0.790   1.178  10.105 -1.8205  0.6411 -1.2893
  111OSM    C5F11541   0.744   1.330   9.963  0.7876 -0.3600  0.9672
  111OSM    H5F11542   0.759   1.439   9.952  1.7133 -0.4348  1.3989
  111OSM    H5G11543   0.636   1.314   9.981  0.9697 -0.7129  1.7793
  111OSM    C6F11544   0.785   1.252   9.841  0.5594  0.0012 -0.6285
  111OSM    H6F11545   0.768   1.143   9.852 -3.0908  0.4404 -1.3594
  111OSM    H6G11546   0.893   1.265   9.817  0.3072  0.7126 -1.3980
  111OSM    C7F11547   0.701   1.298   9.726 -0.8580  0.0221  0.7381
  111OSM    H7F11548   0.727   1.405   9.716  0.8759 -0.3603  1.0592
  111OSM    H7G11549   0.592   1.291   9.748 -0.8990 -1.2260  0.2111
  111OSM    C8F11550   0.738   1.237   9.594 -0.1285 -0.9394 -0.2128
  111OSM    H8F11551   0.719   1.127   9.596  0.7507 -1.0863  0.8392
  111OSM    H8G11552   0.848   1.248   9.576 -0.2631  1.7596  0.5317
  111OSM    C9F11553   0.659   1.302   9.479 -0.1939 -0.6370 -0.0565
  111OSM    H9F11554   0.566   1.355   9.506  0.2961  0.2821 -0.1301
  111OSM   C10F11555   0.703   1.310   9.356  0.0621  0.1814  0.2565
  111OSM   H10F11556   0.641   1.365   9.284  1.2848  0.8249 -0.3117
  111OSM   C11F11557   0.840   1.260   9.307  0.1118 -0.7504  0.4001
  111OSM   H11F11558   0.901   1.211   9.386 -0.2279  0.2746  1.2970
  111OSM   H11G11559   0.896   1.353   9.284 -2.4058  1.2704  2.2175
  111OSM   C12F11560   0.826   1.172   9.178 -0.3163 -0.5024 -0.2153
  111OSM   H12F11561   0.749   1.094   9.189 -1.7173  0.6889 -1.3753
  111OSM   H12G11562   0.927   1.128   9.165  1.8752  3.7040  1.4820
  111OSM   C13F11563   0.799   1.270   9.062 -0.0364  0.0157  0.7916
  111OSM   H13F11564   0.879   1.347   9.061 -0.7890  0.8038  0.6008
  111OSM   H13G11565   0.702   1.320   9.083 -1.7880 -1.7001 -2.6757
  111OSM   C14F11566   0.782   1.217   8.921 -0.2670 -0.2881 -0.3712
  111OSM   H14F11567   0.876   1.167   8.891  0.7801  0.7307  1.1367
  111OSM   H14G11568   0.772   1.305   8.853  0.3317  0.0125 -0.0742
  111OSM   C15F11569   0.662   1.116   8.906 -0.9433 -0.0045  0.1572
  111OSM   H15F11570   0.574   1.178   8.931 -0.0516  1.2801  0.1644
  111OSM   H15G11571   0.672   1.032   8.978  2.3014 -1.6552 -2.0758
  111OSM   C16F11572   0.664   1.067   8.755 -0.0870  0.0215  0.5495
  111OSM   H16F11573   0.749   0.997   8.748 -0.2830 -0.0475 -1.2373
  111OSM   H16G11574   0.681   1.160   8.697 -0.5716 -0.7651 -0.8693
  111OSM   C17F11575   0.533   1.008   8.714  0.8938 -0.5455 -0.0081
  111OSM   H17F11576   0.453   1.084   8.722 -0.0954 -1.6579  0.6748
  111OSM   H17G11577   0.510   0.934   8.794  3.2365  1.3901  2.5580
  111OSM   C18F11578   0.524   0.935   8.576 -0.1691 -0.6362 -0.0273
  111OSM   H18F11579   0.584   1.005   8.513 -0.9485  0.8875  0.8928
  111OSM   H18G11580   0.419   0.926   8.542 -0.4850  0.2384  0.7053
  111OSM   H18H11581   0.581   0.840   8.565 -1.2883 -0.9115 -4.2857
  112OSM      N11582   0.943   5.499  11.290  0.6672 -0.8241 -0.2779
  112OSM    C1511583   1.046   5.596  11.336 -0.9087 -0.0894  0.1684
  112OSM   H15A11584   1.099   5.550  11.418  1.8110 -1.4932 -2.2709
  112OSM   H15B11585   1.004   5.690  11.367 -1.1483 -0.4326  0.8857
  112OSM   H15C11586   1.127   5.602  11.265 -0.8931 -1.7871  0.0098
  112OSM    C1411587   0.992   5.371  11.241 -0.0460 -0.4633  0.0108
  112OSM   H14A11588   1.047   5.389  11.150  0.1295 -1.1536 -0.0244
  112OSM   H14B11589   0.913   5.300  11.218  1.4774 -1.5951 -1.8819
  112OSM   H14C11590   1.049   5.322  11.319 -0.7722 -0.2669  0.6701
  112OSM    C1311591   0.869   5.464  11.419 -0.6386 -0.4823  0.7332
  112OSM   H13A11592   0.942   5.443  11.495 -1.0880  3.3921  2.3496
  112OSM   H13B11593   0.800   5.381  11.405 -0.0074 -1.0294  0.8591
  112OSM   H13C11594   0.813   5.553  11.443  1.2426  0.8113  0.4005
  112OSM    C1211595   0.839   5.561  11.198 -0.2895 -0.3347  0.0570
  112OSM   H12A11596   0.785   5.640  11.247 -2.6058  0.1709 -3.1191
  112OSM   H12B11597   0.754   5.497  11.181 -1.4266  0.9346  0.9103
  112OSM    C1111598   0.903   5.611  11.061  0.6252  0.0043 -0.4779
  112OSM   H11A11599   0.825   5.614  10.982 -1.8439 -1.0626  1.8240
  112OSM   H11B11600   0.983   5.544  11.024  0.3599 -0.0496 -0.9595
  112OSM      P11601   0.846   5.865  11.082 -0.6382  0.1824  0.8909
  112OSM    O1311602   0.751   5.833  11.189 -0.1548  0.1045 -0.2112
  112OSM    O1411603   0.919   5.993  11.099 -0.4864 -0.3036  0.1366
  112OSM    O1111604   0.771   5.845  10.943  0.7266  0.2445 -0.2873
  112OSM    O1211605   0.947   5.746  11.070 -0.1596 -0.5475  0.5749
  112OSM    C1S11606   0.761   5.944  10.845 -0.7891  0.3167 -0.5506
  112OSM    H1S11607   0.859   5.996  10.836 -0.1012 -0.7547  0.4657
  112OSM    H1T11608   0.700   6.026  10.888  0.7498  0.8408  0.6919
  112OSM     NF11609   0.727   5.981  10.602  0.2518 -0.2327 -0.5043
  112OSM    HNF11610   0.651   6.016  10.548 -0.3418 -1.0494 -0.2061
  112OSM    C2S11611   0.709   5.883  10.715  0.8637  0.3802  0.1947
  112OSM    H2S11612   0.768   5.790  10.700  1.2887  0.5645  0.7050
  112OSM    C3S11613   0.563   5.829  10.742  0.1343  0.1103  0.1708
  112OSM    H3S11614   0.502   5.916  10.775 -0.3674 -0.9244  2.0804
  112OSM     O311615   0.546   5.726  10.838 -0.3373 -0.5037  0.4501
  112OSM    HO311616   0.617   5.743  10.900  2.0862  0.2789 -2.4012
  112OSM    C4S11617   0.505   5.787  10.601 -0.1585  0.6656 -0.8620
  112OSM    H4S11618   0.416   5.842  10.567  0.2017  0.9922 -1.2812
  112OSM    C5S11619   0.546   5.676  10.532  0.3096 -0.2233 -0.1681
  112OSM    H5S11620   0.624   5.618  10.583 -0.8880 -0.8836  0.9203
  112OSM    C6S11621   0.497   5.634  10.397  0.5361  0.6193 -0.1565
  112OSM    H6S11622   0.387   5.616  10.395  0.5151  0.5658  1.2709
  112OSM    H6T11623   0.538   5.532  10.383  0.4582  0.3265  1.6721
  112OSM    C7S11624   0.534   5.727  10.284 -0.4037  0.1354 -0.3442
  112OSM    H7S11625   0.644   5.731  10.272 -0.3078  0.4287  0.5827
  112OSM    H7T11626   0.491   5.829  10.294  0.8928  0.6751 -0.1310
  112OSM    C8S11627   0.474   5.673  10.153 -0.3566 -0.2503 -0.0946
  112OSM    H8S11628   0.365   5.654  10.149 -0.4292  0.4718 -1.6670
  112OSM    H8T11629   0.511   5.569  10.141  0.1831 -0.3645  2.2029
  112OSM    C9S11630   0.506   5.759  10.026  0.1061  0.4421  1.0331
  112OSM    H9S11631   0.617   5.771  10.022  0.1514 -0.0032  0.7852
  112OSM    H9T11632   0.464   5.861  10.015 -0.4209  0.2830  1.5684
  112OSM   C10S11633   0.467   5.674   9.898  0.2308  0.0051  0.0621
  112OSM   H10S11634   0.357   5.664   9.897  0.4140 -2.1116  0.0359
  112OSM   H10T11635   0.504   5.571   9.913  2.5154  0.8362  0.3959
  112OSM   C11S11636   0.510   5.746   9.771 -0.3084  0.6879  0.5062
  112OSM   H11S11637   0.620   5.757   9.782 -0.3712  1.6577  0.2269
  112OSM   H11T11638   0.474   5.851   9.775  0.0861  0.9235 -1.4909
  112OSM   C12S11639   0.472   5.664   9.646 -0.8368  0.0845 -0.3284
  112OSM   H12S11640   0.374   5.613   9.661 -1.3234  0.3500 -2.4087
  112OSM   H12T11641   0.542   5.580   9.624 -3.4892 -2.9799  2.3655
  112OSM   C13S11642   0.455   5.759   9.528  0.1400 -0.1154 -0.4771
  112OSM   H13S11643   0.543   5.827   9.528 -0.9670  1.3508 -0.5812
  112OSM   H13T11644   0.361   5.811   9.555 -0.1868 -1.9542  2.1411
  112OSM   C14S11645   0.447   5.694   9.387  0.8081  0.9338  0.4100
  112OSM   H14S11646   0.361   5.626   9.404  1.2127 -0.3449 -2.3697
  112OSM   H14T11647   0.542   5.642   9.362  1.4280  2.1599  0.2067
  112OSM   C15S11648   0.415   5.800   9.283 -0.4611 -0.3015 -0.5906
  112OSM   H15S11649   0.487   5.882   9.302  1.8226 -2.2316 -0.6165
  112OSM   H15T11650   0.309   5.831   9.294  0.7163  3.4759  0.9778
  112OSM   C16S11651   0.440   5.762   9.138 -0.9064 -0.5422  0.2871
  112OSM   H16S11652   0.366   5.691   9.094 -0.9568  1.0017 -2.2478
  112OSM   H16T11653   0.539   5.712   9.128 -0.9403 -0.3659 -1.1072
  112OSM   C17S11654   0.442   5.888   9.049 -0.2974  0.1268 -0.0052
  112OSM   H17S11655   0.525   5.953   9.085  1.0764 -0.9501 -1.1815
  112OSM   H17T11656   0.343   5.933   9.073  0.6196  2.5925 -0.6849
  112OSM   C18S11657   0.446   5.855   8.901  0.4453  0.3639  0.5510
  112OSM   H18S11658   0.429   5.951   8.846  1.0586  0.0316 -0.2211
  112OSM   H18T11659   0.363   5.789   8.868 -1.1861  1.2723  2.6624
  112OSM   H18U11660   0.537   5.804   8.864 -1.6556 -2.6933 -0.6071
  112OSM    C1F11661   0.849   6.005  10.567 -0.4353 -0.2338  0.1532
  112OSM     OF11662   0.942   5.948  10.618 -1.3258  0.0517 -0.5648
  112OSM    C2F11663   0.873   6.100  10.452 -0.0024 -0.3656 -0.6508
  112OSM    H2F11664   0.904   6.199  10.490 -0.5789 -1.8411  4.0167
  112OSM    H2G11665   0.779   6.096  10.391 -0.9292 -0.1603  0.7387
  112OSM    C3F11666   0.990   6.043  10.363  0.2039 -0.5371  0.6620
  112OSM    H3F11667   0.971   5.935  10.351 -3.4914  0.0980  0.2785
  112OSM    H3G11668   1.085   6.063  10.418  0.8383  0.0418 -0.6084
  112OSM    C4F11669   1.019   6.124  10.230 -0.7073 -0.1105  0.1943
  112OSM    H4F11670   1.111   6.087  10.180 -0.3456 -0.8750  1.3982
  112OSM    H4G11671   1.051   6.225  10.263 -0.5744 -0.4551  1.1536
  112OSM    C5F11672   0.896   6.113  10.140 -0.1699  0.2652  0.5647
  112OSM    H5F11673   0.825   6.192  10.173 -1.9703 -1.4142  0.7622
  112OSM    H5G11674   0.842   6.017  10.152 -0.6678  0.5529  0.6249
  112OSM    C6F11675   0.935   6.117   9.985 -0.8437 -0.2308 -0.0610
  112OSM    H6F11676   1.015   6.042   9.967 -1.3911 -1.5663  2.7533
  112OSM    H6G11677   0.973   6.217   9.957  0.9181 -0.6608  0.7465
  112OSM    C7F11678   0.822   6.074   9.887  1.0333 -1.2991 -0.2293
  112OSM    H7F11679   0.742   6.150   9.896  3.6906  1.4459  1.4203
  112OSM    H7G11680   0.779   5.983   9.933  0.7130 -1.6758 -1.2445
  112OSM    C8F11681   0.864   6.040   9.747 -0.0606 -0.6945  0.2558
  112OSM    H8F11682   0.768   6.013   9.697 -0.5419  2.0490 -0.3723
  112OSM    H8G11683   0.925   5.949   9.727  0.2753 -0.2734 -0.6851
  112OSM    C9F11684   0.926   6.154   9.684 -0.0056 -0.1780  0.1530
  112OSM    H9F11685   1.023   6.185   9.724  1.0086  0.5845 -2.8099
  112OSM   C10F11686   0.882   6.214   9.569  0.0166 -0.5348 -0.4229
  112OSM   H10F11687   0.937   6.303   9.536  0.1042 -0.9261 -1.3257
  112OSM   C11F11688   0.753   6.194   9.493 -0.7746  0.2257  0.5822
  112OSM   H11F11689   0.671   6.262   9.525 -1.3293  0.8420 -2.0146
  112OSM   H11G11690   0.728   6.087   9.508  0.2404 -0.4756 -2.3780
  112OSM   C12F11691   0.774   6.219   9.338  0.4041  0.1463 -1.0358
  112OSM   H12F11692   0.794   6.329   9.333 -0.8048  0.3098 -2.6423
  112OSM   H12G11693   0.679   6.200   9.285  0.2788  0.7890 -1.0513
  112OSM   C13F11694   0.878   6.128   9.272 -0.1404 -1.0892  0.3158
  112OSM   H13F11695   0.978   6.134   9.320 -0.2276 -1.2121  0.5140
  112OSM   H13G11696   0.892   6.156   9.165  0.1423  1.3877  0.9725
  112OSM   C14F11697   0.843   5.978   9.272  0.9136  0.2940 -0.9002
  112OSM   H14F11698   0.740   5.972   9.232  0.0243  0.1210  1.3330
  112OSM   H14G11699   0.847   5.934   9.374  1.2250 -1.7376 -1.7467
  112OSM   C15F11700   0.933   5.899   9.182 -0.4672 -0.1881  0.0102
  112OSM   H15F11701   0.937   5.793   9.216 -0.2799 -0.0108  0.5617
  112OSM   H15G11702   1.039   5.934   9.189 -1.5243  3.3019 -0.3703
  112OSM   C16F11703   0.889   5.905   9.033 -0.3583  0.6873 -0.2832
  112OSM   H16F11704   0.898   6.009   8.994 -0.4028  0.2591 -1.4673
  112OSM   H16G11705   0.790   5.858   9.015 -0.8200  1.5413  0.0018
  112OSM   C17F11706   0.992   5.830   8.947 -0.3916  0.3500  0.0266
  112OSM   H17F11707   1.001   5.728   8.991  1.8915 -0.5540 -2.3982
  112OSM   H17G11708   1.091   5.878   8.962  0.3365 -0.4645 -1.9485
  112OSM   C18F11709   0.952   5.820   8.797 -0.2566  0.0177 -0.0472
  112OSM   H18F11710   1.030   5.802   8.719 -2.1717 -1.5400 -1.6724
  112OSM   H18G11711   0.911   5.921   8.776 -0.0517 -0.2490 -1.7877
  112OSM   H18H11712   0.867   5.749   8.787 -0.5993  0.6240 -1.5540
  113OSM      N11713   4.742   2.720  11.090  0.6979 -0.1798  0.0775
  113OSM    C1511714   4.627   2.680  11.002  0.7286  0.2318  0.1105
  113OSM   H15A11715   4.562   2.606  11.045  0.6358  1.4129  2.0754
  113OSM   H15B11716   4.661   2.634  10.910  0.2491  4.5054 -2.3716
  113OSM   H15C11717   4.560   2.759  10.971 -1.3217 -1.1894  0.8650
  113OSM    C1411718   4.703   2.782  11.218  0.5104 -0.5453 -0.1054
  113OSM   H14A11719   4.790   2.813  11.274  0.0894  0.2842  0.0962
  113OSM   H14B11720   4.659   2.704  11.278 -0.9438  0.2933 -0.0655
  113OSM   H14C11721   4.634   2.864  11.206  1.2322  0.2075  0.7128
  113OSM    C1311722   4.821   2.597  11.129  0.3620 -0.1412  0.0860
  113OSM   H13A11723   4.777   2.535  11.206 -2.0499 -0.0615 -1.2137
  113OSM   H13B11724   4.918   2.626  11.167  0.0363 -0.0260  0.8393
  113OSM   H13C11725   4.835   2.543  11.037 -1.1470  0.6238 -0.6014
  113OSM    C1211726   4.827   2.821  11.012 -0.0875  0.2644  0.0743
  113OSM   H12A11727   4.886   2.871  11.088  0.3929  0.3622 -0.3590
  113OSM   H12B11728   4.758   2.892  10.969  0.1821  0.4631 -0.0386
  113OSM    C1111729   4.918   2.779  10.892  0.1990  0.1864  0.4356
  113OSM   H11A11730   4.938   2.868  10.829 -0.7776  0.8585  1.0543
  113OSM   H11B11731   4.847   2.729  10.823  0.7448  0.1951 -0.1391
  113OSM      P11732   5.158   2.788  11.004 -0.2729 -0.1695 -0.1702
  113OSM    O1311733   5.103   2.852  11.123 -0.6575 -0.9758  0.3744
  113OSM    O1411734   5.276   2.701  11.023 -0.2221 -0.3504  0.1004
  113OSM    O1111735   5.190   2.901  10.896  0.2381 -0.3335 -0.5637
  113OSM    O1211736   5.036   2.703  10.940  0.2998 -0.2884 -0.0409
  113OSM    C1S11737   5.252   2.849  10.776  0.7663 -0.2432 -0.3003
  113OSM    H1S11738   5.202   2.751  10.759  1.4957 -0.5279 -0.8299
  113OSM    H1T11739   5.360   2.830  10.793 -0.0174 -5.4747 -0.3449
  113OSM     NF11740   5.316   2.879  10.538  0.0947 -0.2253 -0.1177
  113OSM    HNF11741   5.386   2.937  10.497  0.2408 -0.8081 -0.6919
  113OSM    C2S11742   5.242   2.939  10.647  0.1189  0.9965 -0.3349
  113OSM    H2S11743   5.133   2.942  10.625 -0.2071 -1.3739  0.8175
  113OSM    C3S11744   5.286   3.085  10.671 -0.3626 -0.0691 -0.0640
  113OSM    H3S11745   5.387   3.080  10.716 -0.5891 -0.5315  0.4006
  113OSM     O311746   5.218   3.148  10.777 -0.2692 -0.1542  0.8952
  113OSM    HO311747   5.169   3.073  10.811  0.3204 -0.4346  1.1337
  113OSM    C4S11748   5.287   3.160  10.536 -0.2863  1.1746 -0.3735
  113OSM    H4S11749   5.379   3.141  10.479 -0.8168 -0.0844 -0.8217
  113OSM    C5S11750   5.188   3.240  10.488 -0.6292 -0.1203  0.4414
  113OSM    H5S11751   5.100   3.268  10.548 -2.5501 -2.3273 -1.2718
  113OSM    C6S11752   5.181   3.311  10.353 -0.0438 -0.2342 -0.1655
  113OSM    H6S11753   5.199   3.420  10.367  0.1503 -0.0384 -1.8495
  113OSM    H6T11754   5.083   3.309  10.299 -1.0119 -0.0011  1.5454
  113OSM    C7S11755   5.295   3.268  10.254  0.1825  0.5517  0.2079
  113OSM    H7S11756   5.300   3.157  10.251 -0.2297  0.4534  2.6132
  113OSM    H7T11757   5.389   3.314  10.291  0.4463 -0.4886  0.8332
  113OSM    C8S11758   5.271   3.330  10.116 -0.0178 -0.1730 -0.2569
  113OSM    H8S11759   5.239   3.436  10.121  0.3057 -0.1916  2.7775
  113OSM    H8T11760   5.195   3.269  10.064  0.6361  0.2697 -1.7720
  113OSM    C9S11761   5.402   3.330  10.039  0.4901 -0.1187 -0.7576
  113OSM    H9S11762   5.442   3.226  10.031  0.1974 -0.1615 -1.7210
  113OSM    H9T11763   5.478   3.399  10.081  1.0965 -1.3288  0.1721
  113OSM   C10S11764   5.380   3.379   9.892 -0.0666  0.0656 -0.0330
  113OSM   H10S11765   5.342   3.483   9.888 -1.1810 -0.3580 -0.5368
  113OSM   H10T11766   5.311   3.309   9.841  1.9025 -1.0503 -1.2419
  113OSM   C11S11767   5.512   3.376   9.821 -0.2663  0.3225  0.2543
  113OSM   H11S11768   5.569   3.282   9.841  0.3144  0.7093  0.4155
  113OSM   H11T11769   5.584   3.457   9.846  0.2596  0.0236 -0.2818
  113OSM   C12S11770   5.485   3.398   9.672  0.0978  0.9867  0.0011
  113OSM   H12S11771   5.441   3.499   9.665  1.3409  1.5022 -0.4486
  113OSM   H12T11772   5.410   3.323   9.638  2.5471 -2.0518  0.9974
  113OSM   C13S11773   5.607   3.377   9.580 -0.2866 -0.8904 -0.2934
  113OSM   H13S11774   5.638   3.271   9.562 -0.6951 -1.0776  0.0860
  113OSM   H13T11775   5.695   3.425   9.629 -1.3684 -0.3881  1.1756
  113OSM   C14S11776   5.572   3.428   9.436 -0.1617 -0.4172  0.3504
  113OSM   H14S11777   5.530   3.529   9.453  1.2738  0.6636 -2.3205
  113OSM   H14T11778   5.492   3.359   9.402 -1.6519  0.8534  1.2216
  113OSM   C15S11779   5.680   3.414   9.330  0.1552 -0.2179 -0.5998
  113OSM   H15S11780   5.728   3.314   9.343 -1.0439 -0.6083  0.9056
  113OSM   H15T11781   5.766   3.477   9.361 -0.2888 -0.4865  1.1888
  113OSM   C16S11782   5.634   3.445   9.192 -0.5245  0.1684  0.6320
  113OSM   H16S11783   5.603   3.551   9.190  1.1703  0.6453 -1.0879
  113OSM   H16T11784   5.544   3.382   9.173 -0.5011  0.4342 -0.3599
  113OSM   C17S11785   5.734   3.409   9.085  0.0709  0.1593  0.6076
  113OSM   H17S11786   5.738   3.298   9.081  0.3301  0.0564  2.8533
  113OSM   H17T11787   5.828   3.464   9.106  0.7156  0.0811 -1.8658
  113OSM   C18S11788   5.691   3.439   8.939  0.0885  0.4607 -0.4478
  113OSM   H18S11789   5.698   3.548   8.916 -0.0035  0.5931  0.1634
  113OSM   H18T11790   5.587   3.401   8.931  0.4303 -1.0801  2.0955
  113OSM   H18U11791   5.753   3.386   8.864 -0.7806 -0.6782 -0.3745
  113OSM    C1F11792   5.281   2.767  10.483  0.6327  0.1025 -0.1198
  113OSM     OF11793   5.181   2.708  10.513 -0.1009  0.1276 -0.2524
  113OSM    C2F11794   5.354   2.717  10.368  0.5778  0.6938 -0.1194
  113OSM    H2F11795   5.320   2.616  10.335 -0.6123  1.6667 -2.0033
  113OSM    H2G11796   5.462   2.720  10.394  0.9883  0.9840 -1.7875
  113OSM    C3F11797   5.321   2.813  10.250 -0.1461  0.1591 -0.1433
  113OSM    H3F11798   5.360   2.911  10.286 -1.1872  1.7029 -3.0214
  113OSM    H3G11799   5.214   2.800  10.220  0.8886 -3.7833 -2.5527
  113OSM    C4F11800   5.402   2.790  10.121 -0.1631  0.2352  0.6479
  113OSM    H4F11801   5.356   2.695  10.085  0.9215 -0.1894  0.3633
  113OSM    H4G11802   5.509   2.765  10.136 -0.3720 -2.5679 -2.0503
  113OSM    C5F11803   5.378   2.911  10.022  0.0916 -0.8140  0.5375
  113OSM    H5F11804   5.443   2.998  10.049 -0.9261  0.0044  0.3924
  113OSM    H5G11805   5.269   2.932  10.027  0.3805  1.2233 -1.1235
  113OSM    C6F11806   5.416   2.867   9.884 -0.0281 -0.4002  0.2714
  113OSM    H6F11807   5.352   2.781   9.856  2.0863 -1.9871  0.2221
  113OSM    H6G11808   5.522   2.835   9.886  0.5580  1.5422  1.1923
  113OSM    C7F11809   5.393   2.970   9.774 -0.2262 -0.4980  0.5315
  113OSM    H7F11810   5.467   3.051   9.784 -1.0693  0.1171  1.9343
  113OSM    H7G11811   5.291   3.010   9.795 -1.1420 -2.4604 -0.0114
  113OSM    C8F11812   5.401   2.919   9.633 -0.7495  0.0014  0.1365
  113OSM    H8F11813   5.318   2.845   9.621 -1.8463  1.5266 -2.1524
  113OSM    H8G11814   5.487   2.851   9.616 -0.3094  0.1410  1.7433
  113OSM    C9F11815   5.386   3.029   9.533  0.2096  0.1919  0.6283
  113OSM    H9F11816   5.327   3.114   9.569  0.4648  0.1521  1.1461
  113OSM   C10F11817   5.464   3.060   9.430  0.5454  0.2740  0.1518
  113OSM   H10F11818   5.448   3.152   9.373 -1.3570 -0.0569  0.1038
  113OSM   C11F11819   5.577   2.976   9.377  0.5796  0.4040 -0.2284
  113OSM   H11F11820   5.566   2.869   9.404  0.2112  0.4966 -0.0025
  113OSM   H11G11821   5.673   3.002   9.427  0.1419  0.6152  0.5132
  113OSM   C12F11822   5.594   2.988   9.225  0.2042 -0.2567  0.5788
  113OSM   H12F11823   5.684   2.927   9.202  0.4934  0.4287 -0.1310
  113OSM   H12G11824   5.614   3.095   9.202 -0.0670 -0.0656  1.2123
  113OSM   C13F11825   5.477   2.936   9.138  0.3115  0.1961 -0.4374
  113OSM   H13F11826   5.387   3.001   9.151 -0.5726 -0.8855 -1.0287
  113OSM   H13G11827   5.449   2.837   9.181 -0.2052  0.0897 -1.0060
  113OSM   C14F11828   5.503   2.912   8.991 -0.7596 -0.3676 -0.9443
  113OSM   H14F11829   5.589   2.846   8.965 -0.4943  0.3633 -1.9747
  113OSM   H14G11830   5.513   3.015   8.949 -0.1849  0.0675  0.2277
  113OSM   C15F11831   5.386   2.829   8.927  0.1155  0.4165 -0.3441
  113OSM   H15F11832   5.296   2.893   8.934 -0.4365 -0.3028 -0.7580
  113OSM   H15G11833   5.379   2.742   8.996  2.5186 -0.2833 -0.9551
  113OSM   C16F11834   5.410   2.794   8.782  0.2026  0.6074 -0.1561
  113OSM   H16F11835   5.519   2.785   8.763  0.0995 -0.5546 -0.2482
  113OSM   H16G11836   5.373   2.878   8.720 -0.4300  0.5365  0.1223
  113OSM   C17F11837   5.339   2.669   8.729  0.1466  0.1404 -0.0607
  113OSM   H17F11838   5.351   2.686   8.620 -0.3739  0.8878 -0.0055
  113OSM   H17G11839   5.233   2.671   8.761 -0.0595  0.2664 -0.7509
  113OSM   C18F11840   5.410   2.535   8.771  0.6683 -0.4208  0.7156
  113OSM   H18F11841   5.358   2.441   8.742 -1.2176  0.6360  0.6639
  113OSM   H18G11842   5.413   2.530   8.882  2.0861 -1.4299  0.6597
  113OSM   H18H11843   5.505   2.539   8.714  0.5895  1.4110  0.7090
  114OSM      N11844   6.606   5.667  11.263 -0.1087  0.0232 -0.6729
  114OSM    C1511845   6.690   5.554  11.298 -0.2315 -0.8658  0.0468
  114OSM   H15A11846   6.652   5.468  11.244  1.1745 -2.2860  1.2763
  114OSM   H15B11847   6.672   5.532  11.402 -0.1144  0.9758  0.4704
  114OSM   H15C11848   6.793   5.574  11.273 -0.9509  1.1864 -1.4406
  114OSM    C1411849   6.465   5.642  11.298 -0.4806  0.1863  0.5609
  114OSM   H14A11850   6.445   5.647  11.404  1.0242 -0.5829  0.9002
  114OSM   H14B11851   6.415   5.551  11.268 -1.9232 -0.0470  3.5181
  114OSM   H14C11852   6.409   5.729  11.268 -1.3540 -0.4070  0.4565
  114OSM    C1311853   6.657   5.792  11.332 -0.6474 -0.2639 -0.1876
  114OSM   H13A11854   6.625   5.770  11.433  2.7947 -1.8014  0.6596
  114OSM   H13B11855   6.606   5.875  11.286 -0.9663  0.3139  1.1730
  114OSM   H13C11856   6.765   5.803  11.330 -0.5759 -1.1459 -1.2287
  114OSM    C1211857   6.621   5.692  11.113 -0.5928  0.1065  0.0578
  114OSM   H12A11858   6.599   5.597  11.066  0.4001 -0.1698  0.1546
  114OSM   H12B11859   6.724   5.708  11.087  0.3151 -3.8551  0.9016
  114OSM    C1111860   6.530   5.796  11.049  0.0006 -0.0260  0.0128
  114OSM   H11A11861   6.583   5.824  10.956 -0.5551 -0.1317 -0.3379
  114OSM   H11B11862   6.536   5.892  11.105 -2.7405 -1.0984  2.2561
  114OSM      P11863   6.360   5.661  10.913 -0.1211 -0.2342 -0.1903
  114OSM    O1311864   6.325   5.527  10.957  0.1965 -0.0502  0.3043
  114OSM    O1411865   6.257   5.737  10.832  0.5364  0.1770  0.0382
  114OSM    O1111866   6.493   5.649  10.827  0.0039 -0.2535 -0.1027
  114OSM    O1211867   6.400   5.749  11.033 -0.1822 -0.4756  0.1665
  114OSM    C1S11868   6.504   5.603  10.691  0.5659  0.3259 -0.2373
  114OSM    H1S11869   6.407   5.581  10.641 -0.1599  0.9993  0.8767
  114OSM    H1T11870   6.567   5.511  10.691  1.3323  0.8429  0.4619
  114OSM     NF11871   6.572   5.679  10.463 -0.0081  0.2818 -0.1417
  114OSM    HNF11872   6.643   5.619  10.428  1.3877 -0.2670  3.3865
  114OSM    C2S11873   6.585   5.707  10.605  0.7304 -0.1001  0.2515
  114OSM    H2S11874   6.538   5.806  10.621  0.8895 -0.1857  1.2766
  114OSM    C3S11875   6.737   5.707  10.645 -0.2780  1.3646  0.1905
  114OSM    H3S11876   6.789   5.615  10.608 -2.3714  0.6090 -0.9871
  114OSM     O311877   6.751   5.712  10.790  0.3838  0.0310 -0.3208
  114OSM    HO311878   6.659   5.699  10.815  0.3476  0.9479  0.0497
  114OSM    C4S11879   6.801   5.826  10.578 -0.0065 -0.4576  0.5457
  114OSM    H4S11880   6.757   5.923  10.605  0.0981  0.1892 -1.4897
  114OSM    C5S11881   6.904   5.826  10.485 -0.5643  0.6029 -0.1743
  114OSM    H5S11882   6.957   5.738  10.446  1.6326  1.4143  0.9163
  114OSM    C6S11883   6.953   5.951  10.426  0.1086  0.2471  0.3388
  114OSM    H6S11884   7.061   5.950  10.402 -0.2295  0.0746 -1.1873
  114OSM    H6T11885   6.932   6.036  10.495  1.8604  0.2486  0.8997
  114OSM    C7S11886   6.867   5.979  10.302 -0.1750  0.0211  0.7593
  114OSM    H7S11887   6.887   6.086  10.277 -1.6661 -0.0031 -0.5761
  114OSM    H7T11888   6.758   5.975  10.321 -0.0257  2.1544  2.2392
  114OSM    C8S11889   6.910   5.896  10.178 -0.2239  1.0049 -0.1779
  114OSM    H8S11890   6.909   5.789  10.208  0.0179  0.6415 -1.4515
  114OSM    H8T11891   7.018   5.918  10.164 -0.2769  2.5794  1.6209
  114OSM    C9S11892   6.830   5.919  10.046  0.0744 -0.7828 -0.4790
  114OSM    H9S11893   6.858   6.015   9.998 -0.5210 -0.2612  0.1980
  114OSM    H9T11894   6.722   5.916  10.071  0.2005  1.1458  0.4350
  114OSM   C10S11895   6.875   5.830   9.931  0.1125 -0.1088  0.3327
  114OSM   H10S11896   6.847   5.726   9.958  0.2260  0.1275  1.3856
  114OSM   H10T11897   6.986   5.830   9.928  0.1008  0.8729 -0.2398
  114OSM   C11S11898   6.811   5.877   9.793  0.2948  0.1750 -1.0573
  114OSM   H11S11899   6.823   5.987   9.783  3.0082  0.0305  0.1379
  114OSM   H11T11900   6.701   5.866   9.800  0.2642  0.2844 -1.3546
  114OSM   C12S11901   6.860   5.786   9.681  0.9163  0.0237  0.6025
  114OSM   H12S11902   6.825   5.682   9.698  1.1035 -0.5376 -2.1714
  114OSM   H12T11903   6.971   5.790   9.678  0.9134 -0.7264 -1.8716
  114OSM   C13S11904   6.811   5.838   9.553 -0.2065 -0.8172 -0.6379
  114OSM   H13S11905   6.861   5.935   9.532  0.7855 -1.2242 -0.1619
  114OSM   H13T11906   6.707   5.876   9.556 -0.0845 -0.5912  1.0394
  114OSM   C14S11907   6.836   5.752   9.439 -0.0514 -0.0570  0.4426
  114OSM   H14S11908   6.785   5.654   9.444 -0.6087  0.2123  0.0909
  114OSM   H14T11909   6.945   5.732   9.442  0.1218  1.0166  1.8867
  114OSM   C15S11910   6.798   5.813   9.304 -0.2409  0.1861 -0.5925
  114OSM   H15S11911   6.870   5.896   9.285 -1.8764  1.3706 -1.6832
  114OSM   H15T11912   6.700   5.864   9.315 -0.1996  0.7580 -2.6184
  114OSM   C16S11913   6.788   5.719   9.184 -0.1711  0.1728 -0.1669
  114OSM   H16S11914   6.683   5.700   9.155 -0.2982  1.0569 -0.2920
  114OSM   H16T11915   6.847   5.625   9.198 -0.6838  0.0859  1.4638
  114OSM   C17S11916   6.837   5.789   9.054 -0.0690 -0.7086  0.1663
  114OSM   H17S11917   6.944   5.817   9.062 -0.7814  2.1653  0.5057
  114OSM   H17T11918   6.773   5.880   9.051  0.1234 -0.5299  1.1484
  114OSM   C18S11919   6.830   5.716   8.922  0.0781  0.3620 -0.2944
  114OSM   H18S11920   6.720   5.701   8.910 -0.1301  1.6574 -0.1176
  114OSM   H18T11921   6.888   5.621   8.917  1.2628  1.1169 -1.0695
  114OSM   H18U11922   6.882   5.784   8.852  1.3075  1.9028  2.0333
  114OSM    C1F11923   6.455   5.684  10.404 -0.3306  0.7336  0.3564
  114OSM     OF11924   6.346   5.706  10.462 -0.2908  0.3215  0.1268
  114OSM    C2F11925   6.460   5.655  10.257  0.0063  0.7737 -0.5373
  114OSM    H2F11926   6.387   5.576  10.229  1.3156 -0.7002  0.0652
  114OSM    H2G11927   6.558   5.608  10.233 -0.0981 -0.0576  0.6454
  114OSM    C3F11928   6.446   5.780  10.169 -0.4991  0.4972  0.0278
  114OSM    H3F11929   6.510   5.857  10.218  0.9256 -0.8703  0.3435
  114OSM    H3G11930   6.340   5.809  10.185 -0.8934 -1.1104  0.3989
  114OSM    C4F11931   6.468   5.774  10.018 -0.5645  0.5973 -0.4894
  114OSM    H4F11932   6.575   5.751  10.003 -0.9227 -1.6184  0.2271
  114OSM    H4G11933   6.449   5.877   9.980  2.4372  1.1552 -0.5964
  114OSM    C5F11934   6.378   5.682   9.939 -0.6790  0.0957  0.6994
  114OSM    H5F11935   6.278   5.729   9.953  0.0697  1.9406 -0.1049
  114OSM    H5G11936   6.380   5.577   9.975 -0.0459 -0.5476 -1.1588
  114OSM    C6F11937   6.410   5.669   9.794  0.5274 -0.1879  0.5752
  114OSM    H6F11938   6.372   5.575   9.748  1.5442 -0.6288  0.6120
  114OSM    H6G11939   6.519   5.654   9.778  0.1826 -1.8511 -0.3303
  114OSM    C7F11940   6.361   5.796   9.706 -0.2040  0.5273 -0.7545
  114OSM    H7F11941   6.434   5.877   9.728  1.1671 -0.6742 -0.8050
  114OSM    H7G11942   6.261   5.813   9.751 -0.1841 -0.0638 -0.4741
  114OSM    C8F11943   6.364   5.776   9.552 -0.3807 -0.3935  0.3215
  114OSM    H8F11944   6.466   5.742   9.524  0.3177  0.8085  1.3705
  114OSM    H8G11945   6.349   5.871   9.497 -1.7426 -1.0574 -0.4980
  114OSM    C9F11946   6.248   5.691   9.510 -0.0883  0.0016 -0.0253
  114OSM    H9F11947   6.152   5.741   9.531 -0.6820 -1.9174  2.0839
  114OSM   C10F11948   6.246   5.567   9.469 -0.3188  0.8758  0.2647
  114OSM   H10F11949   6.145   5.524   9.459 -1.3851  3.4052 -0.3748
  114OSM   C11F11950   6.362   5.475   9.453 -0.4259 -0.5949 -0.0921
  114OSM   H11F11951   6.365   5.400   9.535 -1.6074  0.0379  0.5351
  114OSM   H11G11952   6.456   5.533   9.459 -1.1584  0.4935  0.8330
  114OSM   C12F11953   6.364   5.399   9.325 -0.2045 -0.1373 -0.2092
  114OSM   H12F11954   6.265   5.352   9.306  0.5495 -1.8190 -0.0476
  114OSM   H12G11955   6.435   5.315   9.341 -2.7447 -2.7914 -2.2097
  114OSM   C13F11956   6.411   5.485   9.210  0.0941 -0.1523  0.0228
  114OSM   H13F11957   6.510   5.527   9.238 -0.5152 -0.8685  3.5011
  114OSM   H13G11958   6.348   5.576   9.200  0.5524  0.0828 -0.7304
  114OSM   C14F11959   6.428   5.416   9.073 -0.8148  0.2157 -0.3937
  114OSM   H14F11960   6.412   5.493   8.994  1.4625 -0.1887 -1.2928
  114OSM   H14G11961   6.339   5.350   9.063 -3.1029  3.0795  0.3653
  114OSM   C15F11962   6.560   5.342   9.053 -0.1516 -0.4502 -0.2157
  114OSM   H15F11963   6.566   5.279   9.145  2.7941 -0.2422 -0.2166
  114OSM   H15G11964   6.652   5.403   9.038  1.1663 -2.6982 -1.5427
  114OSM   C16F11965   6.555   5.251   8.938  0.3170 -0.1481  0.1515
  114OSM   H16F11966   6.450   5.217   8.925  0.1645  0.6021 -0.6483
  114OSM   H16G11967   6.608   5.158   8.968  1.7100  1.3927  2.5127
  114OSM   C17F11968   6.608   5.315   8.804 -0.2535 -0.4144 -0.3447
  114OSM   H17F11969   6.696   5.372   8.840 -2.2691  2.5667  0.0584
  114OSM   H17G11970   6.529   5.381   8.763 -0.4881 -1.2711 -1.2910
  114OSM   C18F11971   6.658   5.213   8.703  0.7409 -0.4764  0.3304
  114OSM   H18F11972   6.716   5.263   8.623  3.5703 -1.1733  1.8901
  114OSM   H18G11973   6.574   5.148   8.671  1.8559 -2.4176  1.2524
  114OSM   H18H11974   6.723   5.142   8.758 -2.0195 -1.3965  2.5640
  115OSM      N11975   4.175   5.294  11.177  0.2529 -0.1922  0.2109
  115OSM    C1511976   4.258   5.315  11.054  0.4775  0.4181 -0.0600
  115OSM   H15A11977   4.194   5.347  10.974  1.7835  0.3521 -1.1400
  115OSM   H15B11978   4.308   5.223  11.029  1.5810  0.6511  1.1897
  115OSM   H15C11979   4.339   5.383  11.071 -0.6447  2.0888 -1.2318
  115OSM    C1411980   4.252   5.239  11.291 -0.1185 -0.0344  0.5224
  115OSM   H14A11981   4.347   5.288  11.304  0.8869 -1.2579 -1.8440
  115OSM   H14B11982   4.283   5.136  11.284 -0.6289 -0.1303 -0.3331
  115OSM   H14C11983   4.189   5.246  11.378  2.1103 -0.8361  2.2389
  115OSM    C1311984   4.112   5.424  11.216  0.0818 -0.4454  0.5481
  115OSM   H13A11985   4.028   5.415  11.284 -0.6386 -0.2143 -0.3065
  115OSM   H13B11986   4.079   5.458  11.119 -1.7190  1.1035  1.6495
  115OSM   H13C11987   4.180   5.501  11.251  1.0832 -0.9259 -0.3225
  115OSM    C1211988   4.065   5.191  11.139 -0.7174  0.1109  0.1460
  115OSM   H12A11989   4.011   5.232  11.055 -0.3161 -0.4932 -0.4134
  115OSM   H12B11990   3.992   5.203  11.217  1.1581  1.1194  1.8092
  115OSM    C1111991   4.106   5.050  11.125 -0.4155  0.1650 -0.1484
  115OSM   H11A11992   4.014   4.990  11.112 -0.2014 -0.4020  0.9224
  115OSM   H11B11993   4.151   5.011  11.219 -2.9371  0.2294  1.1418
  115OSM      P11994   4.272   4.913  10.961 -0.2987  0.2553 -0.2769
  115OSM    O1311995   4.401   4.957  10.900 -0.6394  0.0810 -0.1094
  115OSM    O1411996   4.280   4.826  11.079 -0.6694 -0.7848 -0.3831
  115OSM    O1111997   4.178   4.853  10.846 -0.5579 -0.3361  0.7192
  115OSM    O1211998   4.189   5.043  11.012  0.6914 -0.2191 -0.4354
  115OSM    C1S11999   4.095   4.944  10.766 -0.3210  0.4694 -0.2671
  115OSM    H1S12000   4.159   5.026  10.726  0.0586 -0.0598 -0.7538
  115OSM    H1T12001   4.011   4.979  10.829 -0.0173  0.0106  0.3974
  115OSM     NF12002   3.945   4.969  10.571 -0.1260  0.4095 -0.3036
  115OSM    HNF12003   3.846   4.960  10.560  0.1224  0.0049 -2.2414
  115OSM    C2S12004   4.020   4.872  10.649 -0.6551 -0.8916 -0.8625
  115OSM    H2S12005   4.096   4.820  10.587  0.4363 -0.5143  0.1382
  115OSM    C3S12006   3.931   4.756  10.702  0.3676  0.5245 -0.7808
  115OSM    H3S12007   3.851   4.802  10.764  0.7710  1.3924 -0.8936
  115OSM     O312008   3.998   4.676  10.796 -0.4658 -0.1671 -0.4692
  115OSM    HO312009   4.078   4.721  10.824  1.0669 -2.2455 -1.3539
  115OSM    C4S12010   3.872   4.674  10.593 -1.1744 -0.2817 -0.0901
  115OSM    H4S12011   3.769   4.703  10.570 -0.7509 -0.0252 -1.7434
  115OSM    C5S12012   3.944   4.585  10.516  0.3751  0.6131  0.0721
  115OSM    H5S12013   4.054   4.579  10.523  0.4537 -0.6279 -1.7940
  115OSM    C6S12014   3.881   4.503  10.408  0.1672  0.2888 -0.6146
  115OSM    H6S12015   3.790   4.545  10.359 -0.6818  0.8782  1.3944
  115OSM    H6T12016   3.857   4.402  10.448  0.2624  0.7674  0.6698
  115OSM    C7S12017   3.975   4.488  10.289 -0.2706 -0.0264  0.2472
  115OSM    H7S12018   4.065   4.431  10.320 -1.3819 -1.5630  0.7263
  115OSM    H7T12019   3.997   4.593  10.260 -2.8733  0.4945 -0.0417
  115OSM    C8S12020   3.913   4.408  10.173 -0.4216 -0.4919 -0.5276
  115OSM    H8S12021   3.812   4.446  10.146  0.1676  0.1302 -1.8946
  115OSM    H8T12022   3.902   4.303  10.206  0.4100 -0.0452  1.2252
  115OSM    C9S12023   3.992   4.410  10.038  0.1900 -0.1014 -0.1875
  115OSM    H9S12024   4.086   4.351  10.039  0.0597 -0.3053  0.6095
  115OSM    H9T12025   4.008   4.515  10.006  4.3318 -0.7996 -0.5888
  115OSM   C10S12026   3.895   4.350   9.932 -0.2351  0.3863 -0.3489
  115OSM   H10S12027   3.801   4.409   9.926  0.4506  1.3524 -2.1636
  115OSM   H10T12028   3.886   4.241   9.952 -0.7936  0.0339 -2.3558
  115OSM   C11S12029   3.959   4.357   9.789  0.1641 -0.6145 -0.6453
  115OSM   H11S12030   4.041   4.281   9.785  2.0395  1.3686 -0.5517
  115OSM   H11T12031   3.999   4.460   9.785  0.6535 -0.7083  1.2697
  115OSM   C12S12032   3.872   4.333   9.662 -0.1925 -0.4494 -0.4328
  115OSM   H12S12033   3.771   4.377   9.671  0.4509  0.6431  1.7541
  115OSM   H12T12034   3.873   4.222   9.655  1.9814 -0.4424 -0.5119
  115OSM   C13S12035   3.939   4.378   9.528  0.1580 -0.2951 -0.2443
  115OSM   H13S12036   4.044   4.344   9.522  0.2589  0.2310 -2.0260
  115OSM   H13T12037   3.934   4.489   9.526 -1.3150 -0.3428 -0.1708
  115OSM   C14S12038   3.878   4.322   9.398  0.0089  0.0990 -0.4078
  115OSM   H14S12039   3.887   4.212   9.386 -0.4112 -0.0822  0.9335
  115OSM   H14T12040   3.941   4.363   9.315 -0.5397  1.3868 -0.2005
  115OSM   C15S12041   3.731   4.354   9.391 -0.1099 -0.0579 -0.6412
  115OSM   H15S12042   3.707   4.446   9.448 -0.0216  0.4860 -1.4823
  115OSM   H15T12043   3.674   4.264   9.424 -1.7158  1.4276  0.7251
  115OSM   C16S12044   3.680   4.369   9.243  0.2801 -0.6649 -0.3548
  115OSM   H16S12045   3.716   4.282   9.184  0.3654 -1.9977  1.6317
  115OSM   H16T12046   3.724   4.467   9.216 -0.9517 -0.3559 -1.2991
  115OSM   C17S12047   3.524   4.372   9.222  0.0960 -0.9106  0.2523
  115OSM   H17S12048   3.481   4.454   9.284  1.0012 -0.5464  0.4134
  115OSM   H17T12049   3.480   4.279   9.265 -0.5664 -1.1531 -0.9385
  115OSM   C18S12050   3.470   4.394   9.074 -0.8522 -0.3555  0.1513
  115OSM   H18S12051   3.361   4.378   9.060 -1.1570  0.0934  1.9317
  115OSM   H18T12052   3.507   4.320   9.000 -1.7383 -0.5607 -0.0995
  115OSM   H18U12053   3.497   4.495   9.038 -0.6618 -0.0437  1.1431
  115OSM    C1F12054   4.009   5.077  10.516 -0.1843  0.8686  0.2157
  115OSM     OF12055   4.133   5.080  10.495  0.3606 -0.0468  0.1784
  115OSM    C2F12056   3.927   5.193  10.492 -0.2637 -0.0720 -0.4632
  115OSM    H2F12057   3.957   5.264  10.573 -0.5941 -1.2036  0.6595
  115OSM    H2G12058   3.821   5.174  10.520  0.1665  0.2730  1.5123
  115OSM    C3F12059   3.944   5.262  10.355  0.2454 -0.4646  0.2275
  115OSM    H3F12060   3.938   5.191  10.270  0.1472  1.7956 -1.7097
  115OSM    H3G12061   4.037   5.321  10.341 -1.5529  1.9302 -2.1378
  115OSM    C4F12062   3.839   5.377  10.324  0.0613  0.3525  0.4249
  115OSM    H4F12063   3.859   5.467  10.385 -1.3117  1.0684 -0.1745
  115OSM    H4G12064   3.734   5.343  10.333 -0.7086  2.9829  1.6390
  115OSM    C5F12065   3.848   5.425  10.179 -0.4722 -0.3780 -0.4335
  115OSM    H5F12066   3.831   5.343  10.105 -1.0642 -2.9598  2.4715
  115OSM    H5G12067   3.954   5.451  10.158  0.2878 -1.8739  1.4217
  115OSM    C6F12068   3.760   5.543  10.142  0.1143 -1.1154 -0.1523
  115OSM    H6F12069   3.807   5.613  10.070 -2.2371  1.4705  0.7654
  115OSM    H6G12070   3.746   5.606  10.232 -0.2937  1.6826 -2.1228
  115OSM    C7F12071   3.624   5.499  10.088  0.2820  0.2644 -0.0376
  115OSM    H7F12072   3.595   5.450  10.183  2.0092 -2.8175 -1.0534
  115OSM    H7G12073   3.627   5.438   9.996 -0.7530  1.2921 -0.7693
  115OSM    C8F12074   3.518   5.601  10.053 -0.0619  0.7371 -0.5390
  115OSM    H8F12075   3.502   5.673  10.136 -0.1101 -0.7018  0.7272
  115OSM    H8G12076   3.424   5.542  10.048  1.7193 -2.4300  1.6755
  115OSM    C9F12077   3.548   5.679   9.929  0.2427 -0.4593 -0.1077
  115OSM    H9F12078   3.636   5.744   9.915 -0.2051 -0.3135 -2.3490
  115OSM   C10F12079   3.491   5.657   9.808  0.0630 -0.4034 -0.6729
  115OSM   H10F12080   3.531   5.708   9.719  1.3540 -0.5564 -0.1841
  115OSM   C11F12081   3.390   5.549   9.770 -0.3085  0.8147  0.2696
  115OSM   H11F12082   3.307   5.589   9.707 -1.0074  0.6901  1.0997
  115OSM   H11G12083   3.344   5.501   9.859  1.5666  0.0831  0.8632
  115OSM   C12F12084   3.454   5.429   9.699 -0.0831  0.0133  0.4726
  115OSM   H12F12085   3.379   5.352   9.671  1.2840 -0.4193 -2.2132
  115OSM   H12G12086   3.533   5.378   9.757 -0.1742  0.6517  1.1651
  115OSM   C13F12087   3.514   5.465   9.562  0.4759  0.4413 -0.5380
  115OSM   H13F12088   3.606   5.524   9.581  0.5714 -0.0859  0.6371
  115OSM   H13G12089   3.445   5.523   9.496 -0.8003 -0.7640 -0.2928
  115OSM   C14F12090   3.546   5.336   9.486  0.2385 -0.1791  0.7664
  115OSM   H14F12091   3.456   5.272   9.473 -1.2341  1.1341  4.0031
  115OSM   H14G12092   3.619   5.286   9.554 -0.4030  0.2724  1.7900
  115OSM   C15F12093   3.624   5.373   9.360 -0.7384 -1.0592  0.2215
  115OSM   H15F12094   3.721   5.418   9.389 -1.2314 -0.5381  1.0709
  115OSM   H15G12095   3.557   5.442   9.303 -0.1204  1.3071  2.2725
  115OSM   C16F12096   3.655   5.251   9.279 -0.1912  0.2658 -0.0670
  115OSM   H16F12097   3.559   5.197   9.264  0.4407 -1.5562  2.1478
  115OSM   H16G12098   3.720   5.179   9.333  0.8976  0.5399 -0.9823
  115OSM   C17F12099   3.712   5.268   9.145 -0.2854 -1.0563  0.1907
  115OSM   H17F12100   3.814   5.305   9.169 -0.6476  0.5442 -0.7119
  115OSM   H17G12101   3.658   5.344   9.085  1.6778  0.1028 -0.1570
  115OSM   C18F12102   3.736   5.141   9.054 -0.2852 -0.1611  0.0695
  115OSM   H18F12103   3.751   5.173   8.949  2.4787 -1.5052  0.0052
  115OSM   H18G12104   3.647   5.074   9.061 -1.2951  1.2788  1.2862
  115OSM   H18H12105   3.827   5.081   9.077 -0.5814 -0.2060  1.1665
  116OSM      N12106   0.115   1.072  11.073  0.3495 -0.1609 -0.0350
  116OSM    C1512107   0.002   1.131  11.151  0.1175  0.2967 -0.0149
  116OSM   H15A12108  -0.068   1.183  11.087 -0.4106  1.2547  1.3343
  116OSM   H15B12109   0.038   1.207  11.218 -3.8948  0.4394  2.1141
  116OSM   H15C12110  -0.063   1.061  11.200 -0.0056  1.0310  0.8834
  116OSM    C1412111   0.221   1.013  11.164 -0.2292 -0.0813 -0.5384
  116OSM   H14A12112   0.250   1.087  11.238 -0.8748 -1.0450  0.6851
  116OSM   H14B12113   0.302   0.978  11.102 -0.8649 -1.9501 -0.3180
  116OSM   H14C12114   0.195   0.924  11.218  0.6390  0.1110  0.2204
  116OSM    C1312115   0.061   0.968  10.988  0.2690  1.0859  0.3749
  116OSM   H13A12116  -0.005   0.998  10.908  1.1433 -0.3466 -0.9056
  116OSM   H13B12117   0.007   0.895  11.048 -0.7462 -0.0899 -1.8765
  116OSM   H13C12118   0.145   0.915  10.946  1.4580  0.8308  2.9763
  116OSM    C1212119   0.169   1.176  10.983 -0.1776 -0.3862  0.3769
  116OSM   H12A12120   0.187   1.267  11.039 -0.0363 -1.5386  2.2654
  116OSM   H12B12121   0.089   1.206  10.916 -0.1696  1.0581  0.9876
  116OSM    C1112122   0.288   1.141  10.888 -0.7861 -0.6029 -0.8810
  116OSM   H11A12123   0.286   1.220  10.810 -0.6911 -0.4220 -0.7008
  116OSM   H11B12124   0.269   1.043  10.838 -0.4415  0.1005 -2.4067
  116OSM      P12125   0.488   1.281  10.979 -0.0318 -0.1358 -0.2237
  116OSM    O1312126   0.401   1.393  11.015  0.7595 -0.4654 -0.4775
  116OSM    O1412127   0.603   1.257  11.066 -0.3809 -0.0576 -0.0157
  116OSM    O1112128   0.538   1.326  10.837  0.6260  0.0669 -0.1177
  116OSM    O1212129   0.412   1.141  10.947  0.6306  0.1684  0.3939
  116OSM    C1S12130   0.631   1.256  10.764 -0.3253 -0.0914  0.3052
  116OSM    H1S12131   0.614   1.147  10.766 -0.1692 -0.1047  1.6350
  116OSM    H1T12132   0.734   1.258  10.807  0.4309 -4.9833 -0.9957
  116OSM     NF12133   0.700   1.223  10.520 -0.4466 -0.5375 -0.5330
  116OSM    HNF12134   0.785   1.254  10.479 -0.7515 -2.1297 -2.3822
  116OSM    C2S12135   0.628   1.308  10.614  0.0762  0.1120  0.6447
  116OSM    H2S12136   0.521   1.310  10.584 -0.3156  0.0669  1.9987
  116OSM    C3S12137   0.685   1.455  10.607  0.3783 -0.2210 -0.2692
  116OSM    H3S12138   0.794   1.448  10.628  0.1536  1.8033  1.7711
  116OSM     O312139   0.646   1.549  10.713 -0.2170  0.0609  0.2485
  116OSM    HO312140   0.606   1.497  10.782 -0.6188 -0.2215 -0.1995
  116OSM    C4S12141   0.651   1.511  10.478 -0.8024 -0.1183  0.7160
  116OSM    H4S12142   0.733   1.495  10.406 -0.8286  0.1745  0.6232
  116OSM    C5S12143   0.542   1.594  10.457 -0.1848  0.6814 -0.2647
  116OSM    H5S12144   0.486   1.619  10.548 -1.7393  0.4717 -1.1519
  116OSM    C6S12145   0.492   1.662  10.333 -0.0549  0.1056 -0.0389
  116OSM    H6S12146   0.536   1.762  10.316 -2.1140  1.0333 -0.0244
  116OSM    H6T12147   0.382   1.663  10.343 -0.0729  0.3578 -0.2825
  116OSM    C7S12148   0.516   1.587  10.198  0.2033  0.2493  0.3571
  116OSM    H7S12149   0.477   1.483  10.201 -1.1205  0.7183 -0.2886
  116OSM    H7T12150   0.625   1.586  10.174  1.1759  0.2380  4.3435
  116OSM    C8S12151   0.434   1.655  10.088 -0.1892  0.4002  0.0387
  116OSM    H8S12152   0.452   1.765  10.094  0.3368  0.2071  2.6688
  116OSM    H8T12153   0.330   1.627  10.112 -0.2478 -0.3803 -1.0833
  116OSM    C9S12154   0.491   1.615   9.955  0.3038  0.5661 -0.1317
  116OSM    H9S12155   0.499   1.504   9.954 -0.6719  0.4931 -0.6892
  116OSM    H9T12156   0.597   1.643   9.937 -0.5474  2.4725 -2.4621
  116OSM   C10S12157   0.427   1.658   9.827 -0.6003  0.1096 -0.3251
  116OSM   H10S12158   0.385   1.761   9.836 -1.0076 -0.2072  1.5025
  116OSM   H10T12159   0.338   1.596   9.805 -1.2244  0.7893  0.2380
  116OSM   C11S12160   0.512   1.644   9.696 -0.4654  0.1538  0.9343
  116OSM   H11S12161   0.570   1.550   9.684 -1.9440 -0.6908  0.2571
  116OSM   H11T12162   0.583   1.730   9.691 -2.5570  1.8353 -1.1572
  116OSM   C12S12163   0.422   1.657   9.563 -0.1127 -0.5020  0.6962
  116OSM   H12S12164   0.382   1.760   9.572  0.5575 -0.3415  2.0375
  116OSM   H12T12165   0.335   1.589   9.572 -1.1872  0.9475  1.4935
  116OSM   C13S12166   0.503   1.642   9.429 -0.8899  0.9740 -0.3602
  116OSM   H13S12167   0.586   1.568   9.433 -1.4939  0.2666 -0.7992
  116OSM   H13T12168   0.551   1.741   9.414 -0.3775  0.9751  1.2312
  116OSM   C14S12169   0.424   1.614   9.305  0.2581 -0.1237 -0.2294
  116OSM   H14S12170   0.339   1.685   9.305  0.1550 -0.2387  0.3469
  116OSM   H14T12171   0.376   1.514   9.299  1.4437 -0.9330  2.8500
  116OSM   C15S12172   0.492   1.642   9.171 -0.6946  0.2254  0.4786
  116OSM   H15S12173   0.603   1.642   9.177 -0.7177  2.2990  1.2188
  116OSM   H15T12174   0.466   1.745   9.139 -0.9064 -0.4102 -1.4890
  116OSM   C16S12175   0.449   1.545   9.057  0.1119 -0.1880 -0.1269
  116OSM   H16S12176   0.347   1.557   9.016 -0.1577  2.5044  1.2398
  116OSM   H16T12177   0.452   1.444   9.104 -0.7537  1.5437  3.8147
  116OSM   C17S12178   0.534   1.545   8.936 -0.2106 -0.0260  0.5728
  116OSM   H17S12179   0.629   1.498   8.969  0.6533 -0.4374 -2.2918
  116OSM   H17T12180   0.565   1.647   8.906 -0.7164  0.0511  0.3025
  116OSM   C18S12181   0.484   1.465   8.814 -0.3070 -0.4295 -0.2032
  116OSM   H18S12182   0.540   1.496   8.724 -0.8942 -4.3168 -1.9986
  116OSM   H18T12183   0.374   1.463   8.794 -0.6916 -2.0898  1.8280
  116OSM   H18U12184   0.522   1.362   8.836 -0.6083 -0.2621  1.1622
  116OSM    C1F12185   0.661   1.103  10.477  0.3744 -0.4594 -0.6059
  116OSM     OF12186   0.552   1.068  10.515  0.0281 -0.2306 -0.0977
  116OSM    C2F12187   0.756   1.020  10.398  0.0121 -0.3832  0.5910
  116OSM    H2F12188   0.827   0.990  10.478 -0.2939  0.5428  1.2130
  116OSM    H2G12189   0.801   1.086  10.320  2.0100 -1.7089  0.5754
  116OSM    C3F12190   0.688   0.898  10.332 -0.4586  0.1770 -0.5191
  116OSM    H3F12191   0.621   0.932  10.250 -0.1171 -3.2800 -2.3314
  116OSM    H3G12192   0.625   0.835  10.399  0.6445 -0.5928 -0.2046
  116OSM    C4F12193   0.790   0.802  10.288  0.4638 -0.1495 -0.2228
  116OSM    H4F12194   0.841   0.763  10.379 -1.8881 -3.2461 -0.1447
  116OSM    H4G12195   0.867   0.842  10.219  0.2409 -0.3222 -0.5716
  116OSM    C5F12196   0.724   0.671  10.235 -0.2949 -0.5451 -0.3999
  116OSM    H5F12197   0.652   0.625  10.307 -0.6324 -1.3543 -1.2418
  116OSM    H5G12198   0.800   0.592  10.215  0.1841 -0.3020  0.4236
  116OSM    C6F12199   0.646   0.690  10.097 -0.0997 -0.7433  0.5841
  116OSM    H6F12200   0.578   0.777  10.091  2.0696  1.0106  0.7208
  116OSM    H6G12201   0.570   0.610  10.091  0.6542 -1.3382 -1.4488
  116OSM    C7F12202   0.734   0.686   9.969  0.0944 -0.2854  0.0236
  116OSM    H7F12203   0.808   0.604   9.980 -0.7207 -0.8447  1.4228
  116OSM    H7G12204   0.783   0.784   9.951  1.3174 -0.6914  1.1357
  116OSM    C8F12205   0.656   0.655   9.839  0.0380 -0.2672  0.2044
  116OSM    H8F12206   0.587   0.569   9.849 -0.8265  0.4788  0.6650
  116OSM    H8G12207   0.730   0.637   9.759 -3.5516 -2.0049 -2.8492
  116OSM    C9F12208   0.572   0.772   9.781 -0.2943  0.2672  0.5735
  116OSM    H9F12209   0.478   0.800   9.829  0.7713  3.6363  0.8311
  116OSM   C10F12210   0.615   0.848   9.676 -0.5109 -0.6569 -0.0664
  116OSM   H10F12211   0.552   0.931   9.640 -0.9674 -0.3210  1.4658
  116OSM   C11F12212   0.750   0.847   9.606 -0.1968 -0.8675 -0.1550
  116OSM   H11F12213   0.806   0.751   9.608 -0.2040 -0.8549  0.8879
  116OSM   H11G12214   0.812   0.927   9.653  0.1678 -0.4115 -1.3823
  116OSM   C12F12215   0.725   0.878   9.455  0.2476 -1.1124  0.6141
  116OSM   H12F12216   0.821   0.931   9.434 -1.0804  0.3870 -1.7777
  116OSM   H12G12217   0.646   0.956   9.453  2.3016  1.0477 -3.5818
  116OSM   C13F12218   0.701   0.764   9.365  0.0733  1.2056  0.1523
  116OSM   H13F12219   0.602   0.717   9.383  0.3349  1.4631  2.3976
  116OSM   H13G12220   0.766   0.677   9.389 -0.4452  0.0503 -2.4903
  116OSM   C14F12221   0.707   0.806   9.218 -0.7169  0.1512  0.1603
  116OSM   H14F12222   0.813   0.821   9.189 -0.6947 -1.4545 -0.6782
  116OSM   H14G12223   0.639   0.890   9.196 -1.5004 -0.4525  0.2493
  116OSM   C15F12224   0.653   0.690   9.133  0.1149  0.0502 -1.0373
  116OSM   H15F12225   0.544   0.681   9.154 -0.2917  0.8387 -2.6892
  116OSM   H15G12226   0.721   0.606   9.157  2.4543  1.3314 -2.9334
  116OSM   C16F12227   0.667   0.704   8.981 -0.3685 -0.2435  0.4713
  116OSM   H16F12228   0.749   0.770   8.945 -1.2797  0.3324 -0.5870
  116OSM   H16G12229   0.580   0.762   8.943 -0.3960 -0.3527  0.3674
  116OSM   C17F12230   0.681   0.567   8.912  0.2481  0.5420 -0.6295
  116OSM   H17F12231   0.588   0.508   8.928  1.0003 -0.6504 -0.5175
  116OSM   H17G12232   0.761   0.508   8.962 -0.4038  0.3490  0.1976
  116OSM   C18F12233   0.711   0.581   8.762 -0.0655  0.5408  0.0920
  116OSM   H18F12234   0.744   0.481   8.728 -0.5583 -0.2513  1.8923
  116OSM   H18G12235   0.791   0.655   8.739  1.6345 -1.3257 -0.1118
  116OSM   H18H12236   0.616   0.616   8.716 -0.0655  0.2331 -0.1462
  117OSM      N12237   4.306   2.065  10.981  0.2492 -0.0650  0.5269
  117OSM    C1512238   4.353   2.124  11.114  0.3983 -0.5193  0.5155
  117OSM   H15A12239   4.397   2.057  11.186  0.7447 -0.0899  0.7069
  117OSM   H15B12240   4.272   2.175  11.163 -0.0020  0.5998 -1.2445
  117OSM   H15C12241   4.427   2.199  11.087 -0.2073  0.2984  1.0938
  117OSM    C1412242   4.209   1.954  11.023  0.1731 -0.2166 -0.2440
  117OSM   H14A12243   4.263   1.888  11.090 -2.2114 -0.6544  1.2933
  117OSM   H14B12244   4.166   1.902  10.939 -3.9474 -0.9348  2.1604
  117OSM   H14C12245   4.127   1.995  11.079 -1.3114  0.2390 -2.6844
  117OSM    C1312246   4.219   2.162  10.903  0.4697  0.1630  0.0539
  117OSM   H13A12247   4.277   2.251  10.881  0.6061  0.1117  0.2079
  117OSM   H13B12248   4.136   2.215  10.947 -0.4779  0.5912 -2.2110
  117OSM   H13C12249   4.197   2.118  10.807 -0.3288 -1.7784  1.0896
  117OSM    C1212250   4.413   2.005  10.889  0.9553 -0.1582 -0.2823
  117OSM   H12A12251   4.359   1.960  10.807 -1.1908 -0.3289  1.1819
  117OSM   H12B12252   4.462   1.923  10.939 -0.2655 -1.8246 -1.7505
  117OSM    C1112253   4.514   2.106  10.820 -0.4898 -0.2908 -0.4673
  117OSM   H11A12254   4.455   2.192  10.782  0.8796 -0.0600 -2.1325
  117OSM   H11B12255   4.555   2.053  10.731  0.9949  1.4134 -0.8206
  117OSM      P12256   4.643   2.313  10.937  0.4940 -0.2338 -0.1701
  117OSM    O1312257   4.523   2.385  11.000  0.1441  0.0919  0.3342
  117OSM    O1412258   4.775   2.320  11.002 -0.1133 -0.0573 -0.7565
  117OSM    O1112259   4.660   2.372  10.792 -0.0285  0.4859  0.1611
  117OSM    O1212260   4.609   2.155  10.917  0.0714  0.0559  0.1097
  117OSM    C1S12261   4.765   2.315  10.710 -0.1664 -0.4546 -0.3904
  117OSM    H1S12262   4.768   2.204  10.713  1.0006 -0.4141  0.2141
  117OSM    H1T12263   4.861   2.338  10.761  0.1164  1.4100 -1.7526
  117OSM     NF12264   4.855   2.270  10.487  0.0664  0.7706  0.6258
  117OSM    HNF12265   4.941   2.313  10.461 -0.2275  1.1929  0.3486
  117OSM    C2S12266   4.771   2.363  10.566  0.1755  0.3570  0.0315
  117OSM    H2S12267   4.666   2.359  10.531  0.9158  1.1984 -2.4640
  117OSM    C3S12268   4.806   2.512  10.563 -0.2315  0.4372  0.6366
  117OSM    H3S12269   4.893   2.529  10.630 -1.9525  0.4066  2.9387
  117OSM     O312270   4.707   2.587  10.631  0.3483  0.4643 -0.2334
  117OSM    HO312271   4.666   2.518  10.684 -2.5175  1.7774 -0.6416
  117OSM    C4S12272   4.829   2.551  10.421 -0.1961  0.3870  0.4876
  117OSM    H4S12273   4.932   2.582  10.399  0.1038  0.3235  1.7702
  117OSM    C5S12274   4.731   2.584  10.328 -0.3319  0.1083  0.5782
  117OSM    H5S12275   4.623   2.585  10.347 -0.3769 -1.4725  0.4420
  117OSM    C6S12276   4.764   2.632  10.188  0.4920 -0.7987  0.0243
  117OSM    H6S12277   4.872   2.636  10.165  0.3834 -1.3804 -0.6267
  117OSM    H6T12278   4.725   2.734  10.171 -0.0479 -0.5818  2.3993
  117OSM    C7S12279   4.708   2.540  10.084  0.7648  0.3729  0.3256
  117OSM    H7S12280   4.606   2.507  10.111  0.5813  1.6809  1.2807
  117OSM    H7T12281   4.770   2.448  10.082 -0.7506 -0.7044  1.7794
  117OSM    C8S12282   4.720   2.596   9.945 -0.2141 -0.0674 -0.1114
  117OSM    H8S12283   4.824   2.629   9.924  0.7203 -2.6739  0.2031
  117OSM    H8T12284   4.664   2.691   9.929 -1.2381 -0.6990 -0.3533
  117OSM    C9S12285   4.673   2.503   9.831 -0.7468 -0.8802 -0.1584
  117OSM    H9S12286   4.562   2.505   9.836 -0.8831  1.4892 -2.8843
  117OSM    H9T12287   4.707   2.400   9.858  0.3257 -0.4187  0.2730
  117OSM   C10S12288   4.739   2.530   9.693 -0.1659 -0.6996 -0.3273
  117OSM   H10S12289   4.850   2.520   9.700  0.1914  1.9510 -1.9847
  117OSM   H10T12290   4.729   2.639   9.677  0.9520 -0.6957 -1.0673
  117OSM   C11S12291   4.687   2.446   9.580 -0.0933  0.6941  0.0480
  117OSM   H11S12292   4.599   2.498   9.537 -0.0415  0.8934  0.1798
  117OSM   H11T12293   4.662   2.345   9.620  0.6577  1.1975  1.8315
  117OSM   C12S12294   4.787   2.416   9.465 -0.0884  0.5120 -0.0214
  117OSM   H12S12295   4.802   2.306   9.468 -0.2624  0.4964  0.3174
  117OSM   H12T12296   4.883   2.467   9.485  0.3773  0.3239 -1.7577
  117OSM   C13S12297   4.737   2.457   9.330  0.4193 -0.4363  0.3952
  117OSM   H13S12298   4.737   2.567   9.317 -1.9132 -0.4944 -0.4056
  117OSM   H13T12299   4.630   2.425   9.327  0.6185 -1.6873  4.0279
  117OSM   C14S12300   4.819   2.394   9.214 -0.1209 -0.7477 -0.6091
  117OSM   H14S12301   4.819   2.283   9.213  1.0013 -0.7514 -0.1570
  117OSM   H14T12302   4.926   2.412   9.235  0.3988 -2.1804 -1.8759
  117OSM   C15S12303   4.787   2.462   9.078  0.0837  0.5099 -0.1615
  117OSM   H15S12304   4.856   2.549   9.069  0.0284  0.4769 -1.0222
  117OSM   H15T12305   4.681   2.490   9.062  0.2296  0.7364 -0.7842
  117OSM   C16S12306   4.824   2.377   8.955  0.1300 -0.3873 -0.0610
  117OSM   H16S12307   4.762   2.285   8.967 -0.2486 -0.1656 -0.3003
  117OSM   H16T12308   4.931   2.359   8.978 -0.2280 -0.3998  1.6838
  117OSM   C17S12309   4.806   2.444   8.818  0.6324 -0.3771  0.0346
  117OSM   H17S12310   4.872   2.531   8.801 -1.1375  1.2085  1.0102
  117OSM   H17T12311   4.698   2.471   8.814  0.6158 -0.5477 -0.6330
  117OSM   C18S12312   4.847   2.339   8.705  0.7969  0.0682 -0.1904
  117OSM   H18S12313   4.767   2.262   8.704 -0.9348  1.8233 -0.5091
  117OSM   H18T12314   4.942   2.283   8.722  0.9982  0.7981  1.2331
  117OSM   H18U12315   4.853   2.383   8.603  1.0958 -0.5084 -0.4252
  117OSM    C1F12316   4.817   2.146  10.458  0.0764 -0.1271  0.2001
  117OSM     OF12317   4.714   2.099  10.504  0.1621 -0.5164 -0.0473
  117OSM    C2F12318   4.898   2.062  10.368  0.1727  1.1613 -0.1720
  117OSM    H2F12319   4.829   2.005  10.303  1.6466 -0.0550 -0.7131
  117OSM    H2G12320   4.947   1.984  10.431  0.0791  1.6830  0.5611
  117OSM    C3F12321   5.008   2.129  10.283 -0.0682  0.2856 -0.3720
  117OSM    H3F12322   5.056   2.057  10.214 -2.5624 -0.3578 -1.4628
  117OSM    H3G12323   5.076   2.183  10.354  0.2416 -1.9170  1.0689
  117OSM    C4F12324   4.955   2.237  10.191  0.1346  0.0206 -0.4485
  117OSM    H4F12325   4.888   2.315  10.234 -0.6324 -0.7608 -0.2161
  117OSM    H4G12326   4.880   2.189  10.125 -1.7749  0.8651  1.0253
  117OSM    C5F12327   5.068   2.306  10.118 -0.3348  0.8667 -0.6804
  117OSM    H5F12328   5.166   2.254  10.127 -0.4017  1.0390  1.1634
  117OSM    H5G12329   5.068   2.412  10.151 -2.8969  0.6030  0.3469
  117OSM    C6F12330   5.029   2.325   9.971 -0.2246 -1.0588 -0.4323
  117OSM    H6F12331   5.100   2.390   9.915  0.0435 -1.9279 -1.1332
  117OSM    H6G12332   4.929   2.371   9.960  0.7672  1.0297 -0.9164
  117OSM    C7F12333   5.043   2.186   9.896  0.4119 -0.7679 -0.0357
  117OSM    H7F12334   4.970   2.119   9.946 -2.5990  2.0736 -0.4057
  117OSM    H7G12335   5.146   2.146   9.904  0.9682  0.5295 -0.5594
  117OSM    C8F12336   5.003   2.200   9.750 -0.4165 -0.0486 -0.0522
  117OSM    H8F12337   5.072   2.270   9.698  0.6750  0.0822  1.5167
  117OSM    H8G12338   4.904   2.250   9.749 -0.7588 -0.6781  1.4624
  117OSM    C9F12339   5.005   2.065   9.691  0.1193  0.1108 -0.1644
  117OSM    H9F12340   4.952   1.987   9.748  2.9181 -1.2723  0.6706
  117OSM   C10F12341   5.076   2.026   9.580  0.1110 -0.7681  0.0793
  117OSM   H10F12342   5.087   1.919   9.559 -0.9976 -1.3674  2.3460
  117OSM   C11F12343   5.147   2.120   9.490 -0.1002 -0.1561 -0.1003
  117OSM   H11F12344   5.256   2.121   9.510  0.1036  1.7119 -1.2232
  117OSM   H11G12345   5.109   2.224   9.499  1.8501  0.5306  0.4379
  117OSM   C12F12346   5.129   2.102   9.338  0.3481  0.1854  0.0980
  117OSM   H12F12347   5.020   2.111   9.316  0.0973 -1.2864  0.6554
  117OSM   H12G12348   5.168   2.000   9.319  1.2837  0.2312  1.6408
  117OSM   C13F12349   5.216   2.195   9.250  0.4834  0.0235 -0.5736
  117OSM   H13F12350   5.319   2.184   9.292  0.0192 -2.1515  0.0818
  117OSM   H13G12351   5.181   2.300   9.245  2.3648  0.6428 -1.3451
  117OSM   C14F12352   5.210   2.159   9.103 -0.3959 -0.1636 -0.2442
  117OSM   H14F12353   5.112   2.197   9.065  0.5050  0.9371 -1.5194
  117OSM   H14G12354   5.208   2.049   9.090  1.4658 -0.1885 -0.4215
  117OSM   C15F12355   5.342   2.203   9.031  0.2710  0.0155  0.0935
  117OSM   H15F12356   5.437   2.182   9.085  0.3831 -1.7077 -0.7271
  117OSM   H15G12357   5.330   2.313   9.033 -0.3331 -0.0563  0.7161
  117OSM   C16F12358   5.351   2.160   8.886 -0.7535 -0.2038 -0.2735
  117OSM   H16F12359   5.361   2.050   8.898  0.2513 -0.5772 -3.9201
  117OSM   H16G12360   5.448   2.186   8.840 -0.3962 -0.8847  0.0934
  117OSM   C17F12361   5.237   2.188   8.794 -0.4411  1.0930  0.5931
  117OSM   H17F12362   5.270   2.231   8.697  1.3506 -0.3063  0.5455
  117OSM   H17G12363   5.164   2.255   8.844 -0.0807  2.2132 -0.3748
  117OSM   C18F12364   5.160   2.055   8.759  0.1060 -0.4161  0.0279
  117OSM   H18F12365   5.231   1.994   8.700  0.9067  0.2395  0.3006
  117OSM   H18G12366   5.073   2.085   8.696  0.8866 -0.7669 -1.2292
  117OSM   H18H12367   5.131   2.000   8.851  2.5716  1.2279  1.8586
  118OSM      N12368   5.217   3.535  11.253 -0.0119 -0.2711  0.1863
  118OSM    C1512369   5.159   3.450  11.143 -0.1874  0.6083  0.0933
  118OSM   H15A12370   5.057   3.417  11.161 -0.6423  1.7658 -0.3216
  118OSM   H15B12371   5.219   3.365  11.114 -0.7243  1.0090 -2.2635
  118OSM   H15C12372   5.155   3.510  11.054 -0.2105  0.8042  0.2257
  118OSM    C1412373   5.113   3.636  11.294 -0.5553  0.2726  0.2468
  118OSM   H14A12374   5.032   3.591  11.350  0.4871 -2.3474 -0.2845
  118OSM   H14B12375   5.082   3.696  11.209 -0.0858  0.7922  0.4424
  118OSM   H14C12376   5.158   3.717  11.349  2.6932 -1.2577 -0.0221
  118OSM    C1312377   5.231   3.448  11.370  0.4346 -0.4103 -0.2090
  118OSM   H13A12378   5.255   3.508  11.456 -1.5109 -1.6714  1.2781
  118OSM   H13B12379   5.302   3.371  11.345  0.7336  0.0367 -0.7303
  118OSM   H13C12380   5.140   3.393  11.391 -0.1779  0.4135 -0.6823
  118OSM    C1212381   5.351   3.591  11.204 -0.1657  0.2068 -0.5562
  118OSM   H12A12382   5.382   3.666  11.275 -3.1230  1.3637 -0.3892
  118OSM   H12B12383   5.336   3.647  11.113  0.4301 -2.1540 -2.1362
  118OSM    C1112384   5.463   3.489  11.183 -0.5059  0.4918 -0.6617
  118OSM   H11A12385   5.439   3.410  11.109  0.9475  0.7118 -1.3936
  118OSM   H11B12386   5.488   3.435  11.277  0.3898  1.5636 -0.2742
  118OSM      P12387   5.626   3.577  11.002  0.1613 -0.1249  0.3320
  118OSM    O1312388   5.683   3.710  10.983 -0.4910  0.7079 -0.4222
  118OSM    O1412389   5.708   3.458  10.958  0.2787  0.4717 -0.3934
  118OSM    O1112390   5.486   3.571  10.930 -0.8127 -0.5670  0.0991
  118OSM    O1212391   5.576   3.564  11.146  0.1416 -0.1694 -0.3156
  118OSM    C1S12392   5.456   3.462  10.837  0.1144 -0.0263 -1.2754
  118OSM    H1S12393   5.392   3.390  10.892 -2.1509  1.6842 -1.6186
  118OSM    H1T12394   5.543   3.403  10.800  0.7408  0.1461 -0.0974
  118OSM     NF12395   5.448   3.622  10.649 -0.1553 -0.9417  0.3600
  118OSM    HNF12396   5.408   3.711  10.668  0.9132 -0.1041 -1.2062
  118OSM    C2S12397   5.383   3.516  10.717 -0.0046  0.2537  0.4154
  118OSM    H2S12398   5.377   3.435  10.641  1.0096 -0.1578  0.7707
  118OSM    C3S12399   5.240   3.549  10.761  0.1410 -1.1189  0.6707
  118OSM    H3S12400   5.232   3.626  10.840 -0.2673  0.4808 -0.8926
  118OSM     O312401   5.167   3.441  10.816  0.4836  0.2365  0.1566
  118OSM    HO312402   5.233   3.371  10.826 -0.4080 -0.3728  2.1218
  118OSM    C4S12403   5.154   3.592  10.639  0.1978  0.2377 -0.0062
  118OSM    H4S12404   5.149   3.525  10.552 -0.5578 -0.4277  0.5502
  118OSM    C5S12405   5.117   3.721  10.618 -0.2678  0.3728 -0.6475
  118OSM    H5S12406   5.143   3.810  10.677 -1.3045  2.2260 -2.8786
  118OSM    C6S12407   5.052   3.770  10.488  0.2125  0.5434  0.8353
  118OSM    H6S12408   5.032   3.879  10.494 -3.6463 -0.0241 -0.2000
  118OSM    H6T12409   4.965   3.711  10.451  0.1614  0.6990  0.7040
  118OSM    C7S12410   5.154   3.759  10.367  0.3583  0.7544 -0.1947
  118OSM    H7S12411   5.165   3.650  10.345  0.9937  1.1406 -1.8470
  118OSM    H7T12412   5.257   3.795  10.387  0.9503  0.4999 -2.6632
  118OSM    C8S12413   5.097   3.823  10.246 -0.3041 -0.3892 -0.5811
  118OSM    H8S12414   5.114   3.932  10.245 -0.7250 -0.2658  1.8937
  118OSM    H8T12415   4.986   3.813  10.245 -0.4807  1.4340 -0.4121
  118OSM    C9S12416   5.163   3.757  10.124  0.3992  0.1529  0.2713
  118OSM    H9S12417   5.143   3.647  10.121 -0.0207  0.1421  2.5775
  118OSM    H9T12418   5.273   3.771  10.129  0.2629  0.8664  1.4080
  118OSM   C10S12419   5.100   3.818   9.999  0.1709  0.4615 -0.0106
  118OSM   H10S12420   5.117   3.927   9.990 -1.4301  0.5579 -2.3550
  118OSM   H10T12421   4.991   3.796  10.004  0.0933  0.8128 -0.1543
  118OSM   C11S12422   5.160   3.753   9.878 -0.1776  0.4420  0.0977
  118OSM   H11S12423   5.116   3.651   9.872  2.9657 -0.9456 -0.5997
  118OSM   H11T12424   5.268   3.736   9.894  0.1825  3.0281  0.5788
  118OSM   C12S12425   5.130   3.816   9.743 -0.1497 -0.4279  0.0772
  118OSM   H12S12426   5.157   3.923   9.757  0.5351 -0.8843  2.3275
  118OSM   H12T12427   5.021   3.815   9.721 -0.1959  1.8569  0.0782
  118OSM   C13S12428   5.227   3.759   9.636  0.5115 -0.0751  0.0342
  118OSM   H13S12429   5.241   3.649   9.645  0.3739 -0.1265 -0.3751
  118OSM   H13T12430   5.326   3.803   9.662  0.5530 -0.4394  0.4964
  118OSM   C14S12431   5.185   3.795   9.493 -0.4174  0.2608  1.2650
  118OSM   H14S12432   5.148   3.899   9.502 -1.3394  0.2164 -1.5417
  118OSM   H14T12433   5.094   3.736   9.467 -0.5122  1.7142 -1.8319
  118OSM   C15S12434   5.293   3.772   9.386  0.2915  0.3111 -0.1399
  118OSM   H15S12435   5.319   3.664   9.382  1.7363  0.5749  1.6212
  118OSM   H15T12436   5.382   3.818   9.433  1.5739 -0.0645 -2.1569
  118OSM   C16S12437   5.257   3.841   9.254 -0.0583 -0.0442  0.2754
  118OSM   H16S12438   5.239   3.949   9.273  0.8593  0.1726 -0.0455
  118OSM   H16T12439   5.164   3.795   9.215  0.4344 -0.5397 -0.3417
  118OSM   C17S12440   5.373   3.820   9.148  0.4143 -0.4203 -0.2978
  118OSM   H17S12441   5.368   3.711   9.129 -3.1982 -0.4346  0.3459
  118OSM   H17T12442   5.476   3.845   9.181  1.2146 -3.2465 -0.5020
  118OSM   C18S12443   5.335   3.896   9.019  0.3881 -0.4804  0.6987
  118OSM   H18S12444   5.293   3.996   9.043 -0.4360 -0.8762  0.8913
  118OSM   H18T12445   5.255   3.847   8.960  0.6815  1.4009 -1.3496
  118OSM   H18U12446   5.418   3.906   8.945  0.0903  2.4654  0.6944
  118OSM    C1F12447   5.554   3.609  10.575  0.4754  0.8719  0.2363
  118OSM     OF12448   5.624   3.513  10.576  0.0567  0.2903  0.1102
  118OSM    C2F12449   5.592   3.719  10.476  0.2495 -0.3950  0.0036
  118OSM    H2F12450   5.701   3.740  10.481  0.0236  0.9097 -0.3564
  118OSM    H2G12451   5.526   3.806  10.493  0.8024  0.0324 -0.0179
  118OSM    C3F12452   5.561   3.678  10.330 -0.7827  0.1108 -0.5752
  118OSM    H3F12453   5.456   3.648  10.311 -0.6631  0.2768 -1.5380
  118OSM    H3G12454   5.628   3.591  10.313  1.3801  2.0186 -2.1922
  118OSM    C4F12455   5.621   3.780  10.225 -0.4855 -0.1237 -0.8533
  118OSM    H4F12456   5.729   3.801  10.241 -0.0291 -1.9615 -1.4498
  118OSM    H4G12457   5.591   3.886  10.244  0.2781  0.0019 -0.2985
  118OSM    C5F12458   5.602   3.738  10.081  0.0935  0.0278 -0.2785
  118OSM    H5F12459   5.495   3.766  10.068  0.1349  0.6573  0.6762
  118OSM    H5G12460   5.610   3.627  10.090 -1.3945 -0.0860 -0.1925
  118OSM    C6F12461   5.710   3.795   9.995 -0.4602  0.3044 -0.5966
  118OSM    H6F12462   5.807   3.762  10.036 -0.2877  3.3308  1.6018
  118OSM    H6G12463   5.714   3.906   9.996  1.5616  0.2437  0.8226
  118OSM    C7F12464   5.691   3.741   9.853  0.6295  0.1327 -0.0986
  118OSM    H7F12465   5.584   3.743   9.822  0.1513 -1.1358  1.3824
  118OSM    H7G12466   5.724   3.636   9.863  1.1797  0.3611  0.5223
  118OSM    C8F12467   5.772   3.807   9.743  0.1282 -0.3624  0.8641
  118OSM    H8F12468   5.876   3.772   9.762  0.4665  0.0706 -0.2166
  118OSM    H8G12469   5.769   3.917   9.755 -0.0325  0.3667 -4.8396
  118OSM    C9F12470   5.715   3.769   9.603  0.4754  0.2375  0.0163
  118OSM    H9F12471   5.661   3.674   9.619  0.5977  0.2732  0.6663
  118OSM   C10F12472   5.712   3.826   9.480  0.6540 -0.1589 -0.3551
  118OSM   H10F12473   5.651   3.776   9.403  0.5162  0.4015 -0.6118
  118OSM   C11F12474   5.780   3.952   9.427  0.5620  0.1933 -0.1090
  118OSM   H11F12475   5.837   4.003   9.507  2.7111 -0.5885 -1.1045
  118OSM   H11G12476   5.700   4.013   9.379 -0.5935  0.1690  1.7315
  118OSM   C12F12477   5.886   3.921   9.324  0.6947  0.0876 -0.2601
  118OSM   H12F12478   5.971   3.867   9.369  0.0003  0.6034  1.7058
  118OSM   H12G12479   5.932   4.010   9.275 -0.4946  0.2537 -1.0985
  118OSM   C13F12480   5.848   3.839   9.204 -0.0812 -0.1294  0.2950
  118OSM   H13F12481   5.749   3.880   9.172 -0.7233 -0.5671  1.6760
  118OSM   H13G12482   5.834   3.736   9.243  0.7863  0.4335  2.1662
  118OSM   C14F12483   5.948   3.844   9.092  0.0990 -0.0232  0.3344
  118OSM   H14F12484   6.055   3.826   9.116  0.4960 -0.3355 -1.6227
  118OSM   H14G12485   5.936   3.945   9.047  0.2364 -0.5429 -0.8708
  118OSM   C15F12486   5.909   3.754   8.972 -0.3363  0.2592 -0.0609
  118OSM   H15F12487   5.820   3.792   8.917 -0.9114 -2.9117 -1.4031
  118OSM   H15G12488   5.871   3.661   9.019 -1.0549  0.9840  0.8093
  118OSM   C16F12489   6.022   3.728   8.877 -0.4777  0.1528 -0.6974
  118OSM   H16F12490   6.103   3.684   8.939  0.8849 -0.4222 -2.8546
  118OSM   H16G12491   6.067   3.819   8.831 -0.4700 -0.1324 -1.2490
  118OSM   C17F12492   5.984   3.637   8.759  0.4297 -0.3130  0.3487
  118OSM   H17F12493   5.926   3.692   8.681  1.4791 -0.9865 -0.9271
  118OSM   H17G12494   5.920   3.559   8.806 -0.9494  1.2581  1.1516
  118OSM   C18F12495   6.102   3.565   8.692  0.2755 -0.3518  0.8006
  118OSM   H18F12496   6.168   3.636   8.638 -0.9372 -0.9480 -1.5213
  118OSM   H18G12497   6.068   3.485   8.622 -0.2763  1.7593 -1.3889
  118OSM   H18H12498   6.162   3.511   8.769  0.8973  0.3319  0.7919
  119OSM      N12499   6.002   3.030  10.542 -0.2455 -0.1745  0.6096
  119OSM    C1512500   5.957   3.059  10.402  0.1794  0.0769 -0.2221
  119OSM   H15A12501   6.040   3.092  10.342  0.4364  0.8089  0.5344
  119OSM   H15B12502   5.877   3.132  10.399  0.5490  0.4901 -0.0202
  119OSM   H15C12503   5.921   2.970  10.352  1.7734 -0.4139 -0.5120
  119OSM    C1412504   6.053   3.155  10.603  0.1516 -0.3031  0.4205
  119OSM   H14A12505   6.107   3.135  10.694  1.4961  1.5321  0.0576
  119OSM   H14B12506   5.972   3.226  10.616 -0.1634 -0.5947  0.0767
  119OSM   H14C12507   6.126   3.199  10.537 -0.7428 -0.2772 -0.5641
  119OSM    C1312508   5.892   2.968  10.622  0.2667  0.1856  0.4426
  119OSM   H13A12509   5.857   2.871  10.591  2.1866 -1.0922  2.1350
  119OSM   H13B12510   5.808   3.035  10.629 -0.1836 -0.5846  2.8115
  119OSM   H13C12511   5.921   2.962  10.726 -0.1926 -0.0097  0.5627
  119OSM    C1212512   6.122   2.945  10.527  0.0373 -0.6236 -0.4156
  119OSM   H12A12513   6.174   2.928  10.620 -0.9551 -0.1419  0.2499
  119OSM   H12B12514   6.194   3.003  10.471 -1.8784  2.9293  0.5778
  119OSM    C1112515   6.097   2.814  10.452 -0.0047 -0.1678 -0.3212
  119OSM   H11A12516   6.197   2.765  10.461  0.7048  1.5816  1.9105
  119OSM   H11B12517   6.077   2.834  10.345 -0.0301 -0.5089 -0.3821
  119OSM      P12518   6.040   2.619  10.615  0.1669  0.1560 -0.0905
  119OSM    O1312519   6.152   2.667  10.700 -0.3034 -0.2035 -0.0629
  119OSM    O1412520   5.916   2.574  10.684 -0.6460  0.1180 -0.2892
  119OSM    O1112521   6.099   2.511  10.510  0.3363 -0.2021 -0.6508
  119OSM    O1212522   6.001   2.736  10.523 -0.4274  0.4427 -0.5852
  119OSM    C1S12523   6.024   2.435  10.420 -0.1526 -0.2722 -0.4325
  119OSM    H1S12524   5.919   2.472  10.426 -0.1435 -0.4651  1.1649
  119OSM    H1T12525   6.034   2.329  10.451 -0.8709 -0.0827  0.4752
  119OSM     NF12526   5.962   2.402  10.183 -0.4236 -0.0581 -0.6537
  119OSM    HNF12527   5.976   2.315  10.137  0.7344  0.4848 -1.3412
  119OSM    C2S12528   6.065   2.446  10.269 -0.3764  0.7092 -0.1404
  119OSM    H2S12529   6.079   2.553  10.245  0.5391  0.5464 -0.3330
  119OSM    C3S12530   6.209   2.374  10.260  0.1921 -0.2667  0.9126
  119OSM    H3S12531   6.200   2.270  10.296  2.5200 -0.5311  0.8001
  119OSM     O312532   6.313   2.450  10.327  0.5592  0.0925 -0.2162
  119OSM    HO312533   6.258   2.500  10.388  1.0567 -2.0856  2.0724
  119OSM    C4S12534   6.251   2.362  10.120 -1.0084  0.3319 -1.1508
  119OSM    H4S12535   6.250   2.256  10.091 -2.2623 -0.5880  2.0748
  119OSM    C5S12536   6.305   2.463  10.043 -0.1290 -0.3261 -0.0737
  119OSM    H5S12537   6.325   2.561  10.088  2.1161 -0.5531 -0.5325
  119OSM    C6S12538   6.361   2.423   9.910  0.4740  0.5334 -0.5783
  119OSM    H6S12539   6.444   2.349   9.919  1.1513  1.1119 -1.8108
  119OSM    H6T12540   6.415   2.510   9.867  1.4433 -0.7718 -2.0631
  119OSM    C7S12541   6.245   2.384   9.812 -0.3452 -0.5432 -0.5711
  119OSM    H7S12542   6.167   2.462   9.804  1.1198  0.9374 -0.7819
  119OSM    H7T12543   6.198   2.290   9.848 -2.0940 -0.0584 -1.5318
  119OSM    C8S12544   6.303   2.374   9.665 -0.1826  0.1597 -0.2113
  119OSM    H8S12545   6.230   2.323   9.599  0.7745  0.8121 -1.8068
  119OSM    H8T12546   6.403   2.326   9.659 -0.0774  0.0899  1.6612
  119OSM    C9S12547   6.328   2.521   9.611 -0.2615 -0.9884  0.5282
  119OSM    H9S12548   6.380   2.588   9.683 -0.3153  1.1560 -1.3837
  119OSM    H9T12549   6.229   2.570   9.605 -0.6339 -1.5360  2.0107
  119OSM   C10S12550   6.401   2.521   9.479  0.0053  0.2776 -0.3543
  119OSM   H10S12551   6.326   2.490   9.404 -0.9344 -0.4870  0.8903
  119OSM   H10T12552   6.489   2.453   9.474  1.1128  1.5640  1.0813
  119OSM   C11S12553   6.441   2.659   9.433 -0.1004  0.5443  0.0959
  119OSM   H11S12554   6.534   2.698   9.481  0.2585  0.9431 -0.9038
  119OSM   H11T12555   6.364   2.732   9.466 -0.9804 -0.3099 -0.0491
  119OSM   C12S12556   6.454   2.681   9.283 -1.0075  0.5000 -0.5090
  119OSM   H12S12557   6.518   2.596   9.250 -0.7747  0.1298  0.8397
  119OSM   H12T12558   6.512   2.774   9.264  1.2131 -0.7481 -0.0791
  119OSM   C13S12559   6.324   2.693   9.200  0.0149 -0.3987 -0.1730
  119OSM   H13S12560   6.257   2.613   9.239 -1.7186  0.8972 -0.4478
  119OSM   H13T12561   6.341   2.670   9.093 -0.7678 -0.8763 -0.2051
  119OSM   C14S12562   6.252   2.830   9.205  0.1768  0.1492 -0.9729
  119OSM   H14S12563   6.252   2.856   9.313 -1.6786 -0.6673 -0.7517
  119OSM   H14T12564   6.147   2.808   9.177  0.4263 -1.5189 -0.6228
  119OSM   C15S12565   6.309   2.932   9.108 -0.3053  0.2575  0.1555
  119OSM   H15S12566   6.310   2.885   9.007 -0.2920 -0.5796  0.5435
  119OSM   H15T12567   6.410   2.964   9.142 -1.4627  1.8902  2.2141
  119OSM   C16S12568   6.212   3.057   9.095  0.0107  0.2700 -0.5705
  119OSM   H16S12569   6.180   3.103   9.191  0.8554 -0.2636 -0.0270
  119OSM   H16T12570   6.120   3.024   9.044 -1.4066  1.2107  1.3169
  119OSM   C17S12571   6.283   3.174   9.021 -0.8591 -0.4213  0.4384
  119OSM   H17S12572   6.321   3.135   8.924 -0.8812  0.6326  0.0017
  119OSM   H17T12573   6.375   3.205   9.076 -1.3306 -0.7585  1.4076
  119OSM   C18S12574   6.194   3.295   8.990  0.3858 -0.0501 -0.1157
  119OSM   H18S12575   6.152   3.338   9.084  1.4591  0.7658  0.0094
  119OSM   H18T12576   6.106   3.249   8.941  0.6653 -0.5610 -0.1376
  119OSM   H18U12577   6.237   3.370   8.920  1.7274  0.8096  1.5872
  119OSM    C1F12578   5.848   2.472  10.177  0.6590 -1.0434 -0.5387
  119OSM     OF12579   5.848   2.586  10.216  0.1502 -0.1327  0.2409
  119OSM    C2F12580   5.736   2.402  10.104 -0.3702  0.1124 -0.3544
  119OSM    H2F12581   5.739   2.292  10.115  0.4430  0.1449 -0.2167
  119OSM    H2G12582   5.742   2.422   9.995  0.8154  2.1591  0.0618
  119OSM    C3F12583   5.601   2.461  10.136  0.3346  0.3189  0.1820
  119OSM    H3F12584   5.585   2.559  10.086 -2.0003  0.5228  1.2487
  119OSM    H3G12585   5.588   2.467  10.246 -1.7617  1.2575 -0.0803
  119OSM    C4F12586   5.488   2.367  10.109  0.5619 -0.2449  0.2366
  119OSM    H4F12587   5.401   2.413  10.161 -0.0083  2.8740 -3.2614
  119OSM    H4G12588   5.515   2.277  10.168 -1.2545 -1.4962 -0.7805
  119OSM    C5F12589   5.451   2.332   9.964 -0.0689 -0.4126 -0.6248
  119OSM    H5F12590   5.364   2.264   9.977  1.5019 -2.6673 -1.4318
  119OSM    H5G12591   5.532   2.289   9.901 -0.8297 -1.6908 -0.7559
  119OSM    C6F12592   5.392   2.451   9.880  0.5101 -0.3405  0.2488
  119OSM    H6F12593   5.468   2.531   9.868 -0.2406  0.4028  0.3979
  119OSM    H6G12594   5.307   2.505   9.926 -2.3534 -1.9923 -2.8970
  119OSM    C7F12595   5.353   2.408   9.736  0.2606  0.1418 -0.0022
  119OSM    H7F12596   5.298   2.312   9.737  1.5303 -0.6047  2.8612
  119OSM    H7G12597   5.447   2.385   9.680 -0.6962 -0.5596 -1.3499
  119OSM    C8F12598   5.275   2.520   9.665  0.1200  0.4580 -0.2936
  119OSM    H8F12599   5.350   2.599   9.644  0.9496 -0.6837 -1.7742
  119OSM    H8G12600   5.194   2.555   9.732 -0.8139 -0.7023 -0.7949
  119OSM    C9F12601   5.229   2.482   9.531 -0.4540  0.3015 -0.4696
  119OSM    H9F12602   5.127   2.443   9.516 -0.1573 -1.4564  2.0132
  119OSM   C10F12603   5.305   2.496   9.418 -0.5193  0.2794 -0.4328
  119OSM   H10F12604   5.267   2.470   9.318  0.1219 -2.2406 -0.0480
  119OSM   C11F12605   5.442   2.568   9.417 -0.1958 -0.0777 -0.1219
  119OSM   H11F12606   5.499   2.526   9.502 -2.2758  0.0541  1.3739
  119OSM   H11G12607   5.411   2.673   9.436 -1.0864 -0.0167 -1.8159
  119OSM   C12F12608   5.528   2.554   9.290  0.4004  0.2658 -0.1928
  119OSM   H12F12609   5.604   2.635   9.292  0.9831 -0.1482 -3.2776
  119OSM   H12G12610   5.475   2.576   9.195 -2.9673 -1.9843  1.0859
  119OSM   C13F12611   5.604   2.422   9.286  0.3814  0.2583  0.0837
  119OSM   H13F12612   5.527   2.348   9.254  1.0790 -0.0644 -0.8627
  119OSM   H13G12613   5.652   2.396   9.383 -1.4077 -2.5786  0.2491
  119OSM   C14F12614   5.728   2.425   9.192 -0.1759 -0.2690 -0.2425
  119OSM   H14F12615   5.789   2.334   9.204  0.9702  0.0682 -3.0322
  119OSM   H14G12616   5.777   2.518   9.227 -2.8465  0.1307  2.6833
  119OSM   C15F12617   5.699   2.456   9.035 -0.3443  0.1894 -0.0189
  119OSM   H15F12618   5.591   2.482   9.026 -0.4779 -0.1531  0.5766
  119OSM   H15G12619   5.726   2.366   8.976  0.9229  1.1716 -0.9704
  119OSM   C16F12620   5.785   2.583   8.990  0.6982  0.3688  0.0666
  119OSM   H16F12621   5.764   2.666   9.060  0.4998 -0.3453  0.8585
  119OSM   H16G12622   5.767   2.622   8.887  2.4420  1.1072  0.0223
  119OSM   C17F12623   5.940   2.558   8.998 -0.1710 -0.2645  0.6119
  119OSM   H17F12624   5.959   2.456   8.957  0.7286 -0.1187  0.6600
  119OSM   H17G12625   5.962   2.552   9.106  3.6413  2.0254  0.0640
  119OSM   C18F12626   6.023   2.670   8.948  0.6781 -0.0224  0.1190
  119OSM   H18F12627   6.022   2.698   8.841 -2.8828  0.7666  0.3063
  119OSM   H18G12628   6.131   2.657   8.973  0.2632 -0.2406  1.8392
  119OSM   H18H12629   5.985   2.754   9.010  0.8775  0.0430  0.1523
  120OSM      N12630   4.520   6.407  10.692 -0.6102 -0.3389  0.4967
  120OSM    C1512631   4.416   6.306  10.696 -0.5442 -0.1787 -1.1049
  120OSM   H15A12632   4.325   6.325  10.642  1.1620  1.1082 -3.5924
  120OSM   H15B12633   4.391   6.284  10.799 -0.1530  1.5072 -0.6212
  120OSM   H15C12634   4.452   6.216  10.648  1.0239 -0.6518  0.8843
  120OSM    C1412635   4.463   6.537  10.752  0.0831 -0.4165  0.8097
  120OSM   H14A12636   4.460   6.518  10.858  0.9815 -1.7913  0.6022
  120OSM   H14B12637   4.364   6.556  10.713  0.1978 -1.2205  0.0994
  120OSM   H14C12638   4.521   6.625  10.729 -0.9926  0.2312  0.4877
  120OSM    C1312639   4.640   6.356  10.770  0.0814 -0.3209  0.0284
  120OSM   H13A12640   4.688   6.449  10.795  1.5293 -0.2179 -2.8343
  120OSM   H13B12641   4.699   6.296  10.702  2.3509  1.1334  0.6765
  120OSM   H13C12642   4.592   6.310  10.855 -0.1456 -0.0061  0.0702
  120OSM    C1212643   4.565   6.442  10.547  0.4148 -0.8662  0.2475
  120OSM   H12A12644   4.479   6.443  10.481 -0.1999  1.0517  1.0657
  120OSM   H12B12645   4.616   6.355  10.509  1.6375  0.2013 -0.6202
  120OSM    C1112646   4.659   6.559  10.526  0.8724 -0.0066  0.1041
  120OSM   H11A12647   4.639   6.659  10.570  0.3939  0.0291 -0.1956
  120OSM   H11B12648   4.668   6.595  10.422 -0.8704  2.6058  0.8066
  120OSM      P12649   4.882   6.417  10.497  0.0552  0.4784  0.1271
  120OSM    O1312650   5.017   6.429  10.551  0.1875  0.2186 -0.0908
  120OSM    O1412651   4.823   6.284  10.510 -0.2769  0.3122  0.0928
  120OSM    O1112652   4.871   6.464  10.350  0.0677  0.6843  0.1550
  120OSM    O1212653   4.789   6.517  10.575  0.5118 -0.3884 -0.1842
  120OSM    C1S12654   4.911   6.598  10.309  0.3381 -0.4223 -0.0927
  120OSM    H1S12655   4.979   6.644  10.385 -1.6705  0.2568  1.3475
  120OSM    H1T12656   4.828   6.670  10.293  1.1370  0.6049  0.2946
  120OSM     NF12657   5.056   6.722  10.163  0.7271  0.0891 -0.5966
  120OSM    HNF12658   5.000   6.786  10.109  0.1499 -0.1366 -0.2678
  120OSM    C2S12659   4.994   6.593  10.177  0.3863 -0.1170 -0.1153
  120OSM    H2S12660   5.074   6.516  10.176  0.2316 -0.2765 -0.2746
  120OSM    C3S12661   4.893   6.550  10.059 -0.4662  0.4559 -0.5854
  120OSM    H3S12662   4.822   6.631  10.034 -2.0055 -0.5858  0.3303
  120OSM     O312663   4.812   6.436  10.100 -0.4028  0.1758 -0.2642
  120OSM    HO312664   4.827   6.439  10.195  1.1829 -0.2142 -0.4973
  120OSM    C4S12665   4.972   6.516   9.943 -0.1089 -0.3128 -0.5798
  120OSM    H4S12666   5.014   6.415   9.949 -0.0133 -0.2510 -0.1559
  120OSM    C5S12667   4.997   6.597   9.836  0.0933  0.2194  0.1626
  120OSM    H5S12668   4.962   6.701   9.837 -0.8847 -0.1071  2.3198
  120OSM    C6S12669   5.073   6.551   9.716 -0.8684 -0.0929 -0.4848
  120OSM    H6S12670   5.132   6.457   9.729  2.6131  2.0295 -0.2438
  120OSM    H6T12671   5.161   6.618   9.707 -0.1051 -0.4925  3.0711
  120OSM    C7S12672   4.998   6.564   9.583 -0.5479 -0.5854 -0.1223
  120OSM    H7S12673   4.944   6.661   9.589  0.1073 -0.2693  0.7000
  120OSM    H7T12674   4.920   6.486   9.573 -3.1377  1.9808 -0.6156
  120OSM    C8S12675   5.104   6.556   9.473 -0.1979 -0.0615  0.4299
  120OSM    H8S12676   5.153   6.456   9.484 -3.0053 -1.3195  2.0583
  120OSM    H8T12677   5.184   6.632   9.484  0.4406 -0.5578 -0.5636
  120OSM    C9S12678   5.062   6.578   9.324 -0.0445 -0.1296 -0.6202
  120OSM    H9S12679   5.014   6.677   9.311  2.7659  1.1778 -1.3988
  120OSM    H9T12680   4.996   6.493   9.294  1.6057 -0.6411 -2.9765
  120OSM   C10S12681   5.180   6.555   9.228  0.5568  0.8651  0.0394
  120OSM   H10S12682   5.214   6.450   9.236  1.0404  1.0319  0.1502
  120OSM   H10T12683   5.268   6.613   9.262  1.4801 -0.5097  0.0324
  120OSM   C11S12684   5.147   6.578   9.075  0.0406 -0.4558 -0.6135
  120OSM   H11S12685   5.079   6.500   9.034 -0.0816 -0.6785  0.0052
  120OSM   H11T12686   5.242   6.563   9.020  0.7737  0.5245  0.3619
  120OSM   C12S12687   5.085   6.720   9.049 -0.1580 -0.2617 -0.4892
  120OSM   H12S12688   5.148   6.803   9.085 -1.4914  0.9985 -1.0266
  120OSM   H12T12689   4.982   6.725   9.092  0.1416 -0.7664  0.2911
  120OSM   C13S12690   5.064   6.751   8.893  0.5893  0.2508 -0.8340
  120OSM   H13S12691   5.167   6.759   8.851  1.5322  1.0165  1.5227
  120OSM   H13T12692   5.018   6.852   8.899 -0.5924 -0.3743  0.9976
  120OSM   C14S12693   4.982   6.648   8.809  0.0375 -0.3421  0.2207
  120OSM   H14S12694   5.008   6.550   8.854 -2.4444 -2.0832 -1.9903
  120OSM   H14T12695   5.028   6.644   8.708  1.7661  2.0259  0.8620
  120OSM   C15S12696   4.826   6.662   8.819  0.3240  0.0759  0.2065
  120OSM   H15S12697   4.800   6.633   8.923 -0.5279 -1.2588 -0.3680
  120OSM   H15T12698   4.777   6.579   8.763  1.0423 -0.1636 -0.0718
  120OSM   C16S12699   4.761   6.785   8.768 -0.4907 -0.1736 -0.4992
  120OSM   H16S12700   4.826   6.874   8.782 -1.6437  0.7843 -1.0112
  120OSM   H16T12701   4.662   6.809   8.814 -0.1380  0.1073  0.1102
  120OSM   C17S12702   4.737   6.777   8.618 -0.3275  0.5092  0.5668
  120OSM   H17S12703   4.809   6.712   8.565  1.6418  1.0078  2.5748
  120OSM   H17T12704   4.727   6.876   8.568  0.1368  1.4985  2.4053
  120OSM   C18S12705   4.601   6.706   8.588 -0.4238 -0.4292 -0.5515
  120OSM   H18S12706   4.522   6.755   8.649 -0.2419  0.2393 -0.8425
  120OSM   H18T12707   4.607   6.603   8.629 -2.5552 -0.6351 -0.7058
  120OSM   H18U12708   4.586   6.700   8.478  3.0319  0.8732 -1.1623
  120OSM    C1F12709   5.157   6.765  10.246 -0.4089 -0.6349  0.3629
  120OSM     OF12710   5.211   6.688  10.323  0.0768 -0.2813 -0.0784
  120OSM    C2F12711   5.194   6.908  10.241 -0.6735 -0.0103 -0.4994
  120OSM    H2F12712   5.239   6.934  10.339 -0.7756 -5.7375  1.2622
  120OSM    H2G12713   5.103   6.968  10.220 -1.1584 -0.3133  0.6792
  120OSM    C3F12714   5.312   6.943  10.151 -0.2381  0.1926  0.5898
  120OSM    H3F12715   5.400   6.883  10.181  1.0718  0.6896 -2.0939
  120OSM    H3G12716   5.335   7.050  10.166  0.2010  0.0593  0.8529
  120OSM    C4F12717   5.292   6.899  10.004 -0.1831  0.4255  0.2460
  120OSM    H4F12718   5.185   6.917   9.978  0.2617  0.6970 -1.4543
  120OSM    H4G12719   5.304   6.790   9.985 -0.1986  0.7171 -1.5610
  120OSM    C5F12720   5.385   6.970   9.904 -0.5479 -1.0209  0.2263
  120OSM    H5F12721   5.485   6.925   9.893 -1.1573 -1.6412 -3.3174
  120OSM    H5G12722   5.396   7.079   9.925  2.4611 -0.9916 -1.2968
  120OSM    C6F12723   5.317   6.964   9.764  0.8006 -0.3517  0.4225
  120OSM    H6F12724   5.221   7.017   9.781  0.4921 -0.2862 -1.4112
  120OSM    H6G12725   5.307   6.855   9.744 -0.4337 -0.6002  2.2970
  120OSM    C7F12726   5.403   7.039   9.656  0.1764  0.2171 -0.4291
  120OSM    H7F12727   5.498   6.984   9.640  0.0823 -0.3878  1.0249
  120OSM    H7G12728   5.432   7.139   9.696 -0.4013  0.3585 -0.3676
  120OSM    C8F12729   5.329   7.060   9.524 -0.8943  0.8438 -0.0982
  120OSM    H8F12730   5.396   7.115   9.454 -1.4641 -0.4371 -1.7045
  120OSM    H8G12731   5.238   7.121   9.540 -0.9888  1.6383 -3.2650
  120OSM    C9F12732   5.299   6.931   9.449  0.2332  0.3145  0.2353
  120OSM    H9F12733   5.207   6.881   9.484  1.9925 -0.8537  3.4490
  120OSM   C10F12734   5.369   6.872   9.347 -0.0997  0.1595  0.1186
  120OSM   H10F12735   5.324   6.788   9.292 -0.3875  0.1815  0.3213
  120OSM   C11F12736   5.487   6.939   9.277  0.2386  0.0772  0.5867
  120OSM   H11F12737   5.564   6.862   9.260  0.7569  0.6371  0.3863
  120OSM   H11G12738   5.551   7.017   9.324  0.2292  1.3466 -1.4496
  120OSM   C12F12739   5.443   6.987   9.137  0.7295  0.4789 -0.1998
  120OSM   H12F12740   5.389   7.083   9.156  2.0070  1.1784 -0.0238
  120OSM   H12G12741   5.371   6.920   9.085 -0.3195  1.6964 -0.3602
  120OSM   C13F12742   5.557   7.033   9.045 -0.0561 -0.4562 -0.2051
  120OSM   H13F12743   5.611   6.950   8.994  2.5688  1.7745 -1.1696
  120OSM   H13G12744   5.644   7.079   9.097  0.8502 -0.1876 -1.9380
  120OSM   C14F12745   5.507   7.140   8.943 -0.3326 -0.6106 -0.0782
  120OSM   H14F12746   5.597   7.184   8.895 -1.1577  1.1010 -0.0726
  120OSM   H14G12747   5.453   7.211   9.009 -0.7211 -0.3269 -0.7005
  120OSM   C15F12748   5.414   7.094   8.834  0.6242 -0.0440  0.0012
  120OSM   H15F12749   5.325   7.040   8.872  0.8327 -0.1120  0.3857
  120OSM   H15G12750   5.473   7.022   8.773 -0.4962 -0.0742 -1.0641
  120OSM   C16F12751   5.359   7.212   8.752  0.7086 -0.9449  0.3885
  120OSM   H16F12752   5.437   7.282   8.716  0.9310 -1.1365  0.4970
  120OSM   H16G12753   5.285   7.271   8.809 -2.5228 -3.8155 -0.6408
  120OSM   C17F12754   5.294   7.163   8.624 -0.2143 -0.4951 -0.7141
  120OSM   H17F12755   5.200   7.107   8.642  1.4075 -3.3831 -0.7785
  120OSM   H17G12756   5.364   7.082   8.595  0.0642 -0.3495 -0.4430
  120OSM   C18F12757   5.296   7.253   8.506  0.3310  0.1768 -0.3105
  120OSM   H18F12758   5.216   7.327   8.528  1.0113 -0.2452  4.0827
  120OSM   H18G12759   5.256   7.204   8.414  1.2700 -0.3031 -0.4674
  120OSM   H18H12760   5.393   7.304   8.488 -0.1808  0.5693 -2.0973
  121OSM      N12761   3.965   3.130  10.798  0.1417  0.0607 -0.3409
  121OSM    C1512762   4.071   3.106  10.691  0.5418  0.7983 -0.0834
  121OSM   H15A12763   4.087   3.195  10.632 -1.3291  0.4299 -1.2047
  121OSM   H15B12764   4.049   3.028  10.620  1.8666 -0.9301  1.3678
  121OSM   H15C12765   4.166   3.092  10.741  0.1891  0.5903  0.5485
  121OSM    C1412766   3.857   3.207  10.739  0.0642 -0.1801  0.3004
  121OSM   H14A12767   3.820   3.173  10.643 -0.6062  0.7450  0.2276
  121OSM   H14B12768   3.881   3.311  10.725  0.2706 -0.2228  0.3338
  121OSM   H14C12769   3.774   3.214  10.808  1.2269 -1.4025  1.8797
  121OSM    C1312770   3.907   2.993  10.833  0.3466 -0.9917  0.5967
  121OSM   H13A12771   3.828   3.005  10.905  0.0157 -2.3579  0.4775
  121OSM   H13B12772   3.993   2.934  10.860  0.2048 -1.2961  0.3898
  121OSM   H13C12773   3.851   2.943  10.755 -1.9959  1.6633  0.5174
  121OSM    C1212774   4.018   3.189  10.921 -0.3565 -0.3699 -0.6807
  121OSM   H12A12775   3.944   3.215  10.995  0.5452  0.8436 -0.1821
  121OSM   H12B12776   4.069   3.281  10.895  2.8560 -2.1646 -1.0600
  121OSM    C1112777   4.140   3.115  10.996 -0.4929 -0.7523  0.3315
  121OSM   H11A12778   4.099   3.016  11.027 -1.5999 -0.3993  0.0223
  121OSM   H11B12779   4.167   3.172  11.087  1.6507 -0.5712 -0.3846
  121OSM      P12780   4.407   3.057  10.962  0.1233  0.0444  0.2289
  121OSM    O1312781   4.471   3.171  11.035 -0.2940 -0.1273 -0.1822
  121OSM    O1412782   4.407   2.921  11.026 -0.3999  1.0451 -0.9661
  121OSM    O1112783   4.475   3.039  10.817 -0.2892 -0.2817 -0.1710
  121OSM    O1212784   4.258   3.096  10.912  0.0016 -0.5722 -0.0116
  121OSM    C1S12785   4.471   2.916  10.750  0.1781  0.5314 -0.3235
  121OSM    H1S12786   4.364   2.893  10.733 -0.0154  2.2878 -1.5749
  121OSM    H1T12787   4.523   2.837  10.809  0.3512  1.6502  1.0303
  121OSM     NF12788   4.520   2.805  10.531 -0.2433  0.8496  0.5264
  121OSM    HNF12789   4.581   2.727  10.532 -1.1451  0.1351  0.5598
  121OSM    C2S12790   4.550   2.919  10.615 -0.0010 -1.2468  0.4803
  121OSM    H2S12791   4.512   3.014  10.572 -2.1373 -1.1607  2.3852
  121OSM    C3S12792   4.700   2.946  10.644  0.1444  0.1903  0.1047
  121OSM    H3S12793   4.737   2.857  10.699 -2.1758 -0.2282  1.0701
  121OSM     O312794   4.749   3.042  10.738  0.0138  0.1273 -0.5883
  121OSM    HO312795   4.676   3.081  10.785  1.3061  2.2945 -0.3111
  121OSM    C4S12796   4.761   2.962  10.510 -0.3286 -0.0114  0.2551
  121OSM    H4S12797   4.711   3.023  10.433 -2.7076  0.5375  2.1846
  121OSM    C5S12798   4.879   2.914  10.471 -0.2432  0.2711  0.5830
  121OSM    H5S12799   4.937   2.847  10.535 -0.3471  0.4868  0.9023
  121OSM    C6S12800   4.949   2.928  10.339  0.2084 -0.0962  0.2296
  121OSM    H6S12801   4.944   2.828  10.291  1.1639  0.0725 -0.2355
  121OSM    H6T12802   5.055   2.946  10.367  0.5924 -0.3999 -0.9848
  121OSM    C7S12803   4.894   3.034  10.245 -0.8790 -0.2539  0.1743
  121OSM    H7S12804   4.892   3.128  10.304  3.6396  0.1201 -0.0698
  121OSM    H7T12805   4.789   3.015  10.214 -0.6705 -0.1301 -0.6227
  121OSM    C8S12806   4.977   3.053  10.117  0.1118  0.3847 -0.2463
  121OSM    H8S12807   5.084   3.051  10.147 -0.7004 -0.8069  2.6790
  121OSM    H8T12808   4.954   3.152  10.071 -0.2659 -0.3270 -1.6220
  121OSM    C9S12809   4.957   2.945  10.018 -0.0222 -0.1363  0.8301
  121OSM    H9S12810   4.848   2.922  10.027  0.2708 -1.0215  2.1409
  121OSM    H9T12811   5.014   2.851  10.031 -0.2372 -0.7963 -2.6208
  121OSM   C10S12812   4.954   2.996   9.871 -0.7268 -0.5844  0.5034
  121OSM   H10S12813   5.053   3.035   9.840 -1.6715  1.1736 -0.3646
  121OSM   H10T12814   4.888   3.084   9.856  1.5957  1.3216  1.1912
  121OSM   C11S12815   4.907   2.893   9.766 -0.3605  0.0147 -0.0857
  121OSM   H11S12816   4.796   2.892   9.769 -0.3437  0.2423  0.6404
  121OSM   H11T12817   4.935   2.792   9.802 -1.6089 -0.1513  0.4415
  121OSM   C12S12818   4.972   2.911   9.627  0.2331 -0.6232 -1.0882
  121OSM   H12S12819   5.083   2.906   9.634  0.0941 -2.1444  0.5699
  121OSM   H12T12820   4.937   3.007   9.584  0.8856  0.5305  0.8896
  121OSM   C13S12821   4.939   2.809   9.518  0.8025 -0.1313  0.7204
  121OSM   H13S12822   4.833   2.809   9.487  1.6892  0.7687 -2.4110
  121OSM   H13T12823   4.949   2.705   9.554 -1.1979 -0.3541  0.6800
  121OSM   C14S12824   5.028   2.829   9.393 -0.0993  0.2770  0.4977
  121OSM   H14S12825   5.136   2.832   9.421 -0.5172  0.3433  2.1790
  121OSM   H14T12826   5.010   2.931   9.353 -0.7395 -0.5683 -1.4198
  121OSM   C15S12827   5.003   2.733   9.274 -0.2170 -0.2029  0.4084
  121OSM   H15S12828   4.914   2.777   9.225 -1.1229  1.2008  3.2349
  121OSM   H15T12829   4.991   2.627   9.305  0.4955 -0.0384  1.2822
  121OSM   C16S12830   5.115   2.731   9.177 -0.9460  0.6760 -0.0001
  121OSM   H16S12831   5.189   2.663   9.224  1.1705  0.7951 -3.0198
  121OSM   H16T12832   5.162   2.831   9.163 -0.9136  0.7417  0.5732
  121OSM   C17S12833   5.091   2.675   9.032 -0.1325  0.0025 -0.1985
  121OSM   H17S12834   5.057   2.570   9.044  0.9191 -0.2132  0.9650
  121OSM   H17T12835   5.189   2.665   8.979 -0.9680 -0.4097 -1.6879
  121OSM   C18S12836   4.996   2.746   8.948 -0.0829  0.0904  1.0205
  121OSM   H18S12837   4.899   2.747   9.003  0.0496 -1.1349  1.2882
  121OSM   H18T12838   4.984   2.696   8.849  1.4102 -0.7719  1.2671
  121OSM   H18U12839   5.024   2.851   8.923  2.6674 -1.2031 -1.5983
  121OSM    C1F12840   4.400   2.797  10.464 -0.7899 -0.4134  0.1244
  121OSM     OF12841   4.311   2.877  10.481 -0.0461 -0.7141  0.0756
  121OSM    C2F12842   4.389   2.679  10.372  0.4022  0.0866  0.5280
  121OSM    H2F12843   4.437   2.588  10.415  0.2716 -0.6480 -0.8417
  121OSM    H2G12844   4.451   2.699  10.282  1.7012 -1.8597  0.9482
  121OSM    C3F12845   4.239   2.668  10.335  0.5703  0.3667 -0.4959
  121OSM    H3F12846   4.191   2.763  10.305  0.3710  0.9383  1.5479
  121OSM    H3G12847   4.191   2.633  10.429 -0.3027 -0.0489 -1.0919
  121OSM    C4F12848   4.228   2.577  10.217 -0.2890  0.6767  0.1002
  121OSM    H4F12849   4.223   2.475  10.260  1.6779 -0.8534 -3.1029
  121OSM    H4G12850   4.312   2.570  10.145  0.4410  0.2947  0.9768
  121OSM    C5F12851   4.095   2.594  10.141 -0.9286 -0.5707 -0.0463
  121OSM    H5F12852   4.086   2.694  10.095  1.7744 -0.5710 -0.6637
  121OSM    H5G12853   4.009   2.579  10.209 -0.0380 -0.2169  1.1685
  121OSM    C6F12854   4.075   2.496  10.026  0.2893  0.5174 -0.5730
  121OSM    H6F12855   3.973   2.510   9.984 -0.1711 -0.9722  0.0113
  121OSM    H6G12856   4.092   2.398  10.075  0.3037  1.1817  0.7791
  121OSM    C7F12857   4.176   2.505   9.913  0.3616 -0.1149 -0.0143
  121OSM    H7F12858   4.150   2.432   9.833  0.1475  0.9104 -0.8944
  121OSM    H7G12859   4.267   2.468   9.963  0.6367 -0.0022 -0.4293
  121OSM    C8F12860   4.205   2.649   9.853 -0.2571 -0.4794  0.6015
  121OSM    H8F12861   4.230   2.713   9.940  1.0187 -0.8514  0.5212
  121OSM    H8G12862   4.112   2.689   9.808  1.0590  2.1977  0.1461
  121OSM    C9F12863   4.326   2.650   9.758 -0.9564  0.0416  0.4508
  121OSM    H9F12864   4.424   2.680   9.796 -0.5931 -2.2139  1.3185
  121OSM   C10F12865   4.323   2.597   9.633 -0.3071 -0.2566 -0.0952
  121OSM   H10F12866   4.422   2.591   9.584 -1.0424  1.1990 -1.8088
  121OSM   C11F12867   4.203   2.535   9.567 -0.2902  0.1538 -0.9180
  121OSM   H11F12868   4.110   2.560   9.624  1.4257 -0.3699  2.2318
  121OSM   H11G12869   4.221   2.428   9.545 -0.3573  0.5314 -2.9336
  121OSM   C12F12870   4.183   2.588   9.426 -0.1799  0.4006 -0.1084
  121OSM   H12F12871   4.168   2.698   9.414 -1.5003  0.0373 -2.0111
  121OSM   H12G12872   4.086   2.545   9.394 -0.0976 -0.2511  0.5103
  121OSM   C13F12873   4.296   2.552   9.323  0.3253 -0.2626  0.7974
  121OSM   H13F12874   4.304   2.442   9.308  4.2410  0.0582  0.2059
  121OSM   H13G12875   4.390   2.591   9.367  0.1423 -0.1933  1.1250
  121OSM   C14F12876   4.267   2.632   9.190  0.4531  0.3481 -0.4655
  121OSM   H14F12877   4.311   2.732   9.208  2.3405 -0.4049 -0.7427
  121OSM   H14G12878   4.159   2.636   9.164  0.2550 -0.3001  0.2375
  121OSM   C15F12879   4.334   2.570   9.075 -0.6515  0.4832 -0.5777
  121OSM   H15F12880   4.310   2.462   9.062 -1.9014  0.8631 -1.5393
  121OSM   H15G12881   4.443   2.586   9.092 -1.2930  1.9145  2.3498
  121OSM   C16F12882   4.296   2.640   8.946  0.6967 -0.1773  0.5828
  121OSM   H16F12883   4.293   2.750   8.953  0.1861  0.0067 -2.0386
  121OSM   H16G12884   4.197   2.604   8.911 -0.0014  1.5097  0.7774
  121OSM   C17F12885   4.395   2.609   8.829  0.3003  0.1059 -0.2341
  121OSM   H17F12886   4.495   2.634   8.869 -0.7800  1.1775  1.8948
  121OSM   H17G12887   4.372   2.674   8.742 -1.2728 -2.1479 -1.5585
  121OSM   C18F12888   4.406   2.463   8.787 -0.3246 -0.6911 -0.0014
  121OSM   H18F12889   4.328   2.432   8.714 -0.7329 -1.4063  0.7363
  121OSM   H18G12890   4.407   2.398   8.878 -3.0055 -1.6412 -0.6195
  121OSM   H18H12891   4.502   2.459   8.731 -0.6859 -0.1216 -0.6519
  122OSM      N12892   5.222   0.655  11.162 -0.1172 -0.1011  0.0501
  122OSM    C1512893   5.078   0.689  11.164 -0.5567 -0.3878 -0.6451
  122OSM   H15A12894   5.058   0.758  11.083  0.3858  2.5368  1.5111
  122OSM   H15B12895   5.043   0.717  11.262 -1.2318  1.6944 -1.4461
  122OSM   H15C12896   5.010   0.606  11.150  1.2387 -1.9293 -0.4729
  122OSM    C1412897   5.294   0.781  11.191 -0.9830  0.1687 -0.6696
  122OSM   H14A12898   5.401   0.773  11.183 -1.0015  0.1310 -0.8722
  122OSM   H14B12899   5.264   0.827  11.284  1.1531 -2.7696  1.5798
  122OSM   H14C12900   5.259   0.855  11.121 -0.9857 -1.0829 -2.0268
  122OSM    C1312901   5.260   0.556  11.267 -0.4855  0.1860 -0.2012
  122OSM   H13A12902   5.234   0.596  11.364 -2.4660 -0.0938 -0.5965
  122OSM   H13B12903   5.368   0.549  11.266 -0.6481 -2.8874 -2.0781
  122OSM   H13C12904   5.204   0.464  11.270 -0.5274  0.2305  0.6627
  122OSM    C1212905   5.272   0.602  11.018 -0.2051 -0.9205  0.1843
  122OSM   H12A12906   5.213   0.517  10.987 -2.1709  0.4445  0.0934
  122OSM   H12B12907   5.373   0.575  11.046 -0.0494 -0.0809  0.4475
  122OSM    C1112908   5.255   0.696  10.904 -0.8218  0.1917  0.7632
  122OSM   H11A12909   5.316   0.670  10.814 -2.5134  1.5653 -0.8235
  122OSM   H11B12910   5.296   0.797  10.926  0.4989 -0.5834  1.9042
  122OSM      P12911   5.053   0.831  10.792  0.4740  0.0035 -0.0895
  122OSM    O1312912   4.929   0.780  10.731  0.5489  0.1850 -0.1016
  122OSM    O1412913   5.035   0.926  10.902 -0.0605 -0.7429  0.4169
  122OSM    O1112914   5.163   0.892  10.686  0.3965 -0.3122 -0.4677
  122OSM    O1212915   5.119   0.704  10.861 -0.6978 -0.2161 -0.0869
  122OSM    C1S12916   5.206   0.805  10.583  0.2697  0.2695 -0.3972
  122OSM    H1S12917   5.213   0.699  10.615  0.4320  0.2250 -0.5791
  122OSM    H1T12918   5.310   0.836  10.561 -0.0977  0.2133 -2.3497
  122OSM     NF12919   5.160   0.713  10.352  0.4931  0.2591 -0.2192
  122OSM    HNF12920   5.239   0.736  10.295  1.3232 -1.1182  0.3295
  122OSM    C2S12921   5.127   0.821  10.449 -0.2418  0.0431  0.1792
  122OSM    H2S12922   5.017   0.810  10.463 -0.4637  1.7415 -0.1132
  122OSM    C3S12923   5.148   0.966  10.397  0.8746 -0.5549  0.1700
  122OSM    H3S12924   5.257   0.985  10.402  0.5562  1.0102  1.8021
  122OSM     O312925   5.085   1.066  10.483 -0.2624 -0.6389  0.3188
  122OSM    HO312926   5.052   1.017  10.558 -0.3035  0.7358  1.2250
  122OSM    C4S12927   5.091   0.980  10.257  0.9937  0.4580  0.1904
  122OSM    H4S12928   4.982   0.966  10.258  1.2529 -1.8030 -1.0144
  122OSM    C5S12929   5.158   1.007  10.140  0.3683 -0.5218 -0.3955
  122OSM    H5S12930   5.267   1.020  10.146  0.2281  0.3737  0.3946
  122OSM    C6S12931   5.099   1.034  10.009 -0.0526 -0.8028  0.5689
  122OSM    H6S12932   5.142   0.968   9.931 -0.9382 -3.0404  1.9361
  122OSM    H6T12933   5.111   1.143   9.991 -2.6722 -0.5053  0.4911
  122OSM    C7S12934   4.948   1.020  10.007 -0.2935 -1.0357  0.4169
  122OSM    H7S12935   4.902   1.074  10.093  2.1110 -0.2707  1.2565
  122OSM    H7T12936   4.919   0.914  10.026  0.4063 -1.2489  0.2840
  122OSM    C8S12937   4.894   1.094   9.886 -0.3880  0.2067 -0.4426
  122OSM    H8S12938   4.915   1.203   9.889 -2.0399  0.5024  1.8768
  122OSM    H8T12939   4.783   1.088   9.893 -0.2241 -2.0485  0.5323
  122OSM    C9S12940   4.938   1.038   9.747 -0.1886  0.0941 -0.2302
  122OSM    H9S12941   4.893   0.941   9.717 -0.9386 -0.1508  1.6422
  122OSM    H9T12942   5.046   1.014   9.741 -0.1983  0.3490 -1.5788
  122OSM   C10S12943   4.895   1.143   9.640  0.1560 -0.7637 -0.2366
  122OSM   H10S12944   4.968   1.226   9.629 -0.8388  0.1762  0.1310
  122OSM   H10T12945   4.804   1.193   9.680 -0.4602 -2.5788  0.7181
  122OSM   C11S12946   4.880   1.084   9.495  0.4127 -0.2598  0.5367
  122OSM   H11S12947   4.984   1.051   9.476  1.0724  1.8391  0.4663
  122OSM   H11T12948   4.865   1.174   9.432  0.2371  0.7858  2.0466
  122OSM   C12S12949   4.757   0.990   9.468 -0.6755  0.8583 -0.2432
  122OSM   H12S12950   4.670   1.058   9.479  0.3714  1.9553  1.5625
  122OSM   H12T12951   4.771   0.919   9.553 -1.2712  1.0665  0.0333
  122OSM   C13S12952   4.751   0.911   9.339 -0.3549  0.0159  0.8305
  122OSM   H13S12953   4.835   0.839   9.337 -0.4569 -0.0769 -0.0366
  122OSM   H13T12954   4.771   0.981   9.255  0.8974  1.1872  2.0617
  122OSM   C14S12955   4.618   0.834   9.328  0.0902 -0.5982  0.1623
  122OSM   H14S12956   4.528   0.886   9.366 -0.9509 -2.8432  0.8767
  122OSM   H14T12957   4.636   0.755   9.405  1.4142 -0.9422 -0.4880
  122OSM   C15S12958   4.596   0.772   9.198 -0.0422 -0.2285  0.2837
  122OSM   H15S12959   4.699   0.742   9.171 -0.3910 -0.7572 -0.4715
  122OSM   H15T12960   4.560   0.845   9.123 -0.7338 -0.3749  0.4639
  122OSM   C16S12961   4.503   0.652   9.200  0.2594  0.5280  0.0173
  122OSM   H16S12962   4.543   0.561   9.249 -0.4955 -0.8646 -1.8630
  122OSM   H16T12963   4.479   0.620   9.096 -1.8671  0.3312  0.5437
  122OSM   C17S12964   4.361   0.684   9.253 -0.0257 -0.7544  0.2828
  122OSM   H17S12965   4.318   0.772   9.202  1.5281  0.0217  0.2859
  122OSM   H17T12966   4.346   0.710   9.360  0.3197 -0.8249  0.3498
  122OSM   C18S12967   4.262   0.561   9.234  0.4485 -0.3385  0.7769
  122OSM   H18S12968   4.302   0.469   9.281  0.1296 -0.0399  1.6435
  122OSM   H18T12969   4.240   0.529   9.129  1.4863 -0.0894  0.4852
  122OSM   H18U12970   4.158   0.577   9.272 -0.3308  0.6307 -1.6273
  122OSM    C1F12971   5.110   0.589  10.361  0.1781 -1.2303 -0.1296
  122OSM     OF12972   5.044   0.562  10.458 -0.0108 -1.1334  0.7876
  122OSM    C2F12973   5.143   0.488  10.262  0.2016 -0.4895 -0.2451
  122OSM    H2F12974   5.178   0.402  10.324  0.9086  1.4692  2.1417
  122OSM    H2G12975   5.224   0.524  10.196 -0.9107  2.2149 -0.1889
  122OSM    C3F12976   5.021   0.454  10.169 -0.1474  0.3709 -0.3956
  122OSM    H3F12977   4.926   0.430  10.221 -1.6030  0.8993 -2.7305
  122OSM    H3G12978   5.057   0.360  10.123  0.1143 -0.9644  2.4349
  122OSM    C4F12979   4.988   0.567  10.069 -0.5442  0.2075 -0.1980
  122OSM    H4F12980   4.946   0.662  10.107 -0.6899  0.2019 -0.3442
  122OSM    H4G12981   4.903   0.533  10.006 -1.0613  1.6856 -0.2929
  122OSM    C5F12982   5.099   0.594   9.966  0.6221 -0.2335 -0.9340
  122OSM    H5F12983   5.154   0.500   9.945 -1.4521 -2.2163  2.1902
  122OSM    H5G12984   5.171   0.663  10.014 -0.9728 -0.6606  2.2192
  122OSM    C6F12985   5.058   0.644   9.830  0.5067 -0.1369 -0.3057
  122OSM    H6F12986   4.988   0.729   9.845 -1.8734 -2.3520  1.5572
  122OSM    H6G12987   4.997   0.561   9.788  0.4233 -1.2404  1.9120
  122OSM    C7F12988   5.175   0.687   9.746  0.3462 -0.4839  0.0664
  122OSM    H7F12989   5.241   0.599   9.740  1.9840  0.8279 -1.5146
  122OSM    H7G12990   5.231   0.771   9.792 -0.8696  1.6159 -2.1957
  122OSM    C8F12991   5.131   0.738   9.609 -0.5148  0.1450  0.1412
  122OSM    H8F12992   5.220   0.750   9.544 -1.4351  3.3565 -0.6495
  122OSM    H8G12993   5.085   0.840   9.614  2.9447  1.7345  1.0733
  122OSM    C9F12994   5.042   0.639   9.545 -0.2080 -0.2010  0.1286
  122OSM    H9F12995   4.938   0.629   9.579  0.6833  0.5361  3.2035
  122OSM   C10F12996   5.071   0.559   9.441  0.1855 -1.1906  0.4080
  122OSM   H10F12997   4.996   0.483   9.416 -0.7976 -0.1202  0.0168
  122OSM   C11F12998   5.193   0.555   9.353 -0.0433 -0.2806  0.3548
  122OSM   H11F12999   5.288   0.518   9.399  0.8970  1.2096 -0.3414
  122OSM   H11G13000   5.215   0.660   9.323  2.1151 -0.5522  0.8383
  122OSM   C12F13001   5.175   0.476   9.220  0.1009 -0.3505 -0.5794
  122OSM   H12F13002   5.168   0.369   9.249  0.3784 -0.1007  0.4041
  122OSM   H12G13003   5.270   0.498   9.166  2.6208 -2.1798  2.9195
  122OSM   C13F13004   5.057   0.522   9.131 -0.6591 -0.7108  0.1551
  122OSM   H13F13005   5.052   0.633   9.127  0.2413 -0.7087 -1.8800
  122OSM   H13G13006   4.964   0.485   9.178 -2.3259 -0.0914 -2.5608
  122OSM   C14F13007   5.063   0.471   8.985 -0.3476  0.6111 -0.1523
  122OSM   H14F13008   5.138   0.389   8.987 -0.5012  0.4931  1.1629
  122OSM   H14G13009   5.099   0.551   8.916 -0.9319  2.6747  1.8947
  122OSM   C15F13010   4.932   0.413   8.923  0.4386  0.3683 -0.0963
  122OSM   H15F13011   4.892   0.332   8.987  2.4561  0.0665  0.8248
  122OSM   H15G13012   4.961   0.362   8.829 -0.4219  0.5320 -0.4583
  122OSM   C16F13013   4.825   0.528   8.895 -0.4439 -0.2646  0.2061
  122OSM   H16F13014   4.812   0.576   8.994  2.5341 -1.3219  1.1770
  122OSM   H16G13015   4.736   0.475   8.855  0.3823 -1.3965 -0.1572
  122OSM   C17F13016   4.862   0.630   8.792  0.0058 -0.3717  1.1556
  122OSM   H17F13017   4.877   0.579   8.695 -0.9632  1.6854 -0.0965
  122OSM   H17G13018   4.954   0.688   8.817  0.1606 -0.4290  0.7259
  122OSM   C18F13019   4.751   0.738   8.772  0.6725  0.4327  0.6428
  122OSM   H18F13020   4.664   0.691   8.722  1.2401 -1.6496  1.5873
  122OSM   H18G13021   4.772   0.817   8.697 -0.3702 -0.7986 -0.9607
  122OSM   H18H13022   4.721   0.774   8.873 -1.1648 -0.3438  0.3986
  123OSM      N13023   3.285   5.606   5.863  0.1406  0.1514  0.3073
  123OSM    C1513024   3.417   5.650   5.805  0.3856  0.0374  0.2916
  123OSM   H15A13025   3.415   5.619   5.702 -2.2251  0.4251  0.1822
  123OSM   H15B13026   3.496   5.586   5.841  2.2702  1.6586 -0.8632
  123OSM   H15C13027   3.442   5.755   5.803 -0.0346  0.1404  0.2615
  123OSM    C1413028   3.185   5.685   5.791  0.2357 -0.2078  0.1858
  123OSM   H14A13029   3.088   5.648   5.822 -0.3846  1.8728  0.7902
  123OSM   H14B13030   3.211   5.682   5.686  1.6139  0.6807  0.4819
  123OSM   H14C13031   3.185   5.787   5.824  0.9788 -0.7166  1.7929
  123OSM    C1313032   3.272   5.464   5.824  0.5763  0.4534 -0.4029
  123OSM   H13A13033   3.344   5.394   5.863 -2.6311 -1.7648  1.7855
  123OSM   H13B13034   3.277   5.459   5.716 -2.8649  2.0043 -0.7070
  123OSM   H13C13035   3.177   5.419   5.847 -0.6747  1.7943 -2.7222
  123OSM    C1213036   3.277   5.630   6.014  0.3097 -0.3422 -0.5535
  123OSM   H12A13037   3.302   5.733   6.033  0.0481 -0.5719  1.1562
  123OSM   H12B13038   3.347   5.572   6.073 -0.4081  0.3390  1.0003
  123OSM    C1113039   3.146   5.613   6.091 -0.4840 -0.5417  1.0319
  123OSM   H11A13040   3.079   5.693   6.054 -1.0945 -1.7167 -0.4581
  123OSM   H11B13041   3.166   5.635   6.198  3.8918 -1.5228  0.5004
  123OSM      P13042   3.123   5.354   6.174  0.4972 -0.0196 -0.5894
  123OSM    O1313043   3.006   5.264   6.171 -0.1534 -0.3599 -0.6384
  123OSM    O1413044   3.247   5.287   6.130  0.4849 -0.3230 -0.1523
  123OSM    O1113045   3.134   5.414   6.324 -0.1363 -0.7064  1.0767
  123OSM    O1213046   3.098   5.480   6.075  0.6296 -0.5458 -0.2708
  123OSM    C1S13047   3.014   5.496   6.360 -0.6010 -0.1014  0.0991
  123OSM    H1S13048   2.918   5.452   6.324 -0.3838  0.3244 -1.0499
  123OSM    H1T13049   3.026   5.597   6.316  0.6680 -0.2979 -0.0339
  123OSM     NF13050   2.844   5.534   6.542 -0.1831  0.0839 -0.1231
  123OSM    HNF13051   2.834   5.626   6.578  1.4892  0.5864 -0.8945
  123OSM    C2S13052   2.982   5.502   6.514  0.2207 -0.1806  0.5739
  123OSM    H2S13053   3.000   5.404   6.563 -2.1222 -0.1656  1.5373
  123OSM    C3S13054   3.080   5.606   6.581  0.2226 -0.1238  0.5913
  123OSM    H3S13055   3.049   5.703   6.535 -2.0386  0.8585  3.9891
  123OSM     O313056   3.214   5.574   6.542 -0.1512  0.3602  0.0008
  123OSM    HO313057   3.217   5.483   6.513  1.2012  0.2747  0.3715
  123OSM    C4S13058   3.056   5.615   6.724  0.0024 -0.4494 -0.1238
  123OSM    H4S13059   2.965   5.668   6.757 -0.8389 -0.3992 -2.4258
  123OSM    C5S13060   3.130   5.554   6.818  0.5346  0.1184 -0.3908
  123OSM    H5S13061   3.216   5.495   6.783  1.0302  0.7550 -0.2629
  123OSM    C6S13062   3.107   5.553   6.970 -0.4498 -0.4520  0.9147
  123OSM    H6S13063   3.128   5.659   6.996  1.0418 -0.6553  0.6045
  123OSM    H6T13064   3.175   5.483   7.025  1.3988 -1.1259 -2.0796
  123OSM    C7S13065   2.962   5.528   7.015  0.9659 -0.6620  0.3851
  123OSM    H7S13066   2.916   5.458   6.942 -0.3368  2.2385 -1.6711
  123OSM    H7T13067   2.892   5.614   7.002  0.4134 -1.1839 -0.1536
  123OSM    C8S13068   2.964   5.484   7.158  0.1140  0.0166 -0.4423
  123OSM    H8S13069   3.011   5.385   7.171 -0.9179 -0.1270  2.4358
  123OSM    H8T13070   2.863   5.452   7.189 -0.1410  1.2459  0.0477
  123OSM    C9S13071   3.014   5.589   7.260  0.2233  0.3019  0.2425
  123OSM    H9S13072   2.938   5.670   7.262  1.7498  1.7501  0.9234
  123OSM    H9T13073   3.108   5.628   7.215 -1.0824  0.1013 -2.8362
  123OSM   C10S13074   3.050   5.518   7.388  0.0085  0.7125 -0.9836
  123OSM   H10S13075   3.139   5.453   7.373 -0.1605 -0.5191  2.6221
  123OSM   H10T13076   2.969   5.449   7.422  3.0688 -2.5564  0.0132
  123OSM   C11S13077   3.071   5.621   7.501 -0.0127 -0.1333  0.6489
  123OSM   H11S13078   2.983   5.688   7.495  0.4283  0.6119  2.4014
  123OSM   H11T13079   3.161   5.687   7.500  0.5054 -0.7653  2.6443
  123OSM   C12S13080   3.070   5.553   7.632 -0.1598  0.1976 -0.2967
  123OSM   H12S13081   3.154   5.480   7.639  0.0222  0.5869  1.9185
  123OSM   H12T13082   2.984   5.485   7.651  0.1421 -0.8774 -2.5353
  123OSM   C13S13083   3.068   5.658   7.741 -0.3387 -0.0224 -0.1869
  123OSM   H13S13084   2.974   5.716   7.725 -0.2199  0.1728 -0.1868
  123OSM   H13T13085   3.158   5.722   7.726 -1.1481  0.6868 -2.2404
  123OSM   C14S13086   3.073   5.597   7.890 -0.4431  0.5418  0.0086
  123OSM   H14S13087   3.145   5.513   7.885  0.5153  1.4919 -3.3295
  123OSM   H14T13088   2.970   5.559   7.905  0.6474 -1.9141  1.5434
  123OSM   C15S13089   3.114   5.697   7.994 -0.4733  0.0364 -0.3030
  123OSM   H15S13090   3.166   5.777   7.936 -0.6516  1.1630  1.0871
  123OSM   H15T13091   3.196   5.647   8.050  0.6971  1.4488 -0.7090
  123OSM   C16S13092   3.011   5.734   8.095  0.3300 -1.0709  0.0181
  123OSM   H16S13093   2.923   5.791   8.057 -0.8655 -0.7567  3.1114
  123OSM   H16T13094   3.058   5.805   8.166  1.2932  1.7818 -3.3303
  123OSM   C17S13095   2.957   5.615   8.182 -0.5120 -0.3064 -0.1974
  123OSM   H17S13096   3.045   5.573   8.235 -1.3638 -0.1332  1.3724
  123OSM   H17T13097   2.908   5.531   8.127 -0.5773  0.3149 -1.1115
  123OSM   C18S13098   2.868   5.665   8.292  0.5543 -0.7840 -0.6548
  123OSM   H18S13099   2.770   5.701   8.253  1.2123 -1.1367 -2.7081
  123OSM   H18T13100   2.929   5.745   8.338 -0.8677  0.7021 -1.2809
  123OSM   H18U13101   2.853   5.584   8.367 -0.9762 -0.2640 -0.3739
  123OSM    C1F13102   2.741   5.456   6.525  0.5382  0.8263  0.4026
  123OSM     OF13103   2.758   5.337   6.485 -0.5544  0.8672  0.5212
  123OSM    C2F13104   2.607   5.524   6.530 -0.2760 -0.0694  0.5069
  123OSM    H2F13105   2.560   5.508   6.431  2.0278 -1.1055 -0.4309
  123OSM    H2G13106   2.630   5.631   6.551 -2.1935  1.2066 -3.3150
  123OSM    C3F13107   2.526   5.464   6.645  0.8799  0.2988 -0.6952
  123OSM    H3F13108   2.539   5.354   6.646  2.6942  0.4937 -0.6100
  123OSM    H3G13109   2.417   5.484   6.641  0.3810 -2.1322 -0.1024
  123OSM    C4F13110   2.575   5.500   6.792  0.2164 -0.8711  0.7542
  123OSM    H4F13111   2.539   5.604   6.804  2.1951  0.0124 -0.5643
  123OSM    H4G13112   2.686   5.500   6.798  0.3688  1.7380 -0.9546
  123OSM    C5F13113   2.515   5.415   6.899  0.3988  0.5044 -0.5601
  123OSM    H5F13114   2.531   5.309   6.869 -0.1404 -0.2480  1.7445
  123OSM    H5G13115   2.404   5.410   6.897  0.3847  0.8338 -0.6365
  123OSM    C6F13116   2.571   5.443   7.043 -0.3264  0.5903 -0.3277
  123OSM    H6F13117   2.677   5.476   7.045  0.1031 -0.7293 -0.8047
  123OSM    H6G13118   2.566   5.355   7.111 -0.7716  0.7565 -0.1494
  123OSM    C7F13119   2.495   5.561   7.124  0.0481 -0.2266  0.1861
  123OSM    H7F13120   2.389   5.561   7.091 -0.3093  1.1254  1.2594
  123OSM    H7G13121   2.528   5.663   7.094  0.1698  0.0134  1.1260
  123OSM    C8F13122   2.496   5.533   7.279 -1.0153 -0.0014 -0.1548
  123OSM    H8F13123   2.461   5.433   7.311 -1.5466  0.9150  2.2103
  123OSM    H8G13124   2.418   5.606   7.310 -0.8424  0.4283 -0.7170
  123OSM    C9F13125   2.630   5.556   7.346 -0.1489  0.5851 -0.3835
  123OSM    H9F13126   2.696   5.472   7.317  1.3652  1.6941 -0.2265
  123OSM   C10F13127   2.669   5.652   7.421 -0.5839  0.0733 -0.0031
  123OSM   H10F13128   2.775   5.680   7.421 -0.6223  0.2220  0.7763
  123OSM   C11F13129   2.591   5.775   7.466 -0.5592 -0.3889  0.0882
  123OSM   H11F13130   2.507   5.800   7.398  0.2398  0.4589 -0.5960
  123OSM   H11G13131   2.664   5.858   7.454  0.8468 -1.4420  1.1747
  123OSM   C12F13132   2.539   5.782   7.609  0.0801  0.4558  0.0045
  123OSM   H12F13133   2.490   5.683   7.618  0.3315  0.0740 -2.4074
  123OSM   H12G13134   2.455   5.854   7.617 -0.7447 -0.3015 -1.5933
  123OSM   C13F13135   2.650   5.790   7.721  0.8479  0.4725  0.5197
  123OSM   H13F13136   2.734   5.848   7.677  1.8878 -1.5844 -0.2984
  123OSM   H13G13137   2.681   5.683   7.722  1.7174  0.7062 -0.9100
  123OSM   C14F13138   2.582   5.825   7.849 -0.7711 -0.2602  0.4040
  123OSM   H14F13139   2.626   5.761   7.928 -2.5892 -0.2404  1.4579
  123OSM   H14G13140   2.477   5.792   7.839  0.0244 -2.4609 -1.0634
  123OSM   C15F13141   2.607   5.969   7.882 -0.5437 -0.6906 -0.2411
  123OSM   H15F13142   2.595   6.033   7.792  2.8144  1.2258  0.5826
  123OSM   H15G13143   2.718   5.969   7.894 -0.5894  0.2863  0.2148
  123OSM   C16F13144   2.546   6.030   8.014 -0.7077 -0.4167  0.7942
  123OSM   H16F13145   2.438   6.056   8.009 -0.7506 -0.7718 -0.2092
  123OSM   H16G13146   2.604   6.121   8.040 -3.3385  1.4956  0.1644
  123OSM   C17F13147   2.548   5.943   8.139  0.0187  0.5652  0.4041
  123OSM   H17F13148   2.648   5.894   8.140 -0.3978 -0.2860  0.7308
  123OSM   H17G13149   2.479   5.858   8.124  0.4429  0.4409 -0.8722
  123OSM   C18F13150   2.513   6.012   8.274  0.2886 -0.1497 -0.6917
  123OSM   H18F13151   2.603   6.072   8.298 -0.9102  0.6331  2.0115
  123OSM   H18G13152   2.496   5.937   8.353  2.9707  1.3554  1.3914
  123OSM   H18H13153   2.419   6.071   8.266  1.0985  1.8700  3.3313
  124OSM      N13154   5.328   3.124   6.412  0.4229 -0.0138 -0.1173
  124OSM    C1513155   5.244   3.066   6.302 -0.5572  0.1670  0.0594
  124OSM   H15A13156   5.251   2.959   6.315 -0.3741  0.1262 -0.3820
  124OSM   H15B13157   5.289   3.085   6.206 -2.5415  0.2500 -0.8819
  124OSM   H15C13158   5.141   3.098   6.295 -0.6484  0.5459  2.6546
  124OSM    C1413159   5.295   3.062   6.554 -0.0551 -0.1732 -0.5278
  124OSM   H14A13160   5.207   3.110   6.593  0.2092  0.6232 -0.8860
  124OSM   H14B13161   5.373   3.086   6.625  0.4935 -0.5078 -1.0076
  124OSM   H14C13162   5.277   2.957   6.537  0.1267 -0.1895 -0.6233
  124OSM    C1313163   5.471   3.094   6.384  0.1174  0.6076 -0.2593
  124OSM   H13A13164   5.495   2.989   6.390  1.9172  1.0459  0.3917
  124OSM   H13B13165   5.537   3.146   6.451 -1.4959 -0.8759  2.5975
  124OSM   H13C13166   5.496   3.133   6.286 -3.5983  1.2150 -1.0354
  124OSM    C1213167   5.310   3.277   6.418 -0.0809  0.0185 -0.2351
  124OSM   H12A13168   5.353   3.322   6.506  0.2887  1.0106 -0.9164
  124OSM   H12B13169   5.204   3.298   6.422 -0.1842 -0.3974 -0.6351
  124OSM    C1113170   5.352   3.350   6.287  0.3084  0.1399 -0.6082
  124OSM   H11A13171   5.298   3.304   6.201  2.2645 -0.2990 -1.6278
  124OSM   H11B13172   5.461   3.343   6.266  0.4648 -2.0379  0.7974
  124OSM      P13173   5.186   3.553   6.295  0.3319  0.1877  0.0328
  124OSM    O1313174   5.192   3.694   6.262  0.2112  0.0533 -0.3300
  124OSM    O1413175   5.094   3.470   6.208 -0.4454  0.1071 -0.3318
  124OSM    O1113176   5.146   3.533   6.447  0.1374  0.0754  1.0697
  124OSM    O1213177   5.329   3.491   6.301  0.2172  0.1926 -0.2791
  124OSM    C1S13178   5.237   3.582   6.548  0.2703  0.3983 -0.6572
  124OSM    H1S13179   5.284   3.677   6.514 -0.1464 -0.3285 -3.3632
  124OSM    H1T13180   5.323   3.513   6.550  0.2801  0.4195  1.9640
  124OSM     NF13181   5.261   3.686   6.773 -0.0028  0.3977 -0.7015
  124OSM    HNF13182   5.336   3.633   6.812  0.5562  0.4618 -1.6890
  124OSM    C2S13183   5.174   3.599   6.687 -0.2137 -0.0985  0.2275
  124OSM    H2S13184   5.076   3.650   6.675  0.0689  0.0358 -1.6957
  124OSM    C3S13185   5.145   3.462   6.750 -0.0143 -0.1802  0.0817
  124OSM    H3S13186   5.233   3.431   6.810  0.2691  0.3980 -0.0319
  124OSM     O313187   5.118   3.352   6.658 -0.7090 -0.5370 -0.6902
  124OSM    HO313188   5.107   3.389   6.570  2.3897  0.0967 -0.8660
  124OSM    C4S13189   5.047   3.471   6.864  0.6716  0.1430  1.0196
  124OSM    H4S13190   5.089   3.443   6.962  3.0558  0.4885  0.1347
  124OSM    C5S13191   4.913   3.511   6.864 -0.3509 -0.1001  0.4025
  124OSM    H5S13192   4.876   3.539   6.765  0.0800  1.0578  0.5645
  124OSM    C6S13193   4.805   3.526   6.966  0.1655 -0.1093  0.5331
  124OSM    H6S13194   4.734   3.440   6.965 -0.6675  0.5892 -0.6539
  124OSM    H6T13195   4.748   3.613   6.929  1.4851  1.0511  1.1846
  124OSM    C7S13196   4.836   3.547   7.115  0.8021 -0.1063 -0.1399
  124OSM    H7S13197   4.881   3.646   7.139  1.1460 -0.2823 -0.0517
  124OSM    H7T13198   4.908   3.475   7.158  0.9699  1.0601  1.5632
  124OSM    C8S13199   4.702   3.537   7.202 -0.1675 -0.4552  0.1407
  124OSM    H8S13200   4.643   3.452   7.162 -0.9394  0.6296 -1.0524
  124OSM    H8T13201   4.639   3.625   7.179 -2.7660 -1.1246  4.1203
  124OSM    C9S13202   4.742   3.514   7.348 -0.0596 -0.3145  0.1614
  124OSM    H9S13203   4.803   3.423   7.363 -0.3589 -0.1384  2.5876
  124OSM    H9T13204   4.643   3.493   7.394 -0.7133  1.0193 -0.5968
  124OSM   C10S13205   4.810   3.638   7.419  0.1672  0.5724 -0.6291
  124OSM   H10S13206   4.728   3.712   7.425 -2.6765 -2.2974 -2.8733
  124OSM   H10T13207   4.896   3.689   7.370  0.3689  1.6625  0.7944
  124OSM   C11S13208   4.845   3.598   7.568 -0.1817  0.1191 -0.1708
  124OSM   H11S13209   4.909   3.508   7.559  0.4739  0.4509  0.9649
  124OSM   H11T13210   4.749   3.569   7.616 -0.8028 -0.5084 -1.7873
  124OSM   C12S13211   4.908   3.713   7.652 -0.0077 -0.4205  0.1215
  124OSM   H12S13212   4.846   3.805   7.643  0.1691 -0.6003 -3.6237
  124OSM   H12T13213   5.002   3.729   7.595 -0.5637 -3.1941 -1.6511
  124OSM   C13S13214   4.940   3.672   7.797  0.1852 -0.0957 -0.1651
  124OSM   H13S13215   5.004   3.749   7.845  1.8795 -0.4790 -1.7766
  124OSM   H13T13216   5.001   3.580   7.799 -0.1159 -0.3973 -3.0318
  124OSM   C14S13217   4.803   3.649   7.877  0.4040  0.1270 -0.2547
  124OSM   H14S13218   4.733   3.590   7.815 -1.0172  2.0093 -0.4961
  124OSM   H14T13219   4.755   3.748   7.895 -1.8581 -1.0733  0.4946
  124OSM   C15S13220   4.833   3.565   8.006  0.3290  0.7060 -0.1819
  124OSM   H15S13221   4.898   3.477   7.987 -1.3241 -1.3371  3.2867
  124OSM   H15T13222   4.739   3.530   8.052  0.9139 -0.3971  0.1935
  124OSM   C16S13223   4.906   3.648   8.118 -0.0159 -0.2901  0.0768
  124OSM   H16S13224   5.006   3.689   8.091 -0.4795  1.3387  0.8323
  124OSM   H16T13225   4.934   3.568   8.190  1.5630  1.4040  1.3738
  124OSM   C17S13226   4.814   3.752   8.179  1.0791  0.3891 -0.8635
  124OSM   H17S13227   4.724   3.694   8.207  1.6782  0.0511  0.3920
  124OSM   H17T13228   4.797   3.833   8.105 -0.2920  2.2799  1.4873
  124OSM   C18S13229   4.880   3.814   8.306 -0.1078 -0.2214  0.1270
  124OSM   H18S13230   4.967   3.869   8.262 -0.1301 -1.3812 -1.3945
  124OSM   H18T13231   4.918   3.744   8.383 -1.6317  0.8423  1.8775
  124OSM   H18U13232   4.805   3.887   8.342 -1.2735  0.1726 -2.9300
  124OSM    C1F13233   5.272   3.816   6.744 -0.3226  0.6134 -0.6874
  124OSM     OF13234   5.189   3.866   6.669  0.4854 -0.2906  0.4753
  124OSM    C2F13235   5.377   3.895   6.801 -0.6921  0.2397  0.6392
  124OSM    H2F13236   5.444   3.835   6.867  0.8699 -1.0082 -1.9767
  124OSM    H2G13237   5.330   3.962   6.876 -1.4213  0.0982  0.3130
  124OSM    C3F13238   5.466   3.958   6.694 -0.2697 -0.1607 -0.0133
  124OSM    H3F13239   5.408   4.009   6.614  1.2568  3.7472  1.2595
  124OSM    H3G13240   5.507   3.865   6.649 -1.2894 -0.5076 -0.2348
  124OSM    C4F13241   5.554   4.070   6.749 -0.6264  0.6333  0.3999
  124OSM    H4F13242   5.505   4.164   6.781 -1.3542  0.5076 -0.3190
  124OSM    H4G13243   5.606   4.114   6.661 -2.2864  0.8585 -0.4883
  124OSM    C5F13244   5.648   4.034   6.867  0.2268 -0.1380  0.0548
  124OSM    H5F13245   5.752   4.067   6.846 -0.0284  0.5138 -0.1822
  124OSM    H5G13246   5.647   3.923   6.874  0.0722 -0.3388 -2.5189
  124OSM    C6F13247   5.616   4.104   6.997 -0.6206 -1.1456 -0.7427
  124OSM    H6F13248   5.516   4.080   7.039 -0.8954  0.6326 -0.3585
  124OSM    H6G13249   5.617   4.212   6.975  1.8264 -0.7992  0.8615
  124OSM    C7F13250   5.722   4.073   7.100 -0.7309 -0.0989 -0.5910
  124OSM    H7F13251   5.825   4.081   7.058 -1.0786  1.7661 -1.1248
  124OSM    H7G13252   5.701   3.970   7.136 -0.0698 -0.7006 -1.8841
  124OSM    C8F13253   5.710   4.178   7.215  0.3298 -0.2850 -0.2917
  124OSM    H8F13254   5.622   4.153   7.278 -1.0105 -1.5811 -2.5812
  124OSM    H8G13255   5.697   4.282   7.177  0.1390  0.2185  1.1302
  124OSM    C9F13256   5.828   4.166   7.306 -0.4099  0.2310  0.2935
  124OSM    H9F13257   5.920   4.214   7.269 -0.1571 -1.0527 -0.7876
  124OSM   C10F13258   5.826   4.144   7.438 -1.0115  1.1133  0.3164
  124OSM   H10F13259   5.925   4.158   7.483 -1.3489  2.2245  0.7435
  124OSM   C11F13260   5.713   4.111   7.529  0.8971 -0.4603  0.1441
  124OSM   H11F13261   5.654   4.023   7.497  0.1975 -0.4741  1.4146
  124OSM   H11G13262   5.640   4.194   7.520 -1.2995 -2.5182 -1.5733
  124OSM   C12F13263   5.767   4.092   7.679 -0.0989 -0.4858 -0.3193
  124OSM   H12F13264   5.843   4.012   7.689 -0.9613 -1.2677 -0.0176
  124OSM   H12G13265   5.674   4.058   7.728 -0.4683 -1.0926 -1.4184
  124OSM   C13F13266   5.804   4.226   7.746 -0.7024 -0.1089  0.0365
  124OSM   H13F13267   5.723   4.301   7.733 -1.2322 -1.0410 -2.4028
  124OSM   H13G13268   5.894   4.269   7.696 -1.1709  3.1457  1.8993
  124OSM   C14F13269   5.829   4.208   7.899 -0.3882 -0.0345 -0.5423
  124OSM   H14F13270   5.923   4.155   7.923 -1.2065 -0.0394  2.8853
  124OSM   H14G13271   5.747   4.140   7.931 -0.4630 -0.0994 -0.8690
  124OSM   C15F13272   5.821   4.343   7.983 -0.9937  0.5593  0.3694
  124OSM   H15F13273   5.864   4.432   7.931 -0.5444  0.7851  1.1260
  124OSM   H15G13274   5.883   4.334   8.074 -1.5684  0.6918  0.7787
  124OSM   C16F13275   5.675   4.380   8.010 -0.2691 -0.0788  0.0600
  124OSM   H16F13276   5.619   4.384   7.915  0.0366 -0.5436 -0.1412
  124OSM   H16G13277   5.669   4.478   8.063 -1.8343 -0.9473  1.5628
  124OSM   C17F13278   5.604   4.288   8.112  0.1793 -0.2794 -0.0773
  124OSM   H17F13279   5.668   4.294   8.203  0.8841  0.7621 -0.6464
  124OSM   H17G13280   5.585   4.183   8.081 -0.5305  0.3787 -1.9224
  124OSM   C18F13281   5.459   4.339   8.135  0.0173  0.1137  0.5797
  124OSM   H18F13282   5.404   4.278   8.210 -1.7042 -2.1190 -2.3882
  124OSM   H18G13283   5.407   4.325   8.038  0.7430  0.7837  0.0894
  124OSM   H18H13284   5.460   4.448   8.156 -1.0730  0.3797 -0.7085
  125OSM      N13285   5.263   4.778   6.092  0.8763  0.3086  0.2992
  125OSM    C1513286   5.349   4.884   6.151  0.3630  0.2451  0.5021
  125OSM   H15A13287   5.443   4.836   6.173 -0.0481 -1.3284 -1.0718
  125OSM   H15B13288   5.306   4.929   6.239 -0.2382 -0.7181  0.7074
  125OSM   H15C13289   5.364   4.969   6.086 -1.4722 -0.3192 -0.7176
  125OSM    C1413290   5.137   4.852   6.056 -0.7521  0.4267  0.8596
  125OSM   H14A13291   5.145   4.918   5.971 -0.4230  0.7222  1.1159
  125OSM   H14B13292   5.104   4.909   6.142 -1.4611 -1.1198  1.6212
  125OSM   H14C13293   5.062   4.778   6.032  1.4002 -1.6861  0.5594
  125OSM    C1313294   5.329   4.729   5.971 -0.3512  0.8750  0.0663
  125OSM   H13A13295   5.349   4.806   5.898 -0.5241  2.1741  1.3500
  125OSM   H13B13296   5.263   4.653   5.933  1.5978 -1.7881  1.8941
  125OSM   H13C13297   5.423   4.684   6.000  0.4009  0.3926 -2.9759
  125OSM    C1213298   5.240   4.663   6.193  0.1712  0.4871 -0.0409
  125OSM   H12A13299   5.208   4.704   6.288 -2.6371 -0.8668 -0.3497
  125OSM   H12B13300   5.334   4.619   6.221  0.8818  2.0337  0.0618
  125OSM    C1113301   5.136   4.549   6.156  0.2468  0.3348 -0.4797
  125OSM   H11A13302   5.149   4.460   6.222  1.4111  1.4365  0.7903
  125OSM   H11B13303   5.165   4.508   6.056  1.3954  1.4575 -0.6199
  125OSM      P13304   4.907   4.561   6.290  0.1408  0.0820  0.1162
  125OSM    O1313305   4.798   4.660   6.291  0.0598 -0.2500  0.0758
  125OSM    O1413306   4.871   4.420   6.287 -0.6018 -0.2748 -0.1711
  125OSM    O1113307   5.003   4.595   6.406  0.1255  0.4595 -0.0728
  125OSM    O1213308   4.999   4.588   6.165  0.8637 -0.5896  0.1728
  125OSM    C1S13309   5.008   4.713   6.476  0.5770  0.6637  1.1408
  125OSM    H1S13310   4.912   4.763   6.501  1.6233  2.5571  1.4520
  125OSM    H1T13311   5.072   4.790   6.428  0.4832 -0.5495 -0.9580
  125OSM     NF13312   5.050   4.819   6.692  0.7813 -0.0075  0.5131
  125OSM    HNF13313   5.125   4.863   6.741  0.8824 -0.4658  0.7709
  125OSM    C2S13314   5.075   4.695   6.619  0.2212 -0.8150  0.3286
  125OSM    H2S13315   5.016   4.618   6.674 -0.3913 -2.0044 -1.9048
  125OSM    C3S13316   5.222   4.642   6.612  0.1794 -0.0811 -0.0597
  125OSM    H3S13317   5.292   4.727   6.595 -1.0251  0.3257 -3.4599
  125OSM     O313318   5.251   4.542   6.515 -0.2059  0.3164 -0.2518
  125OSM    HO313319   5.172   4.544   6.461 -1.1718 -2.2899  0.9590
  125OSM    C4S13320   5.261   4.588   6.748 -0.5875  0.3243  0.1946
  125OSM    H4S13321   5.311   4.667   6.807 -1.0712  1.0395 -0.3323
  125OSM    C5S13322   5.244   4.465   6.798 -0.2034  0.4176  0.1472
  125OSM    H5S13323   5.201   4.390   6.730  0.2396  0.9191 -0.7074
  125OSM    C6S13324   5.304   4.407   6.921  0.0364 -0.5809 -0.1332
  125OSM    H6S13325   5.364   4.319   6.891  0.4759  0.4172 -2.2694
  125OSM    H6T13326   5.220   4.363   6.978 -0.7035  2.7756  1.5400
  125OSM    C7S13327   5.378   4.492   7.026 -0.7768  0.2572  0.3382
  125OSM    H7S13328   5.328   4.588   7.048 -0.7958 -0.1150  1.9672
  125OSM    H7T13329   5.477   4.517   6.981 -1.0029 -0.2868 -0.4842
  125OSM    C8S13330   5.396   4.424   7.166 -0.2495 -0.2702 -0.0468
  125OSM    H8S13331   5.438   4.323   7.145 -4.8779 -2.1452 -0.9186
  125OSM    H8T13332   5.295   4.416   7.212  0.1650 -0.5477  0.8434
  125OSM    C9S13333   5.497   4.511   7.249  0.6103  0.1124 -0.3627
  125OSM    H9S13334   5.454   4.614   7.246  0.7939  0.3534  2.9959
  125OSM    H9T13335   5.598   4.511   7.204  0.3251  1.9486 -1.0638
  125OSM   C10S13336   5.499   4.466   7.392 -0.1613 -0.6036  0.5637
  125OSM   H10S13337   5.575   4.385   7.394  0.0653 -0.3972  0.4086
  125OSM   H10T13338   5.399   4.439   7.431 -0.1845  0.9560  1.6021
  125OSM   C11S13339   5.557   4.573   7.485  0.3136 -0.4889  0.2432
  125OSM   H11S13340   5.492   4.662   7.468 -0.9411 -1.5047 -0.3249
  125OSM   H11T13341   5.662   4.588   7.454  0.5060  0.1557  1.1738
  125OSM   C12S13342   5.547   4.558   7.644 -0.2387 -0.1487  0.5073
  125OSM   H12S13343   5.629   4.492   7.679 -2.9305 -3.2219  1.2713
  125OSM   H12T13344   5.452   4.510   7.675  0.1006 -0.4405  1.0913
  125OSM   C13S13345   5.561   4.692   7.714 -0.4031  0.4735 -0.1143
  125OSM   H13S13346   5.487   4.759   7.665 -1.6957 -0.4096  0.5945
  125OSM   H13T13347   5.665   4.730   7.712 -0.1057 -0.2799  0.8403
  125OSM   C14S13348   5.524   4.683   7.868  0.0873 -0.3591  0.0854
  125OSM   H14S13349   5.597   4.613   7.914 -0.3559  0.4698  2.0934
  125OSM   H14T13350   5.417   4.656   7.879  0.4754 -3.0514 -1.9740
  125OSM   C15S13351   5.520   4.824   7.939 -0.1635  0.0701 -0.1773
  125OSM   H15S13352   5.449   4.895   7.891 -0.5318  0.1122  0.4374
  125OSM   H15T13353   5.624   4.862   7.943  0.3210 -1.4648  2.7467
  125OSM   C16S13354   5.452   4.822   8.076 -0.4446  0.0298 -0.8112
  125OSM   H16S13355   5.357   4.765   8.066  1.2304 -3.0266 -0.0052
  125OSM   H16T13356   5.441   4.926   8.113  2.0517  1.2076 -3.1682
  125OSM   C17S13357   5.532   4.736   8.170  0.0261 -0.2614  0.0091
  125OSM   H17S13358   5.609   4.673   8.120 -1.7637 -1.0197 -1.8525
  125OSM   H17T13359   5.463   4.669   8.226 -0.2137 -0.0724 -0.0591
  125OSM   C18S13360   5.606   4.816   8.279  0.6432  0.1295  0.0542
  125OSM   H18S13361   5.539   4.878   8.343  0.6983 -0.2003  0.4290
  125OSM   H18T13362   5.688   4.878   8.235  0.1916 -0.4045 -1.5760
  125OSM   H18U13363   5.656   4.743   8.346  2.2459  1.7947  0.7241
  125OSM    C1F13364   4.930   4.852   6.740  0.8282 -0.6389 -0.6424
  125OSM     OF13365   4.831   4.780   6.724 -0.0696 -0.0201  0.4795
  125OSM    C2F13366   4.910   4.980   6.819  0.0336  0.4650  0.3570
  125OSM    H2F13367   4.808   5.021   6.801  0.6087  2.5039  1.6218
  125OSM    H2G13368   4.991   5.048   6.785  1.2544 -1.5770 -0.9389
  125OSM    C3F13369   4.930   4.944   6.968 -0.6521 -0.3823 -0.6577
  125OSM    H3F13370   5.025   4.892   6.992 -0.7963  1.2012  3.7806
  125OSM    H3G13371   4.850   4.870   6.995 -0.2886 -0.4967  0.1131
  125OSM    C4F13372   4.912   5.073   7.056 -0.5671 -0.1455  0.4966
  125OSM    H4F13373   4.829   5.128   7.006  1.2437  3.6202  1.4634
  125OSM    H4G13374   5.008   5.125   7.036 -1.1119 -0.5611 -3.6560
  125OSM    C5F13375   4.877   5.035   7.201 -0.8311 -0.8568  0.1024
  125OSM    H5F13376   4.965   4.991   7.251  0.5683  0.2905 -1.3245
  125OSM    H5G13377   4.799   4.956   7.203 -2.3840  0.6374 -0.0528
  125OSM    C6F13378   4.820   5.149   7.288  0.6011  0.7642  0.4276
  125OSM    H6F13379   4.718   5.170   7.249  1.0222  0.5082 -0.8521
  125OSM    H6G13380   4.889   5.233   7.264 -0.9241  1.6930 -0.8118
  125OSM    C7F13381   4.837   5.123   7.434  0.2379  0.0559 -0.0174
  125OSM    H7F13382   4.943   5.091   7.448 -0.4531 -2.5835 -0.4306
  125OSM    H7G13383   4.769   5.038   7.459  0.0675 -0.5143 -2.3484
  125OSM    C8F13384   4.805   5.244   7.526  0.0097  0.2618  0.2044
  125OSM    H8F13385   4.700   5.275   7.511  0.2577  0.5407 -0.9929
  125OSM    H8G13386   4.874   5.329   7.503  0.6797 -0.2398  0.3358
  125OSM    C9F13387   4.840   5.194   7.666  0.0116 -0.1218 -0.0813
  125OSM    H9F13388   4.940   5.149   7.675 -0.6047 -1.1723  1.7570
  125OSM   C10F13389   4.772   5.208   7.777  0.7265  0.1067  0.8343
  125OSM   H10F13390   4.821   5.172   7.868  2.3752 -0.0928 -0.0979
  125OSM   C11F13391   4.639   5.278   7.792  0.2496  0.5722  0.0057
  125OSM   H11F13392   4.555   5.211   7.821 -0.6403  1.1396 -1.2104
  125OSM   H11G13393   4.604   5.310   7.692 -0.7747 -0.9456 -0.1453
  125OSM   C12F13394   4.649   5.399   7.868 -0.8203  0.4409  0.5184
  125OSM   H12F13395   4.564   5.469   7.854 -0.9841 -0.0176 -0.7625
  125OSM   H12G13396   4.727   5.467   7.827 -0.3092 -0.7482 -0.4833
  125OSM   C13F13397   4.689   5.378   8.024  0.3809 -0.2573  0.3378
  125OSM   H13F13398   4.777   5.312   8.036  0.6298  0.3129  1.8703
  125OSM   H13G13399   4.601   5.326   8.068  0.2129 -1.1449 -1.0444
  125OSM   C14F13400   4.718   5.509   8.094 -1.1518  0.3905  0.2729
  125OSM   H14F13401   4.641   5.585   8.070 -2.2048 -1.6585 -3.1682
  125OSM   H14G13402   4.811   5.553   8.051 -1.0415  0.0562  0.1664
  125OSM   C15F13403   4.753   5.512   8.246  0.4199  0.5560  0.3967
  125OSM   H15F13404   4.813   5.420   8.265  0.8538  1.1821  2.1746
  125OSM   H15G13405   4.661   5.488   8.303 -0.5894  0.2031 -1.3697
  125OSM   C16F13406   4.816   5.642   8.302 -0.3270  0.3289  0.0185
  125OSM   H16F13407   4.769   5.733   8.260  0.0374 -0.5550 -2.3778
  125OSM   H16G13408   4.924   5.647   8.274 -0.6620  1.8151 -1.0480
  125OSM   C17F13409   4.797   5.659   8.452 -0.2969 -0.0136 -0.5736
  125OSM   H17F13410   4.688   5.676   8.465 -0.1321  1.6390 -1.2171
  125OSM   H17G13411   4.857   5.745   8.489  1.3815 -1.1969 -0.4496
  125OSM   C18F13412   4.825   5.538   8.544 -0.2663  0.5383 -0.4014
  125OSM   H18F13413   4.935   5.523   8.540 -0.3213  0.4914 -2.1881
  125OSM   H18G13414   4.768   5.448   8.512  1.3210 -0.5511 -0.2125
  125OSM   H18H13415   4.788   5.558   8.647 -0.0086 -2.3291  0.3013
  126OSM      N13416   3.240   4.175   6.292 -0.0608 -0.2626  0.1468
  126OSM    C1513417   3.102   4.176   6.228 -0.2922  0.5451 -0.4691
  126OSM   H15A13418   3.080   4.272   6.183  0.5067  0.0707 -1.9209
  126OSM   H15B13419   3.016   4.157   6.290  1.2301 -0.4934  1.3953
  126OSM   H15C13420   3.100   4.094   6.158  1.1268 -2.2816  2.6620
  126OSM    C1413421   3.258   4.048   6.372  0.0293  0.2664  0.3422
  126OSM   H14A13422   3.351   4.039   6.426 -0.2701  0.2099  0.8509
  126OSM   H14B13423   3.236   3.967   6.304 -1.5150  1.7179 -0.9560
  126OSM   H14C13424   3.186   4.044   6.452  1.3792 -1.5720  1.4847
  126OSM    C1313425   3.346   4.188   6.190  0.6426 -0.7513 -0.0508
  126OSM   H13A13426   3.344   4.283   6.139  1.5188  0.9094  2.8664
  126OSM   H13B13427   3.328   4.113   6.114  0.8396  3.5720 -4.5933
  126OSM   H13C13428   3.445   4.178   6.233  0.2819 -1.8000  0.5600
  126OSM    C1213429   3.256   4.288   6.393 -0.0579  0.2881  0.3365
  126OSM   H12A13430   3.353   4.279   6.439 -1.1902 -2.8098  2.3137
  126OSM   H12B13431   3.174   4.285   6.464  1.7437  1.8849  2.5587
  126OSM    C1113432   3.251   4.434   6.339  0.8473 -0.1901 -0.4067
  126OSM   H11A13433   3.330   4.450   6.262  2.9262  1.1776  1.9475
  126OSM   H11B13434   3.273   4.504   6.423 -2.7971  0.1894  0.3264
  126OSM      P13435   3.009   4.521   6.371  0.2101 -0.2549 -0.0275
  126OSM    O1313436   3.031   4.663   6.419 -0.0477  0.5997 -0.2272
  126OSM    O1413437   2.881   4.511   6.306  0.3030 -0.0909 -0.1328
  126OSM    O1113438   3.006   4.419   6.495  0.0584  0.0466  0.1980
  126OSM    O1213439   3.123   4.472   6.282  0.1569  0.7629 -0.0171
  126OSM    C1S13440   3.008   4.487   6.627 -0.0653 -0.2772  0.2546
  126OSM    H1S13441   2.938   4.572   6.640  0.6788  0.5400 -0.9321
  126OSM    H1T13442   3.110   4.524   6.649 -0.0599 -0.5727  0.7313
  126OSM     NF13443   2.955   4.449   6.864  0.8408  0.2974 -0.4225
  126OSM    HNF13444   3.034   4.462   6.923 -0.6241  0.1503  1.6117
  126OSM    C2S13445   2.969   4.382   6.741  0.1628 -0.1854  0.2139
  126OSM    H2S13446   2.875   4.328   6.718  0.2882 -0.0701 -0.5954
  126OSM    C3S13447   3.080   4.275   6.753  0.5958  0.6044 -0.0158
  126OSM    H3S13448   3.177   4.325   6.775  1.3678 -1.0277  0.3136
  126OSM     O313449   3.095   4.190   6.640  0.1492  0.0665 -0.5818
  126OSM    HO313450   3.008   4.191   6.599 -0.6675  1.3973  1.1297
  126OSM    C4S13451   3.053   4.183   6.877  0.5670 -0.3106 -0.0417
  126OSM    H4S13452   2.960   4.125   6.872 -0.2667  0.8919  1.1770
  126OSM    C5S13453   3.124   4.177   6.996 -0.0126  0.6143  0.0785
  126OSM    H5S13454   3.205   4.250   7.011 -0.1057  0.8377 -0.4827
  126OSM    C6S13455   3.103   4.081   7.111 -1.1712  0.0988 -0.2781
  126OSM    H6S13456   3.019   4.008   7.102  0.5916 -2.0165 -0.1043
  126OSM    H6T13457   3.071   4.139   7.200 -0.6154 -1.5643  1.0475
  126OSM    C7S13458   3.232   3.994   7.144 -0.4128  0.2191 -0.2877
  126OSM    H7S13459   3.313   4.064   7.173  1.2194 -0.9152 -2.0213
  126OSM    H7T13460   3.253   3.931   7.055  0.3296  0.8567 -0.5727
  126OSM    C8S13461   3.200   3.900   7.260 -0.3415  0.7489 -0.3606
  126OSM    H8S13462   3.285   3.829   7.263 -1.3831 -0.5773 -1.6396
  126OSM    H8T13463   3.110   3.840   7.234  0.2536 -0.2484 -0.1433
  126OSM    C9S13464   3.188   3.977   7.390  0.0862 -0.0202  0.7893
  126OSM    H9S13465   3.110   4.055   7.382  0.4993  0.4832  1.6014
  126OSM    H9T13466   3.274   4.042   7.417  1.7846 -0.5237 -3.0303
  126OSM   C10S13467   3.183   3.884   7.510  0.0279 -0.1527  0.4111
  126OSM   H10S13468   3.284   3.839   7.506  0.1985  0.3867 -1.6365
  126OSM   H10T13469   3.110   3.801   7.497  1.4619 -1.1858 -1.2707
  126OSM   C11S13470   3.187   3.966   7.638  0.1263  0.7114  0.4296
  126OSM   H11S13471   3.087   4.011   7.655 -0.1763 -0.1721  1.0375
  126OSM   H11T13472   3.258   4.049   7.614  0.1932  0.1658 -1.2662
  126OSM   C12S13473   3.224   3.891   7.769 -0.0121 -0.8659 -0.4358
  126OSM   H12S13474   3.327   3.850   7.768  0.1680 -0.4087 -0.7744
  126OSM   H12T13475   3.155   3.806   7.788 -0.1466 -0.4548  0.9657
  126OSM   C13S13476   3.209   3.983   7.887 -0.7680  0.2027  0.7589
  126OSM   H13S13477   3.102   4.012   7.893 -1.2280 -0.9910 -1.1281
  126OSM   H13T13478   3.267   4.073   7.858 -1.5948  0.5054  0.0310
  126OSM   C14S13479   3.257   3.930   8.016  0.2267  0.1567  0.1546
  126OSM   H14S13480   3.365   3.906   8.020  0.1118 -0.1469  3.7446
  126OSM   H14T13481   3.202   3.836   8.038 -0.3876  0.7658  1.2961
  126OSM   C15S13482   3.233   4.039   8.129 -0.1048 -0.2228  0.5160
  126OSM   H15S13483   3.139   4.097   8.121  0.6280  0.9063 -0.1151
  126OSM   H15T13484   3.311   4.117   8.116 -1.6041  1.2306 -0.0155
  126OSM   C16S13485   3.240   3.980   8.273 -0.4087  0.9443 -0.1376
  126OSM   H16S13486   3.322   3.905   8.284  0.6774  2.3641  1.6012
  126OSM   H16T13487   3.138   3.941   8.293 -0.8260  1.6591 -0.8665
  126OSM   C17S13488   3.281   4.080   8.379  0.1218 -0.2393 -0.5442
  126OSM   H17S13489   3.232   4.174   8.345  0.3530 -0.5166 -1.6830
  126OSM   H17T13490   3.389   4.102   8.391  0.6946 -1.5096 -3.1399
  126OSM   C18S13491   3.224   4.063   8.527 -0.3538  0.4282 -0.2842
  126OSM   H18S13492   3.233   3.954   8.550 -0.6796  0.4805  0.0949
  126OSM   H18T13493   3.118   4.095   8.538 -0.3453  0.8764 -1.4356
  126OSM   H18U13494   3.277   4.124   8.604 -0.2963  2.2374 -1.7343
  126OSM    C1F13495   2.851   4.534   6.879  0.1904  0.2749  0.0681
  126OSM     OF13496   2.769   4.538   6.790 -0.0668 -0.1369 -0.2369
  126OSM    C2F13497   2.853   4.629   6.998 -0.2721 -0.2609 -0.0633
  126OSM    H2F13498   2.940   4.697   6.992 -2.1234  2.0940 -1.6632
  126OSM    H2G13499   2.856   4.573   7.094 -0.1757 -0.1496 -0.0023
  126OSM    C3F13500   2.734   4.728   6.995  0.1276 -0.5388  0.0510
  126OSM    H3F13501   2.634   4.680   6.999 -1.5115  2.8565  1.9195
  126OSM    H3G13502   2.739   4.779   6.896  2.1702  0.7715  0.7805
  126OSM    C4F13503   2.750   4.828   7.107 -0.4693  0.2589 -0.2745
  126OSM    H4F13504   2.848   4.878   7.091 -0.4801  0.5339  0.4788
  126OSM    H4G13505   2.762   4.769   7.200 -2.6337  0.7650  0.3430
  126OSM    C5F13506   2.638   4.934   7.124  0.3296  0.1475  0.1782
  126OSM    H5F13507   2.538   4.888   7.135  0.1588  0.3953 -0.3455
  126OSM    H5G13508   2.635   5.003   7.037  3.4055 -0.2120 -0.2623
  126OSM    C6F13509   2.664   5.012   7.258  0.1784  0.2909 -0.2977
  126OSM    H6F13510   2.754   5.069   7.229  0.6976 -0.5673 -0.3743
  126OSM    H6G13511   2.691   4.945   7.342 -1.6633  2.0508  1.7630
  126OSM    C7F13512   2.545   5.087   7.323  1.2183 -0.7574  0.0390
  126OSM    H7F13513   2.459   5.019   7.338 -1.5813  2.2548 -1.4596
  126OSM    H7G13514   2.515   5.163   7.247  1.0545 -0.1447  0.7117
  126OSM    C8F13515   2.583   5.145   7.460  0.1960  0.3662 -0.4127
  126OSM    H8F13516   2.674   5.209   7.458 -0.1669  0.9637  1.5300
  126OSM    H8G13517   2.590   5.054   7.523 -0.9682 -0.0336 -0.8508
  126OSM    C9F13518   2.461   5.216   7.515 -0.3830  0.2992  0.2604
  126OSM    H9F13519   2.365   5.175   7.480  0.2517  0.4152 -1.7276
  126OSM   C10F13520   2.465   5.316   7.598 -0.0999  0.3701 -0.1706
  126OSM   H10F13521   2.372   5.355   7.641  1.3649  0.9165  2.6576
  126OSM   C11F13522   2.588   5.380   7.666  0.3701  0.0174 -0.2625
  126OSM   H11F13523   2.587   5.484   7.627 -1.4092  0.5111  1.0448
  126OSM   H11G13524   2.684   5.337   7.631  1.8855 -0.0862  3.7938
  126OSM   C12F13525   2.573   5.383   7.819 -0.2124  0.1840 -0.4289
  126OSM   H12F13526   2.657   5.449   7.849 -0.6948  0.9245 -0.7018
  126OSM   H12G13527   2.607   5.284   7.857  1.7563  1.1296  0.3602
  126OSM   C13F13528   2.435   5.424   7.870 -0.0148 -0.4344 -0.0747
  126OSM   H13F13529   2.368   5.336   7.878  1.2382 -1.3094  0.9541
  126OSM   H13G13530   2.397   5.498   7.797  1.3732 -1.0019 -1.4134
  126OSM   C14F13531   2.441   5.494   8.002 -0.0959 -0.1472 -0.1854
  126OSM   H14F13532   2.336   5.515   8.034 -0.1195  0.0757 -0.4035
  126OSM   H14G13533   2.493   5.591   7.991 -2.9430  1.3202 -1.2685
  126OSM   C15F13534   2.510   5.417   8.116 -0.3626  0.1203  0.0866
  126OSM   H15F13535   2.621   5.429   8.109 -0.1776 -1.9223 -0.7263
  126OSM   H15G13536   2.493   5.308   8.105 -3.1877  0.4731  0.7338
  126OSM   C16F13537   2.448   5.462   8.252 -0.2120  0.0656  0.2394
  126OSM   H16F13538   2.336   5.463   8.248 -0.2902 -0.4327  1.8650
  126OSM   H16G13539   2.484   5.566   8.268  1.2824  0.0808 -2.8953
  126OSM   C17F13540   2.489   5.360   8.363  0.0491 -0.4682 -0.6885
  126OSM   H17F13541   2.589   5.328   8.327  0.4203 -0.4976  0.3374
  126OSM   H17G13542   2.420   5.274   8.343 -0.6750 -0.3913  1.2766
  126OSM   C18F13543   2.484   5.409   8.509 -0.5035  0.0532 -0.2664
  126OSM   H18F13544   2.388   5.462   8.528  0.5550  1.5568  0.9435
  126OSM   H18G13545   2.571   5.472   8.537 -0.9297 -0.4215  2.2966
  126OSM   H18H13546   2.487   5.316   8.569 -1.5597  0.2357  0.0847
  127OSM      N13547   3.580   2.797   6.089 -0.5406 -0.1400  0.4888
  127OSM    C1513548   3.430   2.824   6.079  0.4373  0.2548 -0.1070
  127OSM   H15A13549   3.393   2.858   6.175  1.2694 -0.2116  0.3875
  127OSM   H15B13550   3.385   2.729   6.057  2.4007 -0.6130 -0.5409
  127OSM   H15C13551   3.410   2.891   5.997 -1.3286  0.3627  0.3933
  127OSM    C1413552   3.626   2.782   5.940 -0.1752 -0.4158 -0.4976
  127OSM   H14A13553   3.733   2.770   5.940  0.1113  1.6419  1.5540
  127OSM   H14B13554   3.583   2.867   5.888 -1.8056  0.2620  1.8437
  127OSM   H14C13555   3.582   2.695   5.894 -0.8031  0.3935 -1.4371
  127OSM    C1313556   3.654   2.906   6.152  0.9086  0.2595 -0.2624
  127OSM   H13A13557   3.758   2.881   6.165  1.3420  0.7616 -2.4799
  127OSM   H13B13558   3.610   2.936   6.246  0.0531 -1.8754  0.0493
  127OSM   H13C13559   3.659   2.990   6.084  0.2645 -0.0359 -0.6829
  127OSM    C1213560   3.617   2.677   6.172  1.2770 -0.3299 -0.0456
  127OSM   H12A13561   3.609   2.694   6.279  0.8321 -0.6357 -0.0297
  127OSM   H12B13562   3.721   2.655   6.155  1.6747  0.9555  0.6318
  127OSM    C1113563   3.534   2.543   6.146  0.0889 -0.0501  0.0175
  127OSM   H11A13564   3.582   2.454   6.192 -0.6273  0.4592  1.7551
  127OSM   H11B13565   3.537   2.521   6.037 -0.9080  2.0227 -0.4527
  127OSM      P13566   3.365   2.570   6.345  0.1346 -0.1364  0.0324
  127OSM    O1313567   3.261   2.677   6.358 -0.2075  0.7003  0.3021
  127OSM    O1413568   3.353   2.433   6.387  0.6439 -0.1484 -0.4224
  127OSM    O1113569   3.491   2.620   6.423  0.0004 -0.0713  0.2652
  127OSM    O1213570   3.403   2.560   6.189  0.5265 -0.4015  0.3639
  127OSM    C1S13571   3.471   2.664   6.561 -0.6723 -0.4715  0.0357
  127OSM    H1S13572   3.373   2.715   6.575 -0.0798  0.5468  0.5396
  127OSM    H1T13573   3.553   2.732   6.593 -0.3066 -1.3449  0.9774
  127OSM     NF13574   3.452   2.595   6.798  0.4725 -0.4916  0.7176
  127OSM    HNF13575   3.532   2.604   6.857  0.4575 -1.7004  0.9336
  127OSM    C2S13576   3.484   2.543   6.663 -0.3313 -0.0109 -0.1145
  127OSM    H2S13577   3.400   2.481   6.625 -1.6698  1.5728  0.1993
  127OSM    C3S13578   3.617   2.463   6.650  0.4672 -0.5990 -0.0523
  127OSM    H3S13579   3.689   2.546   6.663 -1.6378  0.8586  2.9353
  127OSM     O313580   3.639   2.404   6.526  0.5412  0.6102 -0.2451
  127OSM    HO313581   3.580   2.453   6.468 -0.4343  2.0305  1.8742
  127OSM    C4S13582   3.631   2.373   6.766 -0.6956 -1.3053 -0.2572
  127OSM    H4S13583   3.623   2.422   6.864  0.4053 -0.9701 -0.3220
  127OSM    C5S13584   3.638   2.243   6.775  0.0929  0.0074 -0.1415
  127OSM    H5S13585   3.641   2.182   6.684  1.2651 -3.2476  2.0034
  127OSM    C6S13586   3.642   2.163   6.905  0.0367  0.1194  0.4524
  127OSM    H6S13587   3.735   2.104   6.912 -0.5953 -0.9683 -0.1337
  127OSM    H6T13588   3.559   2.089   6.901  0.4228 -0.2707 -0.6637
  127OSM    C7S13589   3.624   2.229   7.045 -0.3528  0.7443 -0.0351
  127OSM    H7S13590   3.529   2.286   7.054 -0.4554  0.4090  1.1731
  127OSM    H7T13591   3.707   2.301   7.061  1.3502 -1.0855 -0.4881
  127OSM    C8S13592   3.629   2.123   7.160  0.0779  0.1486  0.8571
  127OSM    H8S13593   3.710   2.049   7.146  0.0844 -0.1699  2.5642
  127OSM    H8T13594   3.535   2.063   7.157  1.9956 -2.9356  0.4343
  127OSM    C9S13595   3.657   2.192   7.293 -0.2129 -0.1432 -0.9994
  127OSM    H9S13596   3.568   2.250   7.324  0.2387 -0.4308  0.8817
  127OSM    H9T13597   3.746   2.256   7.279  0.7264 -1.6561 -2.1759
  127OSM   C10S13598   3.686   2.082   7.402 -0.4603 -0.2102 -0.1251
  127OSM   H10S13599   3.792   2.049   7.400 -0.7770 -1.3469  1.4383
  127OSM   H10T13600   3.615   1.997   7.393  0.8074 -1.1175 -1.8625
  127OSM   C11S13601   3.663   2.123   7.549 -0.8063 -0.0053  0.1712
  127OSM   H11S13602   3.560   2.159   7.567 -0.4014  1.3444 -0.1580
  127OSM   H11T13603   3.734   2.206   7.570  0.8153 -1.2111 -0.3518
  127OSM   C12S13604   3.696   2.018   7.653  0.2501  0.0781  0.6219
  127OSM   H12S13605   3.659   1.926   7.604 -2.3233  0.0380  2.5262
  127OSM   H12T13606   3.637   2.041   7.744  0.4162 -0.6344  0.9189
  127OSM   C13S13607   3.842   2.008   7.688  0.0539  0.7125 -0.2183
  127OSM   H13S13608   3.906   2.027   7.599 -0.3257  0.7723 -0.4781
  127OSM   H13T13609   3.874   1.907   7.721 -0.0062  0.9168  0.4698
  127OSM   C14S13610   3.884   2.104   7.794  1.0186 -1.0656  0.0114
  127OSM   H14S13611   3.840   2.204   7.774 -1.7837 -2.2351  0.0858
  127OSM   H14T13612   3.993   2.123   7.781  0.8917 -0.2879  0.0485
  127OSM   C15S13613   3.870   2.060   7.939 -0.7879 -0.0838 -0.2707
  127OSM   H15S13614   3.915   1.960   7.954 -1.1106 -0.3497 -1.0178
  127OSM   H15T13615   3.762   2.066   7.964 -0.6329  2.5205 -0.0887
  127OSM   C16S13616   3.943   2.149   8.037 -0.0329 -0.2184 -0.0108
  127OSM   H16S13617   4.042   2.163   7.988 -0.5418 -0.4021 -1.1037
  127OSM   H16T13618   3.968   2.094   8.130 -0.2661 -0.3156 -0.0082
  127OSM   C17S13619   3.881   2.275   8.070  0.9546  0.1972  0.3871
  127OSM   H17S13620   3.810   2.273   8.156 -1.0968 -0.8095 -1.2650
  127OSM   H17T13621   3.827   2.314   7.981  0.1975 -0.8864  0.3657
  127OSM   C18S13622   3.979   2.387   8.122 -0.2730  0.3130 -0.1498
  127OSM   H18S13623   3.940   2.490   8.138  0.2697  0.7183 -1.3486
  127OSM   H18T13624   4.063   2.391   8.049 -1.0701  0.6754 -1.0614
  127OSM   H18U13625   4.024   2.353   8.218  1.9906  0.6483 -1.0462
  127OSM    C1F13626   3.337   2.646   6.826  0.1739 -0.1974 -0.2892
  127OSM     OF13627   3.243   2.623   6.757  0.0079 -0.4382 -0.3234
  127OSM    C2F13628   3.331   2.727   6.952  0.6110 -0.2591 -0.6263
  127OSM    H2F13629   3.438   2.752   6.968 -0.0125 -0.3779  4.2278
  127OSM    H2G13630   3.290   2.657   7.027 -0.1046  2.2999  1.4264
  127OSM    C3F13631   3.254   2.860   6.937  0.6209 -0.1183  0.3238
  127OSM    H3F13632   3.148   2.838   6.915 -0.0701  1.4100  1.9852
  127OSM    H3G13633   3.281   2.911   6.842 -1.0517  2.4922  1.1858
  127OSM    C4F13634   3.274   2.969   7.052 -0.0936  1.0331  0.3942
  127OSM    H4F13635   3.228   2.931   7.146 -2.2502  0.0801 -1.0200
  127OSM    H4G13636   3.227   3.065   7.022  0.0900  1.3177  1.0069
  127OSM    C5F13637   3.422   3.004   7.077 -0.4873  1.2040 -0.2618
  127OSM    H5F13638   3.468   3.013   6.975  2.8421  0.0755  1.0556
  127OSM    H5G13639   3.469   2.921   7.134 -0.7029  1.2098 -0.0758
  127OSM    C6F13640   3.424   3.148   7.130  0.2060 -0.0916 -0.8613
  127OSM    H6F13641   3.363   3.151   7.223 -0.6160  0.3903 -1.4124
  127OSM    H6G13642   3.376   3.220   7.061  0.1538  1.9888  1.2976
  127OSM    C7F13643   3.567   3.185   7.159 -0.0579 -0.0160 -0.0533
  127OSM    H7F13644   3.606   3.240   7.071  2.3202 -0.0494  0.9415
  127OSM    H7G13645   3.628   3.092   7.155 -1.4878 -0.9428 -0.7070
  127OSM    C8F13646   3.610   3.245   7.299 -0.8201 -0.2669 -0.0280
  127OSM    H8F13647   3.574   3.176   7.377 -1.9945 -0.6203 -0.8680
  127OSM    H8G13648   3.558   3.341   7.319  0.2456  0.4634 -0.6380
  127OSM    C9F13649   3.754   3.272   7.296  0.6814  1.0898 -0.3444
  127OSM    H9F13650   3.782   3.344   7.217  0.9463 -1.2248 -2.4047
  127OSM   C10F13651   3.856   3.217   7.359 -0.2544  1.0096 -0.5778
  127OSM   H10F13652   3.958   3.248   7.331  0.7714 -1.9553 -0.2649
  127OSM   C11F13653   3.845   3.118   7.469 -0.8102  0.1554 -0.3630
  127OSM   H11F13654   3.882   3.021   7.431  0.8338  0.7530 -0.3529
  127OSM   H11G13655   3.742   3.097   7.504 -1.4575 -0.8530 -2.7898
  127OSM   C12F13656   3.922   3.159   7.589  0.1740 -0.0099  0.5419
  127OSM   H12F13657   3.892   3.258   7.628 -2.6856 -0.6395  0.1005
  127OSM   H12G13658   4.028   3.172   7.560  0.2684 -1.3006  0.2715
  127OSM   C13F13659   3.919   3.059   7.700  0.2832 -0.9631  0.6640
  127OSM   H13F13660   3.974   2.974   7.655 -1.2333 -0.5069 -2.1077
  127OSM   H13G13661   3.817   3.023   7.725  0.0663 -0.9330 -0.1853
  127OSM   C14F13662   3.994   3.107   7.822  0.0560 -0.1557 -0.4871
  127OSM   H14F13663   4.087   3.153   7.783  1.0220 -0.6240  1.2081
  127OSM   H14G13664   4.013   3.023   7.892  1.1811  0.7371  0.2884
  127OSM   C15F13665   3.922   3.218   7.895 -0.1556 -0.2117 -0.8839
  127OSM   H15F13666   3.825   3.185   7.938  1.1189 -0.5793  1.8044
  127OSM   H15G13667   3.911   3.311   7.835  1.9580  1.6834  1.5233
  127OSM   C16F13668   3.996   3.255   8.025 -0.3264  0.1004  0.5307
  127OSM   H16F13669   4.102   3.285   8.006 -1.0858  1.2717 -2.0758
  127OSM   H16G13670   3.994   3.168   8.095 -1.0839 -0.3333 -0.0205
  127OSM   C17F13671   3.936   3.377   8.093  0.1274  0.3781  0.8387
  127OSM   H17F13672   3.828   3.358   8.110  0.2084  0.2439  1.1907
  127OSM   H17G13673   3.941   3.471   8.033 -0.3176  0.1242  0.3966
  127OSM   C18F13674   3.987   3.387   8.233 -0.6339 -0.0155  0.4627
  127OSM   H18F13675   4.092   3.354   8.245 -1.0256 -0.9689  1.3961
  127OSM   H18G13676   3.933   3.322   8.306  0.0192 -1.4383 -0.2942
  127OSM   H18H13677   3.981   3.491   8.272  0.7251 -0.0371  0.7410
  128OSM      N13678   5.277   5.468   5.950 -0.6707 -0.7102  0.1074
  128OSM    C1513679   5.325   5.458   5.804  0.2125 -0.0302  0.1828
  128OSM   H15A13680   5.240   5.416   5.751 -0.5090  0.9988  0.5242
  128OSM   H15B13681   5.407   5.389   5.788  0.2918  0.0662  0.1744
  128OSM   H15C13682   5.354   5.553   5.763 -1.7793  0.8869  0.8487
  128OSM    C1413683   5.380   5.548   6.029  0.6893 -0.3395 -0.2730
  128OSM   H14A13684   5.354   5.543   6.134 -1.2847 -0.3050 -0.7425
  128OSM   H14B13685   5.387   5.651   5.995  0.9784 -0.5075 -0.7181
  128OSM   H14C13686   5.470   5.488   6.027  0.5293 -0.5340 -2.4517
  128OSM    C1313687   5.141   5.532   5.954  0.6129 -0.5468  0.5048
  128OSM   H13A13688   5.106   5.565   6.051 -1.5503  1.1370 -0.7748
  128OSM   H13B13689   5.063   5.471   5.910 -1.9977  2.8995  0.1252
  128OSM   H13C13690   5.160   5.622   5.897  2.2561 -2.0314 -1.3691
  128OSM    C1213691   5.267   5.333   6.020  0.4711 -0.1243 -0.3752
  128OSM   H12A13692   5.357   5.274   6.011 -0.2092 -1.3947  0.9040
  128OSM   H12B13693   5.189   5.277   5.971 -0.0883  0.9233 -0.7080
  128OSM    C1113694   5.242   5.346   6.176  0.3811 -0.0162 -0.1919
  128OSM   H11A13695   5.203   5.247   6.205 -2.0320  0.9035 -0.1772
  128OSM   H11B13696   5.161   5.418   6.202  0.0235  0.7825 -3.2803
  128OSM      P13697   5.483   5.257   6.261 -0.0877 -0.0712 -0.2814
  128OSM    O1313698   5.432   5.135   6.338 -0.4778 -0.1371 -0.1646
  128OSM    O1413699   5.534   5.239   6.123 -0.5672  0.4939  0.3591
  128OSM    O1113700   5.587   5.332   6.349 -0.0819 -0.5968 -0.4343
  128OSM    O1213701   5.359   5.364   6.261  0.2930 -0.0970  0.0830
  128OSM    C1S13702   5.558   5.375   6.478 -0.7744 -0.4788 -0.3048
  128OSM    H1S13703   5.583   5.299   6.555 -0.5456 -0.2519 -0.1549
  128OSM    H1T13704   5.449   5.394   6.489 -1.1666 -2.4942 -0.4207
  128OSM     NF13705   5.631   5.529   6.655  0.8350 -0.2800  0.3325
  128OSM    HNF13706   5.571   5.596   6.697  0.5517  1.5104 -2.7607
  128OSM    C2S13707   5.626   5.510   6.514 -0.1264  0.0173  0.4078
  128OSM    H2S13708   5.728   5.495   6.473 -0.2689 -1.3146  0.5423
  128OSM    C3S13709   5.558   5.628   6.435 -0.2147  0.3759 -0.3631
  128OSM    H3S13710   5.455   5.650   6.469  0.3902  0.8999  1.1715
  128OSM     O313711   5.524   5.613   6.301 -0.7204  0.3256 -0.4009
  128OSM    HO313712   5.541   5.519   6.285 -0.4495  0.0047  1.7071
  128OSM    C4S13713   5.623   5.757   6.463 -0.6621 -0.1163  0.4138
  128OSM    H4S13714   5.566   5.824   6.529  0.6335  0.4538  0.9797
  128OSM    C5S13715   5.738   5.805   6.405 -0.1392 -0.0717  0.5706
  128OSM    H5S13716   5.799   5.761   6.325  0.8474  1.1376  0.6489
  128OSM    C6S13717   5.799   5.938   6.445  0.1115  0.3894 -0.2834
  128OSM    H6S13718   5.732   6.019   6.409 -0.8757 -0.1274  0.3421
  128OSM    H6T13719   5.897   5.938   6.394  1.1342  0.3025  1.6258
  128OSM    C7S13720   5.838   5.972   6.592 -1.0115  0.4212 -0.0835
  128OSM    H7S13721   5.740   5.984   6.643 -0.1798  2.6081  1.1075
  128OSM    H7T13722   5.887   6.072   6.591 -0.0718 -0.0295 -0.0307
  128OSM    C8S13723   5.917   5.858   6.665 -0.2080 -0.3457 -0.5877
  128OSM    H8S13724   6.024   5.875   6.642 -0.0947  0.0567  0.2112
  128OSM    H8T13725   5.886   5.756   6.633 -0.7727  0.3731 -2.3831
  128OSM    C9S13726   5.895   5.864   6.816  0.2100 -0.3278 -0.3466
  128OSM    H9S13727   5.956   5.793   6.875  0.8369 -1.3023 -2.1046
  128OSM    H9T13728   5.789   5.840   6.837 -0.2512  0.9791 -1.0770
  128OSM   C10S13729   5.922   6.000   6.878 -0.6713 -0.3045 -0.0577
  128OSM   H10S13730   5.875   6.080   6.818 -0.0208  0.6350  0.6793
  128OSM   H10T13731   6.031   6.019   6.880 -1.0663  2.2538 -1.2060
  128OSM   C11S13732   5.864   6.011   7.016 -0.5301 -0.5102 -0.4614
  128OSM   H11S13733   5.919   5.935   7.076 -0.9806 -0.2789  0.2364
  128OSM   H11T13734   5.759   5.976   7.019 -0.4312 -0.7706 -0.0822
  128OSM   C12S13735   5.873   6.154   7.078 -0.1710 -1.0489 -1.0317
  128OSM   H12S13736   5.808   6.218   7.015  0.1987 -1.1334 -1.5020
  128OSM   H12T13737   5.977   6.192   7.067 -0.6711  0.3405 -1.0595
  128OSM   C13S13738   5.849   6.153   7.231  0.6833 -0.5188 -0.2695
  128OSM   H13S13739   5.929   6.084   7.266  0.0427 -1.4018 -0.5350
  128OSM   H13T13740   5.751   6.109   7.260  0.7769 -1.7701 -1.7375
  128OSM   C14S13741   5.863   6.293   7.297  0.2024  0.5092 -0.6299
  128OSM   H14S13742   5.787   6.362   7.253  0.4079  2.4472  1.9438
  128OSM   H14T13743   5.971   6.319   7.298 -0.1130  2.0573  3.6653
  128OSM   C15S13744   5.825   6.282   7.447 -0.0467  0.1433 -0.4619
  128OSM   H15S13745   5.872   6.186   7.476 -2.0495 -0.5508  0.5838
  128OSM   H15T13746   5.715   6.265   7.447  0.1667 -1.2761  0.9080
  128OSM   C16S13747   5.880   6.399   7.533 -0.0518  0.0353 -0.5396
  128OSM   H16S13748   5.852   6.492   7.479 -0.1909  0.2176 -0.1554
  128OSM   H16T13749   5.989   6.380   7.534  0.1429  1.0274 -1.5228
  128OSM   C17S13750   5.806   6.393   7.675 -0.8063  0.1101  0.0143
  128OSM   H17S13751   5.825   6.285   7.693 -1.2524 -0.0819 -0.6676
  128OSM   H17T13752   5.698   6.416   7.667 -0.8105  1.2599  2.7290
  128OSM   C18S13753   5.868   6.475   7.786  0.0922  0.1115  1.0819
  128OSM   H18S13754   5.860   6.583   7.764 -3.9398 -0.3212 -0.0094
  128OSM   H18T13755   5.974   6.444   7.795 -0.1804 -1.6896 -1.3368
  128OSM   H18U13756   5.821   6.446   7.883 -0.6080 -1.2182  0.3612
  128OSM    C1F13757   5.707   5.456   6.732 -0.2285  0.5910 -0.7012
  128OSM     OF13758   5.776   5.363   6.681  0.6936  0.2667 -0.2756
  128OSM    C2F13759   5.732   5.505   6.872 -0.3330 -0.1904  0.3342
  128OSM    H2F13760   5.677   5.433   6.936  1.7090 -2.8926 -0.8453
  128OSM    H2G13761   5.705   5.612   6.879 -0.3822 -0.1137 -1.0058
  128OSM    C3F13762   5.880   5.483   6.909  0.2132  0.3202 -0.2387
  128OSM    H3F13763   5.953   5.536   6.843  0.4436  0.5632  0.2043
  128OSM    H3G13764   5.904   5.375   6.902  0.6155  0.3409  0.6977
  128OSM    C4F13765   5.910   5.541   7.048 -0.9438 -0.0604  0.0125
  128OSM    H4F13766   5.821   5.530   7.113 -0.5298 -1.2701  0.3804
  128OSM    H4G13767   5.940   5.648   7.039  0.0418 -0.3018  0.4062
  128OSM    C5F13768   6.028   5.467   7.103 -0.3454 -0.0315  0.2146
  128OSM    H5F13769   6.124   5.484   7.050  0.1650 -2.0003  0.4562
  128OSM    H5G13770   5.998   5.360   7.108 -0.0322 -0.1100  0.4453
  128OSM    C6F13771   6.059   5.497   7.256 -0.6919 -0.3785  0.0555
  128OSM    H6F13772   6.088   5.604   7.267 -0.0355 -0.4516 -0.9207
  128OSM    H6G13773   6.141   5.436   7.298  0.1687  0.3200 -0.5988
  128OSM    C7F13774   5.933   5.470   7.342 -0.0473 -0.1191  0.0732
  128OSM    H7F13775   5.887   5.378   7.301  0.3011 -0.6305  0.8151
  128OSM    H7G13776   5.860   5.554   7.336  2.1768  1.7944 -0.8271
  128OSM    C8F13777   5.965   5.436   7.492  0.1415  0.2972 -0.3365
  128OSM    H8F13778   6.029   5.347   7.510 -0.6357  0.0934  1.5779
  128OSM    H8G13779   5.865   5.417   7.539 -0.2738 -0.7202 -1.6087
  128OSM    C9F13780   6.022   5.558   7.563  1.3443  0.2976 -0.1136
  128OSM    H9F13781   6.056   5.641   7.499 -0.0694  0.6482 -0.4328
  128OSM   C10F13782   6.034   5.570   7.693  0.6547 -0.3400  0.4930
  128OSM   H10F13783   6.068   5.665   7.737 -1.4581  0.2525  0.9087
  128OSM   C11F13784   5.986   5.472   7.795  0.4275  0.4173 -0.0535
  128OSM   H11F13785   6.057   5.467   7.880 -0.9599 -0.8146  1.0580
  128OSM   H11G13786   5.982   5.371   7.748 -1.2845  1.0123 -1.2494
  128OSM   C12F13787   5.844   5.501   7.857 -0.3956  0.5251 -0.3541
  128OSM   H12F13788   5.817   5.417   7.925  1.2681  0.8759  0.7755
  128OSM   H12G13789   5.773   5.489   7.772 -0.2954  0.9367 -0.4970
  128OSM   C13F13790   5.820   5.633   7.929 -0.2251 -0.5593 -0.4387
  128OSM   H13F13791   5.837   5.709   7.850  1.7839 -0.7620 -0.2398
  128OSM   H13G13792   5.902   5.629   8.004  0.1532 -1.7273 -0.8962
  128OSM   C14F13793   5.675   5.661   7.976  0.1892 -0.6529 -0.1462
  128OSM   H14F13794   5.630   5.587   8.044  1.2851 -0.5063  0.7610
  128OSM   H14G13795   5.618   5.664   7.880  1.3358  1.9201 -0.7999
  128OSM   C15F13796   5.650   5.799   8.040  0.3277  0.2125 -0.0387
  128OSM   H15F13797   5.540   5.801   8.046  0.2266 -1.2108 -1.0630
  128OSM   H15G13798   5.689   5.867   7.960 -1.6129 -1.4268 -2.4713
  128OSM   C16F13799   5.718   5.828   8.175  0.2378  0.2274  0.8484
  128OSM   H16F13800   5.828   5.837   8.160 -0.0282 -2.0429 -3.2004
  128OSM   H16G13801   5.689   5.742   8.238  1.2807 -0.9372 -0.2397
  128OSM   C17F13802   5.663   5.963   8.232 -0.1552 -0.0734 -0.0997
  128OSM   H17F13803   5.557   5.971   8.262  0.4700  0.9318  1.9650
  128OSM   H17G13804   5.670   6.044   8.156  2.0000 -1.5534 -1.5320
  128OSM   C18F13805   5.739   5.995   8.360 -0.4026 -0.1198  0.0644
  128OSM   H18F13806   5.848   5.994   8.340 -0.3691  0.0862  0.2308
  128OSM   H18G13807   5.721   5.921   8.441  1.6050 -0.7885 -0.0602
  128OSM   H18H13808   5.703   6.094   8.393  0.4935  0.3512 -0.3467
  129OSM      N13809   2.760   2.652   5.986 -0.3803 -1.1950 -1.0542
  129OSM    C1513810   2.773   2.791   6.019 -0.3555 -0.0923  0.3799
  129OSM   H15A13811   2.773   2.851   5.929  0.2762  1.1304  1.1795
  129OSM   H15B13812   2.870   2.821   6.057 -0.3873  1.5466 -0.7572
  129OSM   H15C13813   2.689   2.825   6.077  0.4788  0.4910  1.2644
  129OSM    C1413814   2.649   2.647   5.882 -0.5072  0.1286  0.8549
  129OSM   H14A13815   2.556   2.690   5.915 -0.8193 -0.7465  1.1324
  129OSM   H14B13816   2.633   2.543   5.860 -0.9385  0.4700 -0.4512
  129OSM   H14C13817   2.678   2.690   5.788 -1.4710 -1.8263 -0.3603
  129OSM    C1313818   2.884   2.616   5.923 -0.0509  0.1325  0.1579
  129OSM   H13A13819   2.912   2.670   5.834 -0.9187 -0.0069 -0.2043
  129OSM   H13B13820   2.883   2.514   5.886  0.2616 -0.5117  1.8734
  129OSM   H13C13821   2.970   2.629   5.987  0.7644  1.7511 -1.2402
  129OSM    C1213822   2.716   2.557   6.102  0.5975 -0.4102  0.4618
  129OSM   H12A13823   2.740   2.460   6.063  2.0191  0.4268 -0.7753
  129OSM   H12B13824   2.609   2.573   6.099  0.6321 -0.2644 -0.0226
  129OSM    C1113825   2.772   2.576   6.235  0.5869 -0.3908  0.3562
  129OSM   H11A13826   2.707   2.521   6.306  3.3683 -0.7608  2.7310
  129OSM   H11B13827   2.760   2.684   6.260  1.5545  0.0332 -0.9623
  129OSM      P13828   2.933   2.374   6.238 -0.0668 -0.1749 -0.1122
  129OSM    O1313829   2.812   2.308   6.185  0.3269  0.2917 -0.7635
  129OSM    O1413830   3.047   2.361   6.144  0.5152  0.5103  0.1197
  129OSM    O1113831   2.956   2.334   6.390  0.0606  0.2268  0.4323
  129OSM    O1213832   2.910   2.534   6.249  0.5033  0.4331  0.1147
  129OSM    C1S13833   2.989   2.442   6.482  0.2595  0.3503  1.1575
  129OSM    H1S13834   2.912   2.521   6.474 -0.9150 -0.9629 -1.0703
  129OSM    H1T13835   3.089   2.476   6.447  1.3597 -1.7205  2.1703
  129OSM     NF13836   2.993   2.509   6.709 -0.2639  0.6569  0.3744
  129OSM    HNF13837   3.081   2.543   6.739  0.0990 -0.7827  0.9613
  129OSM    C2S13838   3.000   2.389   6.623  0.0423 -0.7811  0.0785
  129OSM    H2S13839   2.910   2.328   6.647  0.4264 -0.6685  1.9017
  129OSM    C3S13840   3.122   2.300   6.638  0.6886 -0.8545  0.9205
  129OSM    H3S13841   3.205   2.363   6.600 -0.2427 -0.3761 -0.3479
  129OSM     O313842   3.122   2.188   6.554  0.0407  0.1525  0.0636
  129OSM    HO313843   3.061   2.200   6.481  2.4886  0.3823 -1.9972
  129OSM    C4S13844   3.133   2.257   6.784 -0.6720  0.5563  0.0897
  129OSM    H4S13845   3.053   2.187   6.813 -0.4968  0.4787  0.3877
  129OSM    C5S13846   3.227   2.300   6.873 -0.2713  0.7304  0.1777
  129OSM    H5S13847   3.294   2.382   6.843  1.5041 -0.9881 -0.6547
  129OSM    C6S13848   3.239   2.259   7.019  0.7578  0.8963  0.1832
  129OSM    H6S13849   3.329   2.195   7.034  0.0453 -0.6209 -1.7872
  129OSM    H6T13850   3.142   2.211   7.044 -0.5320  3.0038 -0.6423
  129OSM    C7S13851   3.259   2.381   7.111  0.5633 -0.0989  0.5774
  129OSM    H7S13852   3.169   2.445   7.105 -2.8822 -4.5572  1.9990
  129OSM    H7T13853   3.349   2.442   7.089  1.4578 -0.5307  2.8915
  129OSM    C8S13854   3.272   2.331   7.250 -0.5031 -0.7348 -0.2859
  129OSM    H8S13855   3.364   2.268   7.249 -0.7798 -1.1354 -0.4756
  129OSM    H8T13856   3.182   2.276   7.285 -1.1454  0.7051  0.3473
  129OSM    C9S13857   3.282   2.431   7.365  0.2784 -0.5386  0.0847
  129OSM    H9S13858   3.182   2.479   7.374 -0.1252 -1.5268  1.0478
  129OSM    H9T13859   3.345   2.516   7.331  0.2025 -0.6960 -0.4477
  129OSM   C10S13860   3.311   2.369   7.503  0.6737  0.2185  0.5403
  129OSM   H10S13861   3.415   2.330   7.502  0.0046 -1.6240 -1.3383
  129OSM   H10T13862   3.242   2.284   7.525  1.3155 -1.1114 -2.3460
  129OSM   C11S13863   3.312   2.469   7.623  0.1629 -0.2260  0.2873
  129OSM   H11S13864   3.210   2.510   7.639  0.2873  0.4900 -0.7310
  129OSM   H11T13865   3.374   2.550   7.579 -1.2647  0.6509 -0.1154
  129OSM   C12S13866   3.382   2.419   7.745  0.9273  0.3039  0.8396
  129OSM   H12S13867   3.492   2.419   7.732  1.3141  0.1013  3.7175
  129OSM   H12T13868   3.361   2.311   7.760  1.3785  0.2846  1.3552
  129OSM   C13S13869   3.332   2.499   7.865 -0.3011  0.8389  0.3172
  129OSM   H13S13870   3.229   2.462   7.879 -1.5485  2.5526 -3.5632
  129OSM   H13T13871   3.333   2.608   7.844 -1.0148 -0.1045 -5.4269
  129OSM   C14S13872   3.422   2.479   7.984 -0.2150 -0.2703  0.1546
  129OSM   H14S13873   3.389   2.557   8.056 -1.7397 -0.5662 -0.1975
  129OSM   H14T13874   3.524   2.505   7.951 -0.1313 -0.2432  0.4351
  129OSM   C15S13875   3.422   2.332   8.032 -0.0082  0.3055  0.0084
  129OSM   H15S13876   3.450   2.265   7.947 -1.2117  1.1162 -1.0479
  129OSM   H15T13877   3.315   2.312   8.056 -0.2156  1.2578 -0.1012
  129OSM   C16S13878   3.517   2.309   8.146 -0.4904 -0.4901  0.9757
  129OSM   H16S13879   3.461   2.346   8.234 -2.2174 -1.6146  0.3646
  129OSM   H16T13880   3.614   2.362   8.134 -0.8752  0.2002  0.8670
  129OSM   C17S13881   3.531   2.155   8.162 -0.0648 -0.5517  0.1859
  129OSM   H17S13882   3.586   2.130   8.068  0.7396  0.1980  0.4442
  129OSM   H17T13883   3.431   2.109   8.170  0.7227 -1.8763  3.0958
  129OSM   C18S13884   3.608   2.101   8.290  0.3622 -0.0890 -0.0094
  129OSM   H18S13885   3.552   2.144   8.376 -2.0076 -0.3761 -1.3587
  129OSM   H18T13886   3.715   2.127   8.305  0.3215  0.2976 -0.3649
  129OSM   H18U13887   3.593   1.991   8.294 -1.0696  0.1606  2.4371
  129OSM    C1F13888   2.876   2.561   6.750 -0.1494  0.2177  0.0939
  129OSM     OF13889   2.771   2.521   6.702  0.0387 -0.1002 -0.2025
  129OSM    C2F13890   2.881   2.673   6.842 -0.0322  0.2443 -0.5077
  129OSM    H2F13891   2.776   2.710   6.848 -0.7777 -1.7850 -0.5679
  129OSM    H2G13892   2.943   2.759   6.809 -1.7357  0.9768 -1.8856
  129OSM    C3F13893   2.943   2.635   6.978 -0.1201  0.1496 -0.2093
  129OSM    H3F13894   3.048   2.602   6.960 -0.5875 -0.0844 -2.6502
  129OSM    H3G13895   2.884   2.549   7.016  0.0254  0.9345  1.8844
  129OSM    C4F13896   2.942   2.740   7.090 -0.1924  0.0239 -0.3602
  129OSM    H4F13897   2.834   2.757   7.110 -0.4693 -0.0407 -1.7221
  129OSM    H4G13898   2.964   2.839   7.043  0.9500 -0.2055 -0.3178
  129OSM    C5F13899   3.025   2.701   7.211  0.3404 -0.4985  0.7447
  129OSM    H5F13900   3.131   2.724   7.187  0.1378  1.6429  1.7198
  129OSM    H5G13901   3.010   2.594   7.234 -0.1473 -1.1880 -2.5058
  129OSM    C6F13902   3.007   2.789   7.333 -0.3776 -0.5732 -0.2623
  129OSM    H6F13903   2.902   2.770   7.362 -1.6032  0.4555 -3.8140
  129OSM    H6G13904   3.025   2.897   7.311  0.2859 -0.8896 -1.2991
  129OSM    C7F13905   3.107   2.747   7.444 -0.4889  0.5260 -0.3457
  129OSM    H7F13906   3.211   2.768   7.413 -1.3563  2.0342 -2.3946
  129OSM    H7G13907   3.083   2.640   7.463 -1.7359  0.7686 -0.5040
  129OSM    C8F13908   3.072   2.822   7.578 -0.3147 -0.2866 -0.2632
  129OSM    H8F13909   3.113   2.778   7.671  0.5139 -0.8505 -0.8849
  129OSM    H8G13910   2.962   2.810   7.584 -0.0079 -2.3500  2.2309
  129OSM    C9F13911   3.127   2.958   7.581 -0.1228 -0.1500 -0.4630
  129OSM    H9F13912   3.044   3.031   7.587 -0.9475 -1.0163 -1.1363
  129OSM   C10F13913   3.254   3.001   7.576  0.2371 -0.4935 -1.5435
  129OSM   H10F13914   3.276   3.108   7.574  0.3150 -0.5118 -1.7149
  129OSM   C11F13915   3.376   2.912   7.573 -0.4470 -0.1551  0.0996
  129OSM   H11F13916   3.412   2.886   7.471  2.4864  0.0570  1.0311
  129OSM   H11G13917   3.355   2.813   7.618 -1.6335  0.4549  0.9146
  129OSM   C12F13918   3.486   2.977   7.664 -0.7463 -0.5857  0.3345
  129OSM   H12F13919   3.513   3.077   7.626 -2.9266  0.2430  0.9214
  129OSM   H12G13920   3.580   2.919   7.652  1.2158  2.6595 -0.3674
  129OSM   C13F13921   3.451   2.998   7.812  0.1176 -0.0393 -0.0462
  129OSM   H13F13922   3.436   2.896   7.854 -0.4901  0.4685  0.9806
  129OSM   H13G13923   3.352   3.045   7.829 -0.1097 -0.0314 -1.3162
  129OSM   C14F13924   3.545   3.076   7.904  0.6762 -0.1381  0.8750
  129OSM   H14F13925   3.555   3.182   7.874  2.0839 -0.7763 -0.9982
  129OSM   H14G13926   3.643   3.025   7.895 -0.5070 -2.3144 -0.0771
  129OSM   C15F13927   3.508   3.071   8.055  0.6593 -0.0841  0.2365
  129OSM   H15F13928   3.508   2.961   8.073 -0.1771  0.0996  1.4492
  129OSM   H15G13929   3.405   3.103   8.082  0.9077  0.3267  0.6991
  129OSM   C16F13930   3.607   3.142   8.142  0.4404  0.1737  0.1938
  129OSM   H16F13931   3.601   3.252   8.128 -1.0407  0.5795  3.5100
  129OSM   H16G13932   3.711   3.114   8.111 -1.1369 -0.5351 -4.9217
  129OSM   C17F13933   3.581   3.134   8.299  0.2347  0.1669 -0.0783
  129OSM   H17F13934   3.606   3.029   8.324  0.2270  0.6380  2.0516
  129OSM   H17G13935   3.473   3.162   8.305  0.6978  2.0884 -0.2828
  129OSM   C18F13936   3.666   3.225   8.393  0.1673 -0.3925  0.5788
  129OSM   H18F13937   3.660   3.332   8.364 -0.1874 -1.0056 -1.6916
  129OSM   H18G13938   3.773   3.198   8.394  0.5258  0.9329 -0.4469
  129OSM   H18H13939   3.622   3.218   8.495 -0.4429  0.6793  0.3994
  130OSM      N13940   6.517   4.436   6.232 -0.6799 -0.7965  0.5586
  130OSM    C1513941   6.450   4.507   6.120 -0.1648 -0.1644  0.1009
  130OSM   H15A13942   6.344   4.523   6.129 -0.5441  0.1994 -3.8224
  130OSM   H15B13943   6.458   4.447   6.031  0.1403 -0.9697  0.6706
  130OSM   H15C13944   6.503   4.600   6.103  0.7202 -0.2913  2.0794
  130OSM    C1413945   6.440   4.306   6.250  0.0571  0.2681 -0.5056
  130OSM   H14A13946   6.340   4.327   6.286 -0.0794  1.1083 -1.3349
  130OSM   H14B13947   6.500   4.250   6.320 -2.3332 -0.6909  0.8678
  130OSM   H14C13948   6.434   4.248   6.159  1.6155  3.1472 -2.5175
  130OSM    C1313949   6.659   4.410   6.184  0.2130  0.3883 -0.1589
  130OSM   H13A13950   6.709   4.506   6.181  1.6494 -0.3914 -2.5879
  130OSM   H13B13951   6.666   4.359   6.089  0.3108 -0.5951  0.3769
  130OSM   H13C13952   6.710   4.346   6.254  2.2414  0.9552 -1.0726
  130OSM    C1213953   6.518   4.519   6.357  0.2468 -0.1257  0.1356
  130OSM   H12A13954   6.544   4.460   6.443 -2.2406 -1.2229  0.1669
  130OSM   H12B13955   6.415   4.549   6.370  0.6434  1.1226  0.4702
  130OSM    C1113956   6.604   4.643   6.361 -0.3517 -0.8175 -0.4078
  130OSM   H11A13957   6.705   4.604   6.339  0.8674 -0.1886  3.5595
  130OSM   H11B13958   6.598   4.689   6.462 -0.0048  1.6294 -1.4527
  130OSM      P13959   6.444   4.844   6.296  0.3573  0.0633  0.1752
  130OSM    O1313960   6.408   4.921   6.175  0.4731  0.2801  0.1678
  130OSM    O1413961   6.329   4.781   6.365  0.1428 -0.1426 -0.1224
  130OSM    O1113962   6.513   4.942   6.402 -0.0009 -0.7171 -0.6132
  130OSM    O1213963   6.550   4.731   6.264  0.5944  0.3969  0.1498
  130OSM    C1S13964   6.432   5.003   6.505 -0.0303 -0.3682 -0.0885
  130OSM    H1S13965   6.325   4.975   6.495 -0.8401  2.3189  0.6059
  130OSM    H1T13966   6.430   5.113   6.489  0.1128 -0.3385  0.0905
  130OSM     NF13967   6.392   5.001   6.748 -0.4125  0.4547  0.2673
  130OSM    HNF13968   6.408   5.082   6.804  1.6851  0.9077 -0.9399
  130OSM    C2S13969   6.486   4.965   6.646 -0.5240 -0.3547 -0.0689
  130OSM    H2S13970   6.489   4.854   6.656  0.8217 -0.1757  1.7366
  130OSM    C3S13971   6.624   5.022   6.669  0.6560 -0.0962  0.2419
  130OSM    H3S13972   6.621   5.133   6.668 -0.1267 -0.1186 -1.0588
  130OSM     O313973   6.714   4.990   6.566 -0.2862  0.0013 -0.1075
  130OSM    HO313974   6.650   4.967   6.498 -0.0466  1.4797 -0.8646
  130OSM    C4S13975   6.691   4.964   6.798  0.1061 -0.3937  0.7816
  130OSM    H4S13976   6.712   4.856   6.798  0.1752 -0.4651 -3.5158
  130OSM    C5S13977   6.725   5.033   6.907 -0.1950  0.3442  0.2233
  130OSM    H5S13978   6.715   5.142   6.894  0.7698  0.3904 -0.2385
  130OSM    C6S13979   6.784   4.990   7.042 -0.3342  0.3109 -0.6070
  130OSM    H6S13980   6.892   4.973   7.025  0.7044  2.9147  2.7626
  130OSM    H6T13981   6.740   4.894   7.074 -1.1731  0.5335 -1.0814
  130OSM    C7S13982   6.746   5.093   7.149 -0.0173 -0.4659 -0.0829
  130OSM    H7S13983   6.636   5.092   7.167 -0.5347  1.4998 -2.6851
  130OSM    H7T13984   6.781   5.196   7.125  0.6693 -0.4824  0.8465
  130OSM    C8S13985   6.819   5.064   7.290 -0.0362 -0.4750 -0.0349
  130OSM    H8S13986   6.929   5.080   7.284 -0.1531  0.1632 -0.4648
  130OSM    H8T13987   6.805   4.955   7.305 -1.5956 -0.5150 -1.5859
  130OSM    C9S13988   6.772   5.153   7.397 -0.0303 -0.0054 -0.2534
  130OSM    H9S13989   6.661   5.152   7.398 -0.0602  1.9567  1.7184
  130OSM    H9T13990   6.787   5.262   7.382  0.8445  0.5005  3.5953
  130OSM   C10S13991   6.840   5.123   7.533  0.2653 -0.0220  0.4405
  130OSM   H10S13992   6.949   5.125   7.510  0.0364  2.1507 -0.5964
  130OSM   H10T13993   6.819   5.021   7.570 -2.1341 -0.7403 -2.7132
  130OSM   C11S13994   6.815   5.224   7.642 -0.3311 -0.1910 -0.0336
  130OSM   H11S13995   6.704   5.219   7.652 -0.7118  2.3001 -2.4926
  130OSM   H11T13996   6.827   5.329   7.609 -0.9653 -0.4452 -1.1293
  130OSM   C12S13997   6.893   5.194   7.765 -0.0470  0.4692 -0.1932
  130OSM   H12S13998   7.001   5.212   7.746  0.5315 -0.6579  1.8953
  130OSM   H12T13999   6.871   5.086   7.783 -2.1065  0.5763 -1.9434
  130OSM   C13S14000   6.846   5.280   7.882 -0.3322 -0.0922  0.0608
  130OSM   H13S14001   6.743   5.246   7.904 -0.3836  0.6285  0.9447
  130OSM   H13T14002   6.826   5.387   7.857 -0.1417  0.3379  1.7424
  130OSM   C14S14003   6.926   5.267   8.013  0.7616 -0.1265  0.0400
  130OSM   H14S14004   7.032   5.295   7.995  1.0406 -1.0879  0.1768
  130OSM   H14T14005   6.927   5.160   8.042  0.1590  0.4889  2.4078
  130OSM   C15S14006   6.862   5.346   8.123  0.2216  0.8352  0.1476
  130OSM   H15S14007   6.753   5.327   8.129  0.0576  1.7244  0.0059
  130OSM   H15T14008   6.859   5.455   8.101  1.4035  1.6142  3.5576
  130OSM   C16S14009   6.930   5.318   8.265 -0.1813 -0.4795 -0.5579
  130OSM   H16S14010   7.038   5.341   8.267 -0.9551  3.5100  0.8844
  130OSM   H16T14011   6.921   5.208   8.276  0.0665 -0.3996  0.4638
  130OSM   C17S14012   6.842   5.395   8.366 -0.1086  0.7057 -0.7256
  130OSM   H17S14013   6.834   5.348   8.466  0.3795 -0.8755 -1.3978
  130OSM   H17T14014   6.738   5.394   8.327 -0.1203  2.8164 -0.8097
  130OSM   C18S14015   6.891   5.538   8.381  0.4079  1.3396  0.0200
  130OSM   H18S14016   6.826   5.589   8.455  0.2817  1.9403 -0.5075
  130OSM   H18T14017   6.879   5.582   8.280  3.1309  1.0129 -0.4734
  130OSM   H18U14018   6.998   5.545   8.411  0.5363  0.4924 -0.2133
  130OSM    C1F14019   6.265   4.948   6.752  0.0844  0.3528 -0.3546
  130OSM     OF14020   6.251   4.827   6.712  0.6411  0.1276  0.1042
  130OSM    C2F14021   6.145   5.017   6.809  0.3573  0.1509 -0.4444
  130OSM    H2F14022   6.071   5.012   6.727 -0.3479 -1.3981  0.2822
  130OSM    H2G14023   6.175   5.123   6.827 -0.8763 -0.1005  3.5433
  130OSM    C3F14024   6.075   4.930   6.916 -0.4866  0.5055  0.7975
  130OSM    H3F14025   6.059   4.836   6.859 -0.1347  0.3029  1.0371
  130OSM    H3G14026   5.978   4.982   6.930 -0.0428  1.5785 -0.0334
  130OSM    C4F14027   6.149   4.908   7.047  0.6109  0.4763  0.2823
  130OSM    H4F14028   6.259   4.897   7.038  0.5041 -2.2030  1.6589
  130OSM    H4G14029   6.097   4.815   7.082  0.4803  1.0124  1.5643
  130OSM    C5F14030   6.118   5.017   7.152  0.1977  0.2323 -0.9507
  130OSM    H5F14031   6.013   5.055   7.150 -0.5321 -1.6385  0.3374
  130OSM    H5G14032   6.177   5.098   7.105 -0.7091  0.5818 -1.4923
  130OSM    C6F14033   6.179   4.982   7.287  0.2717 -0.2583 -0.1206
  130OSM    H6F14034   6.285   4.965   7.260  0.9898  2.0331  1.1940
  130OSM    H6G14035   6.138   4.892   7.338 -2.2482  1.4971  1.0675
  130OSM    C7F14036   6.158   5.101   7.386  0.1130  0.6352  0.3526
  130OSM    H7F14037   6.050   5.120   7.404  0.1896  0.2335  1.2336
  130OSM    H7G14038   6.188   5.195   7.334 -0.3931  0.7727  0.3022
  130OSM    C8F14039   6.237   5.080   7.516 -0.2773 -0.5789 -0.0797
  130OSM    H8F14040   6.329   5.030   7.479 -0.5679  0.5199 -2.3867
  130OSM    H8G14041   6.183   4.996   7.566  1.0374 -1.2671  0.2002
  130OSM    C9F14042   6.256   5.198   7.598  0.2135  0.1342  0.5330
  130OSM    H9F14043   6.259   5.293   7.542 -3.9553  0.6196  0.9308
  130OSM   C10F14044   6.269   5.190   7.732  0.5078 -1.1327 -0.0159
  130OSM   H10F14045   6.289   5.284   7.785 -2.4222  0.1046 -0.9907
  130OSM   C11F14046   6.265   5.068   7.816 -0.0299 -0.0192 -1.1246
  130OSM   H11F14047   6.223   4.980   7.762  0.3558 -0.3802 -0.8416
  130OSM   H11G14048   6.186   5.090   7.890  2.0754  2.9013  0.3465
  130OSM   C12F14049   6.400   5.012   7.865 -0.7136 -0.5226 -0.0327
  130OSM   H12F14050   6.453   4.950   7.791 -1.3834 -1.5234  0.3084
  130OSM   H12G14051   6.355   4.952   7.947 -0.8720  0.1751  0.3957
  130OSM   C13F14052   6.495   5.122   7.928 -0.5089  0.1724 -0.0501
  130OSM   H13F14053   6.533   5.198   7.857  0.5075  0.8055  1.1664
  130OSM   H13G14054   6.587   5.070   7.963 -0.9079  0.4045  1.3662
  130OSM   C14F14055   6.426   5.217   8.033 -0.7204 -0.2117  0.2689
  130OSM   H14F14056   6.341   5.266   7.982 -0.1818  2.1385  1.5645
  130OSM   H14G14057   6.499   5.296   8.059 -0.8504 -1.0189  3.3944
  130OSM   C15F14058   6.391   5.142   8.162 -0.0992  0.5315 -0.1344
  130OSM   H15F14059   6.473   5.085   8.211 -0.3707 -0.2994 -0.6317
  130OSM   H15G14060   6.330   5.051   8.139 -0.1725  0.8636 -1.2733
  130OSM   C16F14061   6.299   5.237   8.251 -0.6147  0.1027  0.3844
  130OSM   H16F14062   6.211   5.259   8.186 -1.5992 -2.1785  0.8701
  130OSM   H16G14063   6.349   5.331   8.282  0.2454  0.1368 -1.0876
  130OSM   C17F14064   6.238   5.165   8.372 -0.1356 -0.6371 -0.1779
  130OSM   H17F14065   6.191   5.237   8.443  1.4434  2.0109 -1.7538
  130OSM   H17G14066   6.319   5.112   8.426 -0.0288 -2.0622 -1.7031
  130OSM   C18F14067   6.134   5.054   8.345 -0.0699  1.0363  0.1080
  130OSM   H18F14068   6.047   5.075   8.280 -2.1858 -1.4512  2.0376
  130OSM   H18G14069   6.088   5.023   8.442 -0.3501  1.4892  0.1189
  130OSM   H18H14070   6.183   4.964   8.301 -0.0019  1.0134  0.2308
  131OSM      N14071   3.453   0.988   5.571 -0.0186 -0.5733  0.1868
  131OSM    C1514072   3.504   0.922   5.450  0.3189 -0.2143  0.2697
  131OSM   H15A14073   3.518   0.819   5.479 -1.7425 -0.6294 -0.0680
  131OSM   H15B14074   3.591   0.965   5.404  0.7139 -0.3853  0.8457
  131OSM   H15C14075   3.427   0.922   5.374  1.8288 -1.4379 -1.2933
  131OSM    C1414076   3.346   0.902   5.631  0.2801  0.7002  0.0884
  131OSM   H14A14077   3.335   0.918   5.737  2.9620  0.7994  0.3676
  131OSM   H14B14078   3.366   0.796   5.630  0.0538  0.6614 -0.6304
  131OSM   H14C14079   3.257   0.921   5.572  0.8398  0.5724 -0.8013
  131OSM    C1314080   3.574   0.988   5.662 -0.2196 -0.6433 -0.1569
  131OSM   H13A14081   3.649   1.054   5.621  2.1467 -0.5281  4.0231
  131OSM   H13B14082   3.621   0.891   5.676 -1.2354 -1.1013  0.1174
  131OSM   H13C14083   3.542   1.024   5.759  1.0694 -2.2784  0.9272
  131OSM    C1214084   3.403   1.127   5.533 -0.3602 -0.5912  0.0913
  131OSM   H12A14085   3.316   1.118   5.470  0.4656 -1.1035 -0.9792
  131OSM   H12B14086   3.468   1.165   5.455 -0.7062  1.3112  0.6883
  131OSM    C1114087   3.386   1.230   5.639  0.4061 -0.6638  0.0434
  131OSM   H11A14088   3.375   1.329   5.589  2.0764  0.2828  1.5089
  131OSM   H11B14089   3.485   1.246   5.688  0.8057  0.4129 -1.0679
  131OSM      P14090   3.286   1.158   5.881  0.1305 -0.4193 -0.5816
  131OSM    O1314091   3.228   1.266   5.958 -0.3381  0.0825  0.1991
  131OSM    O1414092   3.245   1.018   5.905 -0.9580  0.5262  0.2050
  131OSM    O1114093   3.443   1.146   5.904  0.5387  0.0625 -0.0814
  131OSM    O1214094   3.277   1.195   5.727  0.8326 -0.2292 -0.2870
  131OSM    C1S14095   3.513   1.185   6.022  0.1781 -0.2462  0.5752
  131OSM    H1S14096   3.477   1.277   6.072 -0.0223  0.7419 -1.3041
  131OSM    H1T14097   3.619   1.201   5.992 -0.1625  0.8382 -0.0878
  131OSM     NF14098   3.546   1.112   6.251 -0.2595  0.2007 -0.2704
  131OSM    HNF14099   3.645   1.101   6.262 -0.1597  2.4025  1.5326
  131OSM    C2S14100   3.499   1.072   6.126 -0.3748 -0.0562  0.3101
  131OSM    H2S14101   3.390   1.053   6.142  0.4626 -3.2567  2.6855
  131OSM    C3S14102   3.562   0.938   6.080 -0.4798  0.2475  0.2205
  131OSM    H3S14103   3.667   0.961   6.050 -1.4354 -0.9365 -4.4140
  131OSM     O314104   3.502   0.864   5.973  0.2214 -0.2755 -0.1040
  131OSM    HO314105   3.434   0.924   5.942 -1.3367 -1.2667  1.3009
  131OSM    C4S14106   3.566   0.840   6.189  0.3671  0.6035  0.3964
  131OSM    H4S14107   3.471   0.794   6.219  0.1202 -0.8103 -2.3650
  131OSM    C5S14108   3.681   0.786   6.240 -0.6063 -0.4971 -0.1640
  131OSM    H5S14109   3.780   0.825   6.211 -0.6092 -0.7917 -0.5850
  131OSM    C6S14110   3.675   0.686   6.356  0.2728 -0.5547 -1.2087
  131OSM    H6S14111   3.721   0.592   6.319  1.5538  0.8737 -3.3354
  131OSM    H6T14112   3.568   0.671   6.383 -0.0819  0.9619 -1.7335
  131OSM    C7S14113   3.741   0.730   6.483  0.3000  0.2522 -0.1999
  131OSM    H7S14114   3.847   0.698   6.482  0.6387  1.2669 -3.9203
  131OSM    H7T14115   3.691   0.677   6.567  0.5520  2.4407  1.3711
  131OSM    C8S14116   3.725   0.871   6.522 -0.5272 -0.7782 -0.1970
  131OSM    H8S14117   3.622   0.912   6.516 -0.1861  0.6260  2.5929
  131OSM    H8T14118   3.795   0.937   6.466  0.3361 -1.2455  0.3088
  131OSM    C9S14119   3.767   0.893   6.673  0.3271 -0.5781  0.3062
  131OSM    H9S14120   3.874   0.861   6.671  0.2672 -0.7407 -0.6196
  131OSM    H9T14121   3.710   0.821   6.736 -0.6857  0.8226  1.0041
  131OSM   C10S14122   3.750   1.041   6.709  0.7695  0.1349  0.0278
  131OSM   H10S14123   3.642   1.066   6.716  0.6371 -0.5398  0.4320
  131OSM   H10T14124   3.796   1.111   6.636 -1.8693  3.3934  1.3506
  131OSM   C11S14125   3.804   1.062   6.853 -0.7270  0.2792 -0.1158
  131OSM   H11S14126   3.800   1.170   6.879 -4.2581 -0.1164  1.4033
  131OSM   H11T14127   3.908   1.024   6.852 -0.9198 -0.2463 -1.0312
  131OSM   C12S14128   3.725   0.988   6.967 -0.1128 -0.0383  0.6214
  131OSM   H12S14129   3.788   0.971   7.057 -1.0714 -0.6749  1.1718
  131OSM   H12T14130   3.698   0.891   6.922 -0.4771  0.2476  0.2226
  131OSM   C13S14131   3.601   1.052   7.018  0.7265 -0.3951 -0.2684
  131OSM   H13S14132   3.505   1.031   6.966  1.0227 -1.5312 -0.3679
  131OSM   H13T14133   3.625   1.160   7.008  1.9897 -0.7513 -1.1803
  131OSM   C14S14134   3.568   1.031   7.165  0.3653 -0.0954  0.4886
  131OSM   H14S14135   3.571   0.920   7.177  0.7962 -0.0261  1.0295
  131OSM   H14T14136   3.462   1.059   7.180  0.3902  1.6361 -2.3068
  131OSM   C15S14137   3.671   1.097   7.264  0.0999 -0.5993  0.4792
  131OSM   H15S14138   3.661   1.207   7.252  4.7604  0.0711  1.5312
  131OSM   H15T14139   3.771   1.065   7.227 -1.1796 -3.1917 -0.8763
  131OSM   C16S14140   3.645   1.064   7.416 -0.5000 -0.9160  0.8250
  131OSM   H16S14141   3.662   0.956   7.437 -0.4704 -1.3590 -1.3569
  131OSM   H16T14142   3.535   1.080   7.425 -0.5284 -0.5047 -0.1336
  131OSM   C17S14143   3.732   1.145   7.516 -0.0473  0.7498 -0.0611
  131OSM   H17S14144   3.699   1.123   7.619 -0.3993  0.9604 -0.1279
  131OSM   H17T14145   3.709   1.252   7.496 -2.2457  0.3907  0.3936
  131OSM   C18S14146   3.883   1.126   7.494 -0.0097 -0.2906  0.2821
  131OSM   H18S14147   3.944   1.179   7.570  1.7173 -1.7635 -0.0234
  131OSM   H18T14148   3.911   1.174   7.398 -2.5931 -1.2956 -1.0209
  131OSM   H18U14149   3.920   1.021   7.495 -0.9583 -0.6313  0.2762
  131OSM    C1F14150   3.474   1.190   6.338  0.2185 -0.5086  0.5033
  131OSM     OF14151   3.361   1.229   6.319 -0.4324  0.6594 -0.6078
  131OSM    C2F14152   3.548   1.243   6.459  0.1895  0.4045  0.2396
  131OSM    H2F14153   3.652   1.265   6.427  0.5841 -1.3415  0.2651
  131OSM    H2G14154   3.562   1.168   6.540 -2.4218 -1.3767 -0.8796
  131OSM    C3F14155   3.479   1.377   6.518 -0.1478  0.7898 -0.3872
  131OSM    H3F14156   3.383   1.347   6.566 -1.1823  0.8960 -2.3502
  131OSM    H3G14157   3.456   1.452   6.439 -0.2912 -0.2182 -1.3075
  131OSM    C4F14158   3.561   1.430   6.643  0.8285 -0.7172  0.1766
  131OSM    H4F14159   3.550   1.540   6.628  0.9306 -0.7595 -0.2169
  131OSM    H4G14160   3.666   1.400   6.625  0.3467 -1.6699 -1.2008
  131OSM    C5F14161   3.511   1.387   6.784 -0.2657 -0.2890 -0.3820
  131OSM    H5F14162   3.495   1.278   6.797 -1.2680 -0.4801 -2.8597
  131OSM    H5G14163   3.416   1.438   6.810  0.3924  0.2796  0.9374
  131OSM    C6F14164   3.616   1.440   6.892 -0.1535  0.4919  0.1961
  131OSM    H6F14165   3.662   1.535   6.860  0.3344  0.0937 -0.2961
  131OSM    H6G14166   3.692   1.359   6.884 -0.9284 -0.0128 -3.1524
  131OSM    C7F14167   3.564   1.446   7.042  0.3063 -0.0358  0.4507
  131OSM    H7F14168   3.516   1.350   7.072  0.8323 -0.4802 -0.1125
  131OSM    H7G14169   3.494   1.532   7.046  0.4740  0.0683  1.2087
  131OSM    C8F14170   3.684   1.466   7.137 -0.4590  0.3865 -0.3411
  131OSM    H8F14171   3.766   1.394   7.114  0.0953  1.1925 -0.9513
  131OSM    H8G14172   3.647   1.423   7.232  1.9115  0.2402  0.5683
  131OSM    C9F14173   3.739   1.604   7.131 -0.6047  0.1824  0.3647
  131OSM    H9F14174   3.788   1.634   7.037  0.0121 -1.4031  0.1660
  131OSM   C10F14175   3.738   1.688   7.234 -0.3405  0.3904  0.6255
  131OSM   H10F14176   3.793   1.781   7.216 -1.4032  0.6605 -1.4144
  131OSM   C11F14177   3.679   1.659   7.376 -0.5322  0.1619  0.2614
  131OSM   H11F14178   3.581   1.612   7.357 -0.1284 -0.3459 -0.6093
  131OSM   H11G14179   3.665   1.755   7.431 -2.5311  1.3970 -2.2664
  131OSM   C12F14180   3.759   1.559   7.458  0.6291  0.1973  0.3162
  131OSM   H12F14181   3.853   1.609   7.489  2.4260 -2.0811 -1.2512
  131OSM   H12G14182   3.799   1.476   7.395  1.4890  0.9152 -0.0922
  131OSM   C13F14183   3.684   1.522   7.583 -0.1379 -0.2762  0.1244
  131OSM   H13F14184   3.736   1.436   7.630  2.0404  0.0930 -1.5582
  131OSM   H13G14185   3.586   1.484   7.546  0.5660 -0.4016 -1.6278
  131OSM   C14F14186   3.670   1.633   7.688  0.3667  0.2081  0.3670
  131OSM   H14F14187   3.595   1.706   7.650 -0.7062 -0.1155  1.7811
  131OSM   H14G14188   3.766   1.688   7.693  0.8922 -0.7977  1.7513
  131OSM   C15F14189   3.622   1.580   7.818  0.2024  0.3502  0.3208
  131OSM   H15F14190   3.667   1.493   7.870  0.5387  0.4789  0.2521
  131OSM   H15G14191   3.515   1.555   7.806  0.0595  1.2933 -0.4546
  131OSM   C16F14192   3.620   1.676   7.939 -0.3948 -0.6810 -0.2974
  131OSM   H16F14193   3.611   1.780   7.900  0.5445 -0.8731 -1.0560
  131OSM   H16G14194   3.719   1.671   7.990 -0.2238  1.5471 -0.3789
  131OSM   C17F14195   3.510   1.640   8.039  0.2807  0.3245  0.4757
  131OSM   H17F14196   3.490   1.531   8.042  0.2236  0.2608 -1.4491
  131OSM   H17G14197   3.420   1.700   8.012  0.3758 -0.6945 -2.2742
  131OSM   C18F14198   3.556   1.681   8.182  0.6861  0.5263  1.0756
  131OSM   H18F14199   3.468   1.678   8.250  0.7840  1.1915  1.2295
  131OSM   H18G14200   3.594   1.785   8.187 -0.5383  1.2788 -3.5963
  131OSM   H18H14201   3.644   1.620   8.213  0.2820 -1.2992 -1.2676
  132OSM      N14202   6.113   2.288   6.167  0.1307 -0.6591  0.1528
  132OSM    C1514203   6.180   2.261   6.298 -0.0109 -0.0664 -1.0075
  132OSM   H15A14204   6.181   2.155   6.317 -0.0272 -0.0494 -0.9100
  132OSM   H15B14205   6.142   2.317   6.382 -0.5976 -0.1825 -1.1982
  132OSM   H15C14206   6.282   2.296   6.290 -1.0817  3.9482  1.0737
  132OSM    C1414207   6.135   2.432   6.124 -0.1655 -0.2021  0.0406
  132OSM   H14A14208   6.078   2.449   6.034 -2.0513  3.3814  1.8068
  132OSM   H14B14209   6.242   2.448   6.118 -0.0679 -1.1361 -0.9282
  132OSM   H14C14210   6.095   2.497   6.200 -0.3212  0.0123 -0.2222
  132OSM    C1314211   6.165   2.188   6.065  0.8654 -0.1895 -0.0328
  132OSM   H13A14212   6.110   2.191   5.973 -0.9709  1.5811  1.0758
  132OSM   H13B14213   6.150   2.090   6.107  0.6292 -1.1522 -2.3378
  132OSM   H13C14214   6.270   2.207   6.048  0.9229 -0.2367  0.2546
  132OSM    C1214215   5.968   2.277   6.182  0.7018 -0.5063 -0.6019
  132OSM   H12A14216   5.946   2.172   6.193  0.0540 -0.4530 -1.3607
  132OSM   H12B14217   5.920   2.324   6.097 -0.3211 -2.1126 -0.9333
  132OSM    C1114218   5.900   2.344   6.313  0.4422  0.5896  0.1267
  132OSM   H11A14219   5.935   2.277   6.394  0.5775 -1.3004 -1.4526
  132OSM   H11B14220   5.793   2.326   6.290  0.1848  1.2175  0.8294
  132OSM      P14221   5.832   2.594   6.290 -0.0981  0.3664  0.0389
  132OSM    O1314222   5.880   2.727   6.323  0.2688  0.1534 -0.7939
  132OSM    O1414223   5.801   2.581   6.145  0.7637 -0.0569 -0.3147
  132OSM    O1114224   5.708   2.558   6.375 -0.3136  0.3556 -0.3469
  132OSM    O1214225   5.928   2.480   6.337  0.0607  0.6303 -0.1309
  132OSM    C1S14226   5.705   2.520   6.510 -0.3812  0.4184 -0.2072
  132OSM    H1S14227   5.788   2.450   6.536  0.8191  1.6150 -0.7402
  132OSM    H1T14228   5.614   2.461   6.534 -1.1666  1.9701  0.7009
  132OSM     NF14229   5.693   2.597   6.744  0.1213  0.1235  0.4907
  132OSM    HNF14230   5.602   2.594   6.785  0.3486 -0.4175  0.9590
  132OSM    C2S14231   5.711   2.645   6.613  0.4336 -0.0060 -0.2171
  132OSM    H2S14232   5.811   2.688   6.591  0.7481 -2.0207 -2.9360
  132OSM    C3S14233   5.601   2.754   6.572  0.0326 -0.3729  0.4265
  132OSM    H3S14234   5.504   2.701   6.587 -0.0544 -0.3460 -0.0232
  132OSM     O314235   5.622   2.817   6.443 -0.4532  0.4822  0.1050
  132OSM    HO314236   5.711   2.791   6.420  0.1769  1.8893  0.8530
  132OSM    C4S14237   5.605   2.866   6.674 -0.9188  0.5746  0.0565
  132OSM    H4S14238   5.532   2.860   6.756  0.6091 -0.3432  1.3953
  132OSM    C5S14239   5.707   2.958   6.680  0.4460  0.9915 -0.7718
  132OSM    H5S14240   5.795   2.956   6.614  0.8540  1.6221 -0.2624
  132OSM    C6S14241   5.710   3.070   6.787  0.2093  0.5792 -0.8819
  132OSM    H6S14242   5.608   3.104   6.815  1.3834  3.2939  0.2317
  132OSM    H6T14243   5.753   3.159   6.736  0.7102  0.8863  0.0753
  132OSM    C7S14244   5.782   3.023   6.914  0.3006  0.7498  0.0122
  132OSM    H7S14245   5.791   3.112   6.980  0.2630  0.3952  0.4954
  132OSM    H7T14246   5.878   2.972   6.893 -0.1329 -0.3016  0.5788
  132OSM    C8S14247   5.703   2.918   6.989 -0.0854 -0.6808  0.3044
  132OSM    H8S14248   5.700   2.820   6.938 -0.8695 -0.1375 -0.7184
  132OSM    H8T14249   5.596   2.948   6.983 -0.1019 -0.8689 -0.3208
  132OSM    C9S14250   5.743   2.927   7.140  0.1670  0.5781  0.3451
  132OSM    H9S14251   5.752   3.026   7.188 -0.9713  0.7028  0.3232
  132OSM    H9T14252   5.847   2.890   7.149  0.0418  0.2223  0.3555
  132OSM   C10S14253   5.653   2.841   7.241  0.3020  0.3150 -0.0806
  132OSM   H10S14254   5.664   2.736   7.207 -1.5141  0.6164 -1.6559
  132OSM   H10T14255   5.551   2.880   7.221 -0.2258 -0.5432  0.8785
  132OSM   C11S14256   5.681   2.857   7.390  0.1263  0.6768 -0.3605
  132OSM   H11S14257   5.613   2.795   7.453  1.0085 -0.5194 -0.5774
  132OSM   H11T14258   5.665   2.962   7.425  2.4949  1.1848 -0.6739
  132OSM   C12S14259   5.820   2.812   7.419  0.1398 -0.6635  0.9556
  132OSM   H12S14260   5.890   2.876   7.362 -1.0544  0.0632  0.2935
  132OSM   H12T14261   5.848   2.723   7.358  1.1291  1.7026 -2.1752
  132OSM   C13S14262   5.841   2.778   7.565  0.1679  0.4288 -0.2996
  132OSM   H13S14263   5.828   2.866   7.632 -0.4938  2.8105 -3.4125
  132OSM   H13T14264   5.951   2.765   7.576 -0.1234  0.0463  2.5140
  132OSM   C14S14265   5.765   2.657   7.614  0.3342 -0.2699  0.3837
  132OSM   H14S14266   5.780   2.568   7.548  1.0474  0.5143 -0.5229
  132OSM   H14T14267   5.656   2.680   7.620  0.8720  2.4296  0.4312
  132OSM   C15S14268   5.809   2.609   7.755  0.0335  0.7666  0.3018
  132OSM   H15S14269   5.914   2.573   7.760 -0.5266 -0.8015  1.0773
  132OSM   H15T14270   5.742   2.522   7.774  0.1596  0.5235 -0.3646
  132OSM   C16S14271   5.785   2.713   7.868 -0.0323 -0.0322  0.8237
  132OSM   H16S14272   5.681   2.750   7.870  0.0015  0.0413  2.5651
  132OSM   H16T14273   5.859   2.793   7.847  0.9165 -0.2831  2.9603
  132OSM   C17S14274   5.823   2.661   8.010  0.8355  0.5168  0.2902
  132OSM   H17S14275   5.837   2.745   8.082 -1.3568  1.1533  0.0098
  132OSM   H17T14276   5.916   2.601   8.010  0.8637  0.5599  0.8643
  132OSM   C18S14277   5.716   2.580   8.084 -0.0189 -0.4986  0.3692
  132OSM   H18S14278   5.746   2.557   8.188 -1.3101 -2.6625  0.2986
  132OSM   H18T14279   5.694   2.487   8.027  1.2650 -0.7762  0.3173
  132OSM   H18U14280   5.622   2.641   8.085  0.6295  0.5672 -1.2858
  132OSM    C1F14281   5.794   2.540   6.807  0.3630 -0.4375 -0.1501
  132OSM     OF14282   5.908   2.526   6.759  0.2648  0.0295 -0.5228
  132OSM    C2F14283   5.765   2.486   6.947 -0.0999  0.7454 -0.1102
  132OSM    H2F14284   5.784   2.377   6.935  0.6909  0.6304  1.9825
  132OSM    H2G14285   5.658   2.493   6.977 -0.0579  4.6449 -0.5164
  132OSM    C3F14286   5.855   2.544   7.059 -0.4752 -0.1289 -0.0302
  132OSM    H3F14287   5.834   2.653   7.071  1.1745  0.3885 -1.6464
  132OSM    H3G14288   5.961   2.542   7.028 -0.7707 -0.8593 -1.0204
  132OSM    C4F14289   5.852   2.468   7.196  0.7564 -0.2492 -0.5870
  132OSM    H4F14290   5.753   2.496   7.239  0.1516  0.2528 -2.2712
  132OSM    H4G14291   5.926   2.503   7.271  0.2374 -3.0946  1.3227
  132OSM    C5F14292   5.887   2.321   7.183 -0.0115 -0.6993  0.2758
  132OSM    H5F14293   5.987   2.312   7.136 -1.3330  0.8090 -2.9482
  132OSM    H5G14294   5.817   2.261   7.122  1.1826  2.0413 -4.0158
  132OSM    C6F14295   5.877   2.241   7.321  0.6906 -0.5539  0.7910
  132OSM    H6F14296   5.886   2.132   7.298  0.9289 -0.2664 -0.5352
  132OSM    H6G14297   5.776   2.264   7.362  1.3825  3.1409  0.5419
  132OSM    C7F14298   5.984   2.275   7.422  0.7604  0.0185  0.5404
  132OSM    H7F14299   5.979   2.373   7.475 -0.2013 -0.2412  0.9413
  132OSM    H7G14300   6.070   2.294   7.355 -0.4262  1.9945 -0.4987
  132OSM    C8F14301   6.016   2.166   7.532  0.3569 -0.0495 -0.0953
  132OSM    H8F14302   6.122   2.193   7.551  0.2510 -0.3625  0.9567
  132OSM    H8G14303   6.012   2.073   7.470  0.9051  1.1941 -2.0487
  132OSM    C9F14304   5.919   2.177   7.646  0.1599  0.0074  0.4161
  132OSM    H9F14305   5.810   2.191   7.632  0.6465  3.8551 -0.2296
  132OSM   C10F14306   5.957   2.167   7.773 -0.3565 -0.0275 -0.2836
  132OSM   H10F14307   5.880   2.188   7.850 -3.3172 -2.6961 -2.3622
  132OSM   C11F14308   6.095   2.133   7.828  0.6591 -0.4775 -0.3001
  132OSM   H11F14309   6.176   2.127   7.752  1.8878 -1.4164  1.0599
  132OSM   H11G14310   6.097   2.030   7.868  2.1095 -0.8354 -1.2732
  132OSM   C12F14311   6.125   2.228   7.945 -1.0560 -0.0520  0.2035
  132OSM   H12F14312   6.101   2.331   7.911 -0.4875 -0.3781 -1.2363
  132OSM   H12G14313   6.233   2.235   7.968 -1.1715  0.6968  0.5442
  132OSM   C13F14314   6.053   2.198   8.074 -0.4603  0.3160  0.2950
  132OSM   H13F14315   6.109   2.115   8.121 -2.0982 -1.8166 -1.4516
  132OSM   H13G14316   5.946   2.174   8.058 -0.4265 -1.5475  2.5475
  132OSM   C14F14317   6.048   2.313   8.182  0.5470 -0.8217  0.2139
  132OSM   H14F14318   6.014   2.408   8.135  0.6882 -1.0953 -0.4599
  132OSM   H14G14319   6.152   2.326   8.217  1.2571 -0.5335 -1.9145
  132OSM   C15F14320   5.965   2.287   8.300  0.6300 -0.0809  0.6968
  132OSM   H15F14321   5.993   2.200   8.363  0.5952 -0.8378 -0.3038
  132OSM   H15G14322   5.862   2.254   8.272  0.3709  1.4585 -0.1885
  132OSM   C16F14323   5.966   2.408   8.399 -0.1773 -0.0391  0.1114
  132OSM   H16F14324   5.940   2.501   8.345 -0.9913 -0.2602  0.1133
  132OSM   H16G14325   6.063   2.424   8.450 -1.1003  0.8225  1.6169
  132OSM   C17F14326   5.867   2.391   8.515  0.9281 -0.5862  0.4767
  132OSM   H17F14327   5.884   2.299   8.574  0.4698 -0.8662  0.1765
  132OSM   H17G14328   5.768   2.381   8.465  1.7333 -0.5278 -1.1916
  132OSM   C18F14329   5.874   2.516   8.619  0.5337  0.2225  0.5061
  132OSM   H18F14330   5.784   2.527   8.684 -0.6220  0.8611 -1.1453
  132OSM   H18G14331   5.900   2.614   8.575 -2.2413  0.7240 -0.1388
  132OSM   H18H14332   5.960   2.499   8.687  1.5866  0.7675 -0.6739
  133OSM      N14333   6.172   2.972   6.034  0.0369 -0.3638 -0.1386
  133OSM    C1514334   6.157   3.060   6.152 -0.1141  0.0898  0.2336
  133OSM   H15A14335   6.071   3.125   6.153  0.3285  0.6855  0.8959
  133OSM   H15B14336   6.240   3.128   6.167 -0.0695  0.2824 -0.8456
  133OSM   H15C14337   6.132   3.001   6.239 -1.6125 -0.1411 -0.3528
  133OSM    C1414338   6.040   2.922   5.995  0.0225 -0.5921  0.5815
  133OSM   H14A14339   5.995   2.878   6.083 -2.6015  0.1274 -0.3689
  133OSM   H14B14340   6.043   2.852   5.913  2.7081  1.8123 -1.4589
  133OSM   H14C14341   5.977   3.003   5.963 -0.4626  0.1475  3.3155
  133OSM    C1314342   6.210   3.056   5.912  0.6661  0.1103 -0.0480
  133OSM   H13A14343   6.196   2.994   5.825  1.9948  0.7576 -0.7343
  133OSM   H13B14344   6.315   3.077   5.920  0.3124  2.2126 -0.5849
  133OSM   H13C14345   6.168   3.155   5.903  1.6117  0.7108  1.7751
  133OSM    C1214346   6.259   2.849   6.051 -0.0662 -0.3736  0.3566
  133OSM   H12A14347   6.363   2.879   6.052 -0.3291  0.7043 -1.3908
  133OSM   H12B14348   6.255   2.793   5.959 -1.9884  0.4777 -0.1178
  133OSM    C1114349   6.227   2.756   6.166  0.3168  0.4515  0.2442
  133OSM   H11A14350   6.121   2.724   6.159  0.2883  0.7351 -0.6589
  133OSM   H11B14351   6.240   2.815   6.260  0.1096 -1.4743  1.4949
  133OSM      P14352   6.444   2.640   6.252 -0.1431 -0.6889 -0.3301
  133OSM    O1314353   6.508   2.510   6.247  0.2584 -0.0457 -0.7804
  133OSM    O1414354   6.534   2.754   6.215  0.2394 -0.1240  0.1724
  133OSM    O1114355   6.377   2.659   6.390 -0.5327 -0.1072  0.0964
  133OSM    O1214356   6.313   2.642   6.160 -0.3118 -0.0220 -0.0960
  133OSM    C1S14357   6.282   2.565   6.440  0.6413  0.5503  0.4823
  133OSM    H1S14358   6.305   2.457   6.427 -0.0559  0.5487 -0.7284
  133OSM    H1T14359   6.182   2.577   6.394  0.2677 -1.1199  0.8477
  133OSM     NF14360   6.189   2.476   6.644  0.4449  0.3071 -0.5779
  133OSM    HNF14361   6.095   2.490   6.677  1.1716 -0.7358  2.0609
  133OSM    C2S14362   6.256   2.591   6.589 -0.2593 -0.2187 -0.7109
  133OSM    H2S14363   6.356   2.598   6.637 -1.6990  0.3271  2.3133
  133OSM    C3S14364   6.177   2.729   6.611 -0.4018  0.3287  1.1491
  133OSM    H3S14365   6.074   2.691   6.595 -0.0038  0.1415 -1.1851
  133OSM     O314366   6.194   2.840   6.518  0.3519  0.1804  0.2167
  133OSM    HO314367   6.248   2.813   6.444 -0.5745  0.5283 -0.5990
  133OSM    C4S14368   6.210   2.781   6.747 -0.0639 -0.0883  0.1561
  133OSM    H4S14369   6.285   2.861   6.749  1.5227 -1.5609  1.0152
  133OSM    C5S14370   6.141   2.761   6.860 -0.0622  0.3621  0.3910
  133OSM    H5S14371   6.062   2.685   6.866  0.3016  0.0110  0.8084
  133OSM    C6S14372   6.184   2.822   6.993  0.4165 -0.0889 -0.5751
  133OSM    H6S14373   6.101   2.879   7.041 -0.7962  0.0372 -2.7843
  133OSM    H6T14374   6.271   2.890   6.980  0.8007 -0.4836 -0.0754
  133OSM    C7S14375   6.225   2.732   7.109 -0.6292  0.5505 -0.1284
  133OSM    H7S14376   6.317   2.677   7.080  0.5274  0.9622  2.6695
  133OSM    H7T14377   6.141   2.664   7.135 -0.1127 -0.5009 -1.1598
  133OSM    C8S14378   6.258   2.810   7.233 -0.6197 -0.6492  0.3075
  133OSM    H8S14379   6.161   2.852   7.268 -1.0682 -2.5842  1.4506
  133OSM    H8T14380   6.313   2.901   7.202  2.2073 -1.8883  1.5079
  133OSM    C9S14381   6.329   2.734   7.348  0.5462 -0.9304 -1.0168
  133OSM    H9S14382   6.345   2.802   7.435 -1.3499 -0.0511 -1.3245
  133OSM    H9T14383   6.421   2.684   7.310  1.3881  0.6491 -1.1311
  133OSM   C10S14384   6.244   2.621   7.407 -1.1427  0.1649 -0.3374
  133OSM   H10S14385   6.255   2.529   7.346 -1.0732  0.4345 -0.7368
  133OSM   H10T14386   6.139   2.654   7.421  0.2698  4.4532  1.1609
  133OSM   C11S14387   6.291   2.577   7.551 -0.1068  0.1790  0.1561
  133OSM   H11S14388   6.401   2.572   7.559 -0.0894 -1.1515 -0.7615
  133OSM   H11T14389   6.267   2.471   7.571 -1.2239  0.2165 -0.8929
  133OSM   C12S14390   6.238   2.665   7.665 -0.0338 -0.4143 -0.3677
  133OSM   H12S14391   6.130   2.641   7.680  0.3362 -0.4366  2.3874
  133OSM   H12T14392   6.258   2.772   7.639 -1.4928 -0.4147 -1.5873
  133OSM   C13S14393   6.301   2.637   7.796 -0.4108 -0.4339 -0.1289
  133OSM   H13S14394   6.410   2.661   7.790 -0.4128 -0.2548  0.5334
  133OSM   H13T14395   6.302   2.526   7.808  0.8829 -0.8084 -3.1380
  133OSM   C14S14396   6.235   2.698   7.928  0.1362  0.3343  0.3119
  133OSM   H14S14397   6.125   2.691   7.913 -0.0968 -1.3320  2.5229
  133OSM   H14T14398   6.268   2.803   7.936  0.5485  0.2450 -0.1607
  133OSM   C15S14399   6.269   2.620   8.054 -0.8258  0.2225  0.6231
  133OSM   H15S14400   6.372   2.581   8.040 -0.0174  2.7636 -0.6641
  133OSM   H15T14401   6.202   2.531   8.056 -1.0322  0.3705  0.3552
  133OSM   C16S14402   6.269   2.693   8.191  0.4047  0.0186  0.7549
  133OSM   H16S14403   6.171   2.737   8.216  0.8682  2.4504 -1.4874
  133OSM   H16T14404   6.338   2.778   8.174 -2.5292  1.8030 -2.8752
  133OSM   C17S14405   6.326   2.608   8.305  0.4794  0.4788  0.0492
  133OSM   H17S14406   6.431   2.585   8.279  0.1133  1.4005 -2.3298
  133OSM   H17T14407   6.269   2.513   8.311  0.5943  0.3831 -0.4272
  133OSM   C18S14408   6.306   2.679   8.445  0.2802 -0.3855  0.0278
  133OSM   H18S14409   6.207   2.650   8.486  1.6464 -1.9990  2.2663
  133OSM   H18T14410   6.317   2.788   8.428  0.8755 -0.4682 -0.1089
  133OSM   H18U14411   6.383   2.648   8.518 -1.5984 -1.1384  1.7117
  133OSM    C1F14412   6.250   2.355   6.657  0.0629  0.3370  0.1069
  133OSM     OF14413   6.363   2.333   6.633  0.0859 -0.1746  0.1216
  133OSM    C2F14414   6.165   2.252   6.723  0.6733  0.1903 -0.2235
  133OSM    H2F14415   6.093   2.301   6.793 -0.6401 -2.3579  0.2759
  133OSM    H2G14416   6.228   2.187   6.787 -0.8654 -1.1990 -0.0872
  133OSM    C3F14417   6.077   2.168   6.630  0.0317 -0.6155  0.5199
  133OSM    H3F14418   6.139   2.130   6.545 -1.5148  0.6400 -1.2252
  133OSM    H3G14419   6.005   2.239   6.584  0.6167 -0.5733 -0.3486
  133OSM    C4F14420   6.011   2.059   6.720 -0.4568  0.1936  1.1939
  133OSM    H4F14421   6.084   2.005   6.783  1.0908 -0.6453 -1.2330
  133OSM    H4G14422   5.968   1.988   6.646 -0.4846  1.7383 -0.3295
  133OSM    C5F14423   5.904   2.106   6.817  0.0180  0.1358  0.7790
  133OSM    H5F14424   5.887   2.215   6.805  1.9692  0.4045  0.3289
  133OSM    H5G14425   5.937   2.083   6.921  0.1615  1.0942  0.9525
  133OSM    C6F14426   5.770   2.041   6.779  0.4523  0.3442  0.5541
  133OSM    H6F14427   5.772   1.930   6.782  0.1329  0.2837 -1.1224
  133OSM    H6G14428   5.748   2.064   6.673  0.0058 -2.0554  0.1070
  133OSM    C7F14429   5.640   2.088   6.852 -0.4366 -0.8123 -0.3265
  133OSM    H7F14430   5.551   2.080   6.786 -0.7581 -0.7982  0.1029
  133OSM    H7G14431   5.647   2.195   6.880 -0.5647 -0.4452 -1.6689
  133OSM    C8F14432   5.609   2.000   6.973  0.9785 -0.0905  0.2907
  133OSM    H8F14433   5.705   1.982   7.024  0.0573 -1.0210  1.7276
  133OSM    H8G14434   5.588   1.899   6.931  0.8331  0.5097 -1.1217
  133OSM    C9F14435   5.487   2.036   7.060  0.0858  0.4803  0.8651
  133OSM    H9F14436   5.412   2.092   7.003  0.7925 -1.2493 -1.8390
  133OSM   C10F14437   5.467   2.005   7.193 -0.1640 -0.2183  0.2137
  133OSM   H10F14438   5.369   2.035   7.232 -0.3412 -0.1878 -0.2513
  133OSM   C11F14439   5.566   1.927   7.282  0.7594  0.0033  0.0572
  133OSM   H11F14440   5.674   1.940   7.264  0.8999 -0.1073  0.7845
  133OSM   H11G14441   5.540   1.821   7.265  1.4089  0.1391 -1.8807
  133OSM   C12F14442   5.529   1.956   7.430  0.3218  0.1242 -0.0250
  133OSM   H12F14443   5.419   1.952   7.443  0.6260  0.3201  2.9936
  133OSM   H12G14444   5.554   2.063   7.445  1.0866  0.0353 -0.6204
  133OSM   C13F14445   5.593   1.857   7.521  0.4364  0.7606 -0.4697
  133OSM   H13F14446   5.693   1.832   7.480  1.5735  2.9794  0.8742
  133OSM   H13G14447   5.530   1.766   7.532 -0.4795  1.6401  1.8276
  133OSM   C14F14448   5.617   1.898   7.666 -0.5742  0.5312  0.1760
  133OSM   H14F14449   5.521   1.931   7.711 -0.4689  1.2487 -0.1148
  133OSM   H14G14450   5.695   1.977   7.663 -0.1967  0.1404 -0.4867
  133OSM   C15F14451   5.661   1.769   7.738  0.3879  0.7985  0.1598
  133OSM   H15F14452   5.728   1.702   7.679  0.4467  0.0139  1.1165
  133OSM   H15G14453   5.562   1.720   7.749  0.9843 -0.3948  0.2392
  133OSM   C16F14454   5.740   1.786   7.867  0.7755  0.0294 -1.3326
  133OSM   H16F14455   5.707   1.702   7.931  0.0592  1.5417  0.3425
  133OSM   H16G14456   5.719   1.886   7.911  1.6619  0.1024 -1.0580
  133OSM   C17F14457   5.893   1.777   7.843  0.4127  0.4985 -0.9203
  133OSM   H17F14458   5.912   1.854   7.765  0.3206  0.8671 -0.5803
  133OSM   H17G14459   5.917   1.676   7.803  0.6457  0.1507  0.0730
  133OSM   C18F14460   5.977   1.793   7.965 -0.2060 -1.1655  0.9498
  133OSM   H18F14461   5.962   1.896   8.003 -2.3448 -0.8597 -0.6092
  133OSM   H18G14462   6.085   1.788   7.941 -0.0639 -0.8455  1.5210
  133OSM   H18H14463   5.968   1.716   8.045  1.9886  0.5010  2.8806
  134OSM      N14464   0.133   5.882   6.254  0.3787  0.3323 -0.8327
  134OSM    C1514465   0.270   5.828   6.244  0.0018  0.2330  0.6887
  134OSM   H15A14466   0.276   5.754   6.166  1.9215 -0.0365  1.0708
  134OSM   H15B14467   0.297   5.782   6.337  0.3810 -0.2529  0.3398
  134OSM   H15C14468   0.350   5.898   6.222 -1.1996  2.0569  1.9532
  134OSM    C1414469   0.136   6.010   6.332 -0.1496  0.6752 -0.5299
  134OSM   H14A14470   0.037   6.051   6.339  0.5832  2.2929  0.8568
  134OSM   H14B14471   0.211   6.076   6.291 -1.4382  1.6913 -1.2617
  134OSM   H14C14472   0.174   5.987   6.431 -1.6724 -2.0119 -0.5244
  134OSM    C1314473   0.095   5.902   6.119  0.2976  0.0318  0.0925
  134OSM   H13A14474   0.085   5.805   6.071  0.0629  0.7671 -1.3693
  134OSM   H13B14475   0.166   5.968   6.073  0.5376  0.5753  1.2384
  134OSM   H13C14476  -0.002   5.950   6.110  0.5209  0.4844  0.1178
  134OSM    C1214477   0.038   5.781   6.312 -0.6553 -0.2997  0.3340
  134OSM   H12A14478   0.026   5.706   6.235 -1.0563  1.6867 -1.5940
  134OSM   H12B14479  -0.056   5.835   6.315  0.4305  1.6630 -0.1511
  134OSM    C1114480   0.073   5.726   6.450 -0.6497  0.4392  0.1630
  134OSM   H11A14481  -0.014   5.665   6.484 -0.7708  1.4134  1.6249
  134OSM   H11B14482   0.083   5.809   6.523  0.1038  0.4332  0.0682
  134OSM      P14483   0.234   5.524   6.385  0.6470 -0.0778  0.0774
  134OSM    O1314484   0.171   5.515   6.253 -0.2822  0.6509  0.6417
  134OSM    O1414485   0.376   5.488   6.393  0.2669  0.4545  1.0374
  134OSM    O1114486   0.159   5.420   6.482 -0.0263  0.0319  0.0835
  134OSM    O1214487   0.201   5.662   6.455  0.2531 -0.7611 -0.3824
  134OSM    C1S14488   0.179   5.432   6.630 -0.2926 -0.1433  1.0831
  134OSM    H1S14489   0.092   5.484   6.676 -0.0560 -0.4201  1.8557
  134OSM    H1T14490   0.270   5.492   6.649  0.2184 -0.3791 -0.5640
  134OSM     NF14491   0.247   5.317   6.825  0.5167 -0.3683 -0.0496
  134OSM    HNF14492   0.342   5.296   6.849  0.3755 -0.3429  0.5373
  134OSM    C2S14493   0.206   5.292   6.696  0.7519  0.6248  0.4138
  134OSM    H2S14494   0.109   5.240   6.709  0.1169  1.6080 -0.2850
  134OSM    C3S14495   0.309   5.206   6.612 -0.6025 -0.1897 -0.0789
  134OSM    H3S14496   0.398   5.273   6.615 -0.9251  0.1806  1.6157
  134OSM     O314497   0.269   5.191   6.474  0.5646  0.3613 -0.7095
  134OSM    HO314498   0.203   5.259   6.465  0.8405  0.4244 -2.2937
  134OSM    C4S14499   0.335   5.074   6.671 -0.0241  0.6994  0.2908
  134OSM    H4S14500   0.248   5.011   6.693 -1.0048  1.2828 -1.7761
  134OSM    C5S14501   0.463   5.016   6.683 -0.5641 -0.3086  0.0635
  134OSM    H5S14502   0.547   5.074   6.642 -2.0147  0.4320 -1.9173
  134OSM    C6S14503   0.488   4.878   6.735 -1.0365 -0.4397  0.1806
  134OSM    H6S14504   0.566   4.886   6.814 -3.2073  2.0239  2.1464
  134OSM    H6T14505   0.546   4.820   6.660 -1.6725 -0.7016 -0.1101
  134OSM    C7S14506   0.372   4.796   6.789 -0.5632 -0.2560  0.1350
  134OSM    H7S14507   0.417   4.694   6.797 -0.5909 -0.4441 -1.8229
  134OSM    H7T14508   0.293   4.791   6.712 -0.6249 -2.5422  0.3073
  134OSM    C8S14509   0.316   4.848   6.925  0.3325 -0.2110  0.0367
  134OSM    H8S14510   0.229   4.788   6.959 -1.1921  0.5273 -2.4276
  134OSM    H8T14511   0.279   4.952   6.912 -0.4955 -0.3316  1.3672
  134OSM    C9S14512   0.426   4.867   7.041  0.6720  0.1324 -0.0156
  134OSM    H9S14513   0.492   4.954   7.021  0.5011  0.6911  1.7508
  134OSM    H9T14514   0.479   4.770   7.055  0.1016 -0.1109  0.4483
  134OSM   C10S14515   0.362   4.906   7.175 -0.0034  0.4112  0.1611
  134OSM   H10S14516   0.276   4.839   7.196  0.9945 -0.8366  0.3154
  134OSM   H10T14517   0.330   5.012   7.172 -0.1923  0.3900  1.0960
  134OSM   C11S14518   0.461   4.884   7.290 -0.0437  0.2638 -0.0854
  134OSM   H11S14519   0.546   4.954   7.281 -0.0260  0.1954 -0.4933
  134OSM   H11T14520   0.499   4.780   7.281 -0.1171  0.1552  0.8722
  134OSM   C12S14521   0.391   4.917   7.421 -0.1473 -0.4899 -0.1828
  134OSM   H12S14522   0.326   4.831   7.446 -1.5811  0.0424 -2.0042
  134OSM   H12T14523   0.321   5.000   7.400 -0.9859 -1.2991 -0.6046
  134OSM   C13S14524   0.490   4.947   7.540 -1.0495  0.7695 -0.1756
  134OSM   H13S14525   0.530   5.050   7.526 -1.6347  0.8165 -1.5977
  134OSM   H13T14526   0.575   4.878   7.527 -0.5357  1.8764 -2.8988
  134OSM   C14S14527   0.435   4.931   7.688 -0.2397 -0.4031 -0.2637
  134OSM   H14S14528   0.382   5.024   7.720 -0.5306  0.2397 -2.5135
  134OSM   H14T14529   0.530   4.928   7.746  0.6213  1.1414 -1.5647
  134OSM   C15S14530   0.369   4.795   7.721  0.5970  0.2296  0.2181
  134OSM   H15S14531   0.433   4.720   7.670  1.3214  1.4268 -0.6561
  134OSM   H15T14532   0.273   4.813   7.669  0.9135 -0.6710 -0.7028
  134OSM   C16S14533   0.342   4.774   7.863  0.0679 -0.5279 -0.2553
  134OSM   H16S14534   0.296   4.870   7.896  0.3243 -0.0079 -1.3637
  134OSM   H16T14535   0.435   4.754   7.919 -0.3504 -1.0355  0.2623
  134OSM   C17S14536   0.238   4.660   7.880 -0.1303  0.4938 -0.1735
  134OSM   H17S14537   0.273   4.562   7.841 -1.0167 -0.5702  1.6391
  134OSM   H17T14538   0.150   4.673   7.814  0.9734  1.1818 -1.5374
  134OSM   C18S14539   0.185   4.630   8.025  0.6135 -0.6005  0.1703
  134OSM   H18S14540   0.154   4.524   8.020  2.4351 -1.3095  2.8418
  134OSM   H18T14541   0.097   4.691   8.055  1.9224  1.3892  0.0481
  134OSM   H18U14542   0.264   4.631   8.104  1.2550  0.6341 -0.4727
  134OSM    C1F14543   0.174   5.370   6.926  0.2734 -0.1973 -0.4204
  134OSM     OF14544   0.059   5.393   6.912  0.3472  0.4191  0.7672
  134OSM    C2F14545   0.242   5.422   7.042 -0.4933 -0.5617  0.1520
  134OSM    H2F14546   0.296   5.517   7.022  1.1589 -1.6321 -0.5934
  134OSM    H2G14547   0.322   5.347   7.060  0.0909 -0.5181 -2.0931
  134OSM    C3F14548   0.153   5.420   7.166  0.3427  0.5411  0.0904
  134OSM    H3F14549   0.143   5.310   7.182  0.7497 -0.1516 -3.9734
  134OSM    H3G14550   0.056   5.467   7.141  0.6168  0.6719 -0.7344
  134OSM    C4F14551   0.223   5.491   7.285 -0.2366 -0.4085 -0.1655
  134OSM    H4F14552   0.152   5.482   7.370 -1.3223 -0.6088 -1.0796
  134OSM    H4G14553   0.230   5.599   7.260  3.0000  0.2673  3.2621
  134OSM    C5F14554   0.360   5.421   7.308 -0.5508  0.8928  0.9767
  134OSM    H5F14555   0.425   5.424   7.218  1.3965  1.5521  2.3735
  134OSM    H5G14556   0.339   5.313   7.325  1.5429  0.4822  1.0763
  134OSM    C6F14557   0.432   5.491   7.425 -0.4588  1.4673 -0.4920
  134OSM    H6F14558   0.424   5.602   7.417  0.5585  1.6686  0.9447
  134OSM    H6G14559   0.542   5.474   7.419 -0.9516 -2.5245  0.3731
  134OSM    C7F14560   0.386   5.434   7.557  0.4682 -0.1766 -0.0822
  134OSM    H7F14561   0.398   5.324   7.558 -0.7755 -0.3182 -0.6643
  134OSM    H7G14562   0.278   5.458   7.562  0.1852 -1.1964 -1.1633
  134OSM    C8F14563   0.468   5.469   7.683  0.0702 -0.2042 -0.6087
  134OSM    H8F14564   0.575   5.453   7.659  0.3426  0.9149 -0.1908
  134OSM    H8G14565   0.446   5.380   7.746 -0.4980  0.4493  0.1353
  134OSM    C9F14566   0.455   5.611   7.733  0.0609 -0.0788 -0.1160
  134OSM    H9F14567   0.473   5.687   7.656 -2.6641 -0.5552 -1.2764
  134OSM   C10F14568   0.421   5.657   7.855  0.8731 -0.1909  0.3931
  134OSM   H10F14569   0.404   5.765   7.871  2.1577  0.1651 -0.6293
  134OSM   C11F14570   0.384   5.563   7.965  0.3380  0.4204  0.5700
  134OSM   H11F14571   0.430   5.463   7.946  0.0094 -0.0002  1.9196
  134OSM   H11G14572   0.276   5.535   7.967  0.6127 -0.8881 -1.1188
  134OSM   C12F14573   0.430   5.605   8.105  0.2835 -0.2613 -0.2809
  134OSM   H12F14574   0.539   5.626   8.108  0.4215 -1.1088  1.5075
  134OSM   H12G14575   0.416   5.523   8.178 -1.3189 -0.9666 -1.3526
  134OSM   C13F14576   0.355   5.728   8.158  0.3282 -0.0354  0.0591
  134OSM   H13F14577   0.246   5.708   8.168  0.6390 -0.8923  1.9890
  134OSM   H13G14578   0.369   5.813   8.088  0.3230 -1.4016 -1.6321
  134OSM   C14F14579   0.408   5.783   8.289  0.2016  0.1340 -0.1748
  134OSM   H14F14580   0.424   5.698   8.359  2.0686 -1.7993 -2.8252
  134OSM   H14G14581   0.338   5.858   8.330 -0.5866 -0.1424 -0.9802
  134OSM   C15F14582   0.540   5.855   8.296 -0.3712 -0.2731  0.2365
  134OSM   H15F14583   0.533   5.925   8.210 -3.2547 -0.1540  0.5170
  134OSM   H15G14584   0.627   5.788   8.279 -0.3902 -0.1606 -0.3271
  134OSM   C16F14585   0.545   5.938   8.424  0.4105 -0.1890  0.1053
  134OSM   H16F14586   0.518   5.873   8.510 -0.3603  0.1037  0.0878
  134OSM   H16G14587   0.467   6.015   8.410 -1.1665 -1.8293 -0.2725
  134OSM   C17F14588   0.681   5.995   8.441  0.7219 -0.2115  0.3492
  134OSM   H17F14589   0.681   6.089   8.500  0.2633 -0.3921  0.6418
  134OSM   H17G14590   0.712   6.010   8.335 -0.0124  1.5783  0.3797
  134OSM   C18F14591   0.795   5.901   8.503 -0.0997 -0.5279 -1.0300
  134OSM   H18F14592   0.763   5.852   8.598  2.6638  0.4237  0.4585
  134OSM   H18G14593   0.886   5.961   8.526 -0.3577 -0.5130  0.0125
  134OSM   H18H14594   0.824   5.815   8.440  0.9425 -1.3393  0.5206
  135OSM      N14595   6.735   5.230   6.163  0.2712  0.1330  0.0223
  135OSM    C1514596   6.653   5.290   6.059 -0.2730 -0.1659 -0.3028
  135OSM   H15A14597   6.692   5.390   6.042 -2.3598  0.6645 -0.3934
  135OSM   H15B14598   6.550   5.315   6.077 -0.0575  1.4131 -1.1638
  135OSM   H15C14599   6.658   5.236   5.965 -0.2583 -1.6317  0.5318
  135OSM    C1414600   6.698   5.083   6.178  0.1466  0.0111 -0.0672
  135OSM   H14A14601   6.592   5.065   6.169  0.2478 -0.5014 -0.2921
  135OSM   H14B14602   6.742   5.043   6.268  1.8047 -0.8835 -1.2372
  135OSM   H14C14603   6.754   5.030   6.102 -0.3340 -1.7187  0.7393
  135OSM    C1314604   6.877   5.235   6.114 -0.0287  0.5176  0.1292
  135OSM   H13A14605   6.918   5.335   6.106 -0.5915  0.6569 -1.0992
  135OSM   H13B14606   6.894   5.188   6.019  1.1092  1.0930  0.0308
  135OSM   H13C14607   6.932   5.178   6.187  2.7038  1.9126 -0.7811
  135OSM    C1214608   6.726   5.304   6.296 -0.0982  0.1064 -0.5942
  135OSM   H12A14609   6.742   5.408   6.271 -2.5331  0.6204 -0.0659
  135OSM   H12B14610   6.802   5.264   6.362 -1.9985  2.6480  3.3011
  135OSM    C1114611   6.588   5.304   6.364 -0.6093  0.4339 -0.0306
  135OSM   H11A14612   6.598   5.281   6.473 -0.9491 -3.5408 -0.7787
  135OSM   H11B14613   6.518   5.224   6.331 -0.7351 -0.2287  1.7657
  135OSM      P14614   6.399   5.468   6.407 -0.1286 -0.0118  0.2437
  135OSM    O1314615   6.374   5.604   6.361 -0.2501  0.4634 -0.3403
  135OSM    O1414616   6.286   5.373   6.391  0.4341 -0.4628  0.0370
  135OSM    O1114617   6.447   5.462   6.553 -0.0771  0.0698  0.6323
  135OSM    O1214618   6.524   5.421   6.325 -0.1389 -0.2948 -0.4961
  135OSM    C1S14619   6.548   5.538   6.607  0.0045 -0.1145  0.0218
  135OSM    H1S14620   6.544   5.646   6.579  2.7077 -0.1442 -0.5504
  135OSM    H1T14621   6.645   5.509   6.563 -0.8860 -1.8058 -0.8385
  135OSM     NF14622   6.672   5.605   6.804  0.2907 -0.3698  0.3255
  135OSM    HNF14623   6.737   5.544   6.848 -0.2257  0.5022  2.3432
  135OSM    C2S14624   6.546   5.533   6.766  0.0971  0.7215 -0.5563
  135OSM    H2S14625   6.451   5.584   6.793 -0.4450 -0.5189 -0.0382
  135OSM    C3S14626   6.535   5.381   6.816 -0.6804  0.1720 -0.5108
  135OSM    H3S14627   6.624   5.322   6.786 -0.9080  0.3921 -1.6785
  135OSM     O314628   6.431   5.303   6.759 -0.1630 -0.4938 -0.6640
  135OSM    HO314629   6.418   5.356   6.680 -0.7456 -1.5807 -1.3090
  135OSM    C4S14630   6.531   5.378   6.972 -0.3865  0.4785 -0.1782
  135OSM    H4S14631   6.629   5.402   7.015 -0.3419 -0.3236  0.1804
  135OSM    C5S14632   6.426   5.364   7.051  0.1138  0.4380  0.6049
  135OSM    H5S14633   6.330   5.342   7.002 -0.1625  0.3181  1.1971
  135OSM    C6S14634   6.430   5.382   7.202  0.3415  0.1471  0.8288
  135OSM    H6S14635   6.411   5.280   7.241 -0.4246 -0.9178 -2.1990
  135OSM    H6T14636   6.350   5.457   7.219  0.5995  0.5853  0.1519
  135OSM    C7S14637   6.553   5.442   7.268 -0.1448 -0.5822 -0.5233
  135OSM    H7S14638   6.571   5.544   7.228  1.9425 -0.0935  1.5495
  135OSM    H7T14639   6.643   5.388   7.231  1.2857  0.6108  1.1648
  135OSM    C8S14640   6.542   5.453   7.424 -0.0484  0.3733  0.3448
  135OSM    H8S14641   6.562   5.359   7.480  3.0758  0.8569  0.1631
  135OSM    H8T14642   6.440   5.488   7.451 -0.2070  0.6768 -0.6143
  135OSM    C9S14643   6.639   5.560   7.472  0.2741 -0.2793 -0.3942
  135OSM    H9S14644   6.610   5.654   7.422 -0.5300 -1.2693 -1.8355
  135OSM    H9T14645   6.732   5.516   7.431  1.6631  1.8843  0.3542
  135OSM   C10S14646   6.637   5.574   7.629 -0.3940  0.3770  0.4860
  135OSM   H10S14647   6.705   5.659   7.649 -0.2456  1.1560 -2.9488
  135OSM   H10T14648   6.682   5.489   7.684 -1.3701 -1.3891 -1.3660
  135OSM   C11S14649   6.498   5.604   7.690 -0.4734  0.0862 -0.3055
  135OSM   H11S14650   6.434   5.514   7.697 -0.1843  0.0549  3.1054
  135OSM   H11T14651   6.449   5.682   7.627 -0.4415  0.6493  0.3557
  135OSM   C12S14652   6.509   5.643   7.842  0.2791 -0.3580 -0.0898
  135OSM   H12S14653   6.544   5.748   7.852 -2.6457  0.7995 -1.3426
  135OSM   H12T14654   6.584   5.575   7.887 -0.7050 -1.8986 -0.7166
  135OSM   C13S14655   6.379   5.633   7.919 -0.2732  0.4121  0.3129
  135OSM   H13S14656   6.358   5.525   7.936  3.5486 -0.1510  1.9264
  135OSM   H13T14657   6.290   5.667   7.863 -0.6288 -0.6125  0.2435
  135OSM   C14S14658   6.392   5.701   8.058  0.4337 -0.1215  0.4433
  135OSM   H14S14659   6.332   5.795   8.063  1.1347  0.3132  0.6710
  135OSM   H14T14660   6.496   5.734   8.079  0.0262  0.5794  1.4088
  135OSM   C15S14661   6.356   5.623   8.186 -0.4958 -0.3629 -0.0166
  135OSM   H15S14662   6.389   5.687   8.270  0.2569 -1.6450  0.6852
  135OSM   H15T14663   6.427   5.537   8.194  2.8891  2.4727  1.4785
  135OSM   C16S14664   6.212   5.569   8.194 -0.1036  0.3670  0.1436
  135OSM   H16S14665   6.211   5.525   8.296 -0.6000  1.6859  0.7106
  135OSM   H16T14666   6.198   5.492   8.116 -0.5515  0.2447  0.3432
  135OSM   C17S14667   6.108   5.684   8.172  0.7354 -0.1956  0.5063
  135OSM   H17S14668   6.013   5.628   8.189 -0.3678  1.2012 -0.8745
  135OSM   H17T14669   6.103   5.723   8.068  0.0206  0.9175  0.9506
  135OSM   C18S14670   6.130   5.790   8.279  0.4061  0.2158 -0.2554
  135OSM   H18S14671   6.222   5.851   8.260 -1.1188  1.9178 -2.5090
  135OSM   H18T14672   6.138   5.742   8.378  0.2187  3.9763  1.7000
  135OSM   H18U14673   6.052   5.867   8.298  1.3755  1.0883  0.2615
  135OSM    C1F14674   6.702   5.733   6.787  0.0837 -0.1608  0.2679
  135OSM     OF14675   6.629   5.817   6.729 -0.4569 -0.5132  0.2872
  135OSM    C2F14676   6.839   5.771   6.830 -0.2740 -0.1769 -0.0066
  135OSM    H2F14677   6.898   5.814   6.747 -3.0041 -1.6218 -2.8318
  135OSM    H2G14678   6.899   5.682   6.858 -1.5393 -0.3336  2.3616
  135OSM    C3F14679   6.841   5.855   6.961  0.2428 -0.4374 -0.1040
  135OSM    H3F14680   6.779   5.947   6.951  0.7963 -0.1189 -0.6096
  135OSM    H3G14681   6.948   5.883   6.964  0.4551 -1.3899  2.3108
  135OSM    C4F14682   6.805   5.781   7.094 -0.1664 -0.4350 -0.5996
  135OSM    H4F14683   6.853   5.681   7.091  1.3868  0.3104 -1.1733
  135OSM    H4G14684   6.697   5.757   7.094 -0.3514  0.2529  2.0087
  135OSM    C5F14685   6.855   5.848   7.221  0.9440 -0.0667 -0.6771
  135OSM    H5F14686   6.960   5.877   7.203  0.8210  0.6897 -0.1773
  135OSM    H5G14687   6.842   5.785   7.312  0.4153  0.0477 -0.6742
  135OSM    C6F14688   6.781   5.980   7.246  0.3055 -0.0650  0.3216
  135OSM    H6F14689   6.681   5.959   7.290  1.0790 -1.3111  1.5357
  135OSM    H6G14690   6.780   6.051   7.161  1.6334  1.2800  1.3958
  135OSM    C7F14691   6.842   6.075   7.355 -0.1796  0.2263 -1.2094
  135OSM    H7F14692   6.768   6.157   7.372  1.6384  2.1916 -2.6026
  135OSM    H7G14693   6.938   6.114   7.316 -0.4143  2.4192  0.3374
  135OSM    C8F14694   6.876   6.009   7.488 -0.2490 -0.3895 -0.2218
  135OSM    H8F14695   6.932   6.081   7.552  0.1162  0.7002 -1.7555
  135OSM    H8G14696   6.928   5.912   7.470  1.6570  0.9859 -2.3489
  135OSM    C9F14697   6.755   5.980   7.573  0.7337 -0.3152 -0.4056
  135OSM    H9F14698   6.665   6.017   7.522 -0.2785 -0.0499  1.5300
  135OSM   C10F14699   6.755   5.911   7.685 -0.2362  0.5350  0.1717
  135OSM   H10F14700   6.668   5.925   7.750 -1.8257  0.1897 -1.8530
  135OSM   C11F14701   6.878   5.864   7.740  0.2208 -0.3558  0.1839
  135OSM   H11F14702   6.954   5.945   7.732 -1.0063  0.9365  1.2964
  135OSM   H11G14703   6.910   5.772   7.688 -0.4807  0.9625 -2.7097
  135OSM   C12F14704   6.874   5.825   7.887 -0.5857 -0.0832  1.1578
  135OSM   H12F14705   6.980   5.805   7.914 -0.5069  0.7523  1.4644
  135OSM   H12G14706   6.830   5.725   7.907 -0.4177  0.1685  2.8461
  135OSM   C13F14707   6.823   5.942   7.972  0.0612  0.5408  0.0917
  135OSM   H13F14708   6.733   5.988   7.926  0.2474 -1.7608 -2.6789
  135OSM   H13G14709   6.898   6.023   7.981 -0.1752  0.7706  0.0176
  135OSM   C14F14710   6.779   5.896   8.108  0.6216 -0.1883  0.1968
  135OSM   H14F14711   6.860   5.831   8.149  1.2436 -1.9791 -3.7189
  135OSM   H14G14712   6.688   5.834   8.097  1.5164 -1.6086  0.6081
  135OSM   C15F14713   6.733   6.014   8.200 -0.1154  0.4288 -0.2171
  135OSM   H15F14714   6.664   6.083   8.147  0.1724 -0.8277 -2.2747
  135OSM   H15G14715   6.823   6.072   8.228 -1.1760  1.1970  1.7145
  135OSM   C16F14716   6.691   5.967   8.344  0.7970 -0.5267 -0.0099
  135OSM   H16F14717   6.778   5.906   8.378  0.5288  0.2654  2.1910
  135OSM   H16G14718   6.601   5.903   8.334 -0.3265  1.0190  0.1007
  135OSM   C17F14719   6.652   6.077   8.441  0.6175  0.1263  0.1560
  135OSM   H17F14720   6.736   6.149   8.443  1.7991 -1.2358  0.1364
  135OSM   H17G14721   6.654   6.030   8.542  1.8058 -2.6835 -1.1277
  135OSM   C18F14722   6.523   6.150   8.410 -0.2122  0.4945  0.0291
  135OSM   H18F14723   6.518   6.231   8.333  1.7974 -0.0425 -0.6796
  135OSM   H18G14724   6.488   6.199   8.504 -3.9071 -3.5409  0.9030
  135OSM   H18H14725   6.450   6.070   8.384 -0.8281  0.7575  0.9032
  136OSM      N14726   4.741   0.082   5.558 -0.3459 -0.3731  0.1880
  136OSM    C1514727   4.723   0.039   5.412  0.0608 -0.0323 -0.4678
  136OSM   H15A14728   4.662   0.106   5.353 -0.4518 -0.9050 -0.9386
  136OSM   H15B14729   4.680  -0.060   5.409 -0.1157 -0.0516  1.8986
  136OSM   H15C14730   4.815   0.041   5.355 -0.2702  0.8987 -0.9851
  136OSM    C1414731   4.757   0.233   5.561 -0.3991 -0.6052 -0.1126
  136OSM   H14A14732   4.675   0.284   5.511 -1.1391  0.2934  1.9489
  136OSM   H14B14733   4.847   0.266   5.512 -0.2203 -1.4091 -0.3400
  136OSM   H14C14734   4.762   0.267   5.663  1.8015 -0.9397 -0.0829
  136OSM    C1314735   4.608   0.045   5.619  0.2387 -0.2242  0.6767
  136OSM   H13A14736   4.599   0.092   5.716 -2.5689  0.4418  0.1562
  136OSM   H13B14737   4.592  -0.061   5.631  0.4826 -0.2236  1.0265
  136OSM   H13C14738   4.524   0.084   5.563 -0.1116 -1.0134  0.6528
  136OSM    C1214739   4.862   0.023   5.627 -0.0493  0.1786  0.6167
  136OSM   H12A14740   4.945   0.042   5.560 -0.6187  1.6277  0.3127
  136OSM   H12B14741   4.841  -0.083   5.626 -1.6538  0.4867 -0.1047
  136OSM    C1114742   4.911   0.070   5.771  0.7694  0.2370  0.2836
  136OSM   H11A14743   4.984   0.153   5.753  2.4169 -1.7041 -2.4682
  136OSM   H11B14744   4.976  -0.010   5.811  1.7105  0.4594 -0.7529
  136OSM      P14745   4.832   0.174   5.988  0.0295 -0.2043  0.1501
  136OSM    O1314746   4.924   0.089   6.066  0.1446 -0.0852  0.5710
  136OSM    O1414747   4.875   0.313   5.967  0.3930  0.0447  0.3694
  136OSM    O1114748   4.691   0.171   6.064 -0.0390  0.2322  0.4221
  136OSM    O1214749   4.802   0.102   5.857  0.2970  0.4502 -0.0636
  136OSM    C1S14750   4.640   0.046   6.102 -0.9488 -0.6555  0.6857
  136OSM    H1S14751   4.719  -0.031   6.114 -1.5396 -1.7276 -2.0896
  136OSM    H1T14752   4.571   0.004   6.025 -1.3297  0.4666  0.4036
  136OSM     NF14753   4.535  -0.082   6.297 -0.5771 -0.0987  0.1271
  136OSM    HNF14754   4.440  -0.097   6.325 -0.4121 -0.2762  0.5918
  136OSM    C2S14755   4.567   0.048   6.240  0.1550 -0.1403  0.1493
  136OSM    H2S14756   4.634   0.097   6.314  1.4404 -0.1766 -0.9679
  136OSM    C3S14757   4.439   0.137   6.226 -0.1339  0.0532 -0.3034
  136OSM    H3S14758   4.366   0.080   6.165 -1.0472  0.8761  0.0064
  136OSM     O314759   4.451   0.269   6.160 -0.9816 -0.4822 -0.3167
  136OSM    HO314760   4.530   0.253   6.107 -0.8075  1.8689 -0.8409
  136OSM    C4S14761   4.377   0.170   6.355 -0.7004  0.1201 -0.4017
  136OSM    H4S14762   4.445   0.202   6.435 -0.7020 -0.2075 -0.2705
  136OSM    C5S14763   4.247   0.157   6.393  0.0345 -0.1746  0.2601
  136OSM    H5S14764   4.179   0.113   6.318  1.9545  0.4944 -1.9025
  136OSM    C6S14765   4.195   0.187   6.529  0.1569  0.0602 -0.1994
  136OSM    H6S14766   4.264   0.155   6.611 -1.0366 -2.4574 -0.1087
  136OSM    H6T14767   4.107   0.122   6.550  0.9783 -0.4155  1.9198
  136OSM    C7S14768   4.151   0.329   6.535 -0.1131 -0.4500 -0.6885
  136OSM    H7S14769   4.095   0.359   6.444  0.2866  3.5834  0.2854
  136OSM    H7T14770   4.241   0.393   6.529 -1.2847  1.1110 -2.0568
  136OSM    C8S14771   4.060   0.348   6.655 -0.0079 -0.0001  0.6645
  136OSM    H8S14772   3.973   0.279   6.655  1.6256 -2.1390  1.9536
  136OSM    H8T14773   4.009   0.445   6.639  0.3154 -0.0150 -0.4655
  136OSM    C9S14774   4.137   0.334   6.788 -0.2197 -0.3025 -0.1998
  136OSM    H9S14775   4.205   0.422   6.794  1.1350 -1.4957  2.7560
  136OSM    H9T14776   4.209   0.249   6.781 -1.7760 -1.6874  0.4702
  136OSM   C10S14777   4.055   0.328   6.918  0.6077  0.3783  0.3114
  136OSM   H10S14778   3.992   0.236   6.915  0.8407  0.2451 -1.2422
  136OSM   H10T14779   3.982   0.412   6.917  0.8870  0.6405  1.4930
  136OSM   C11S14780   4.133   0.326   7.048 -0.5097 -0.2860 -0.1616
  136OSM   H11S14781   4.187   0.422   7.054 -2.4150  0.9120 -1.5788
  136OSM   H11T14782   4.202   0.239   7.057  1.8289  1.1719 -3.1199
  136OSM   C12S14783   4.046   0.308   7.175 -0.1341  0.1667  0.7806
  136OSM   H12S14784   3.974   0.226   7.152 -0.7599  1.6047 -2.6000
  136OSM   H12T14785   3.991   0.403   7.187  1.7259  1.4629 -0.6875
  136OSM   C13S14786   4.124   0.278   7.301 -0.0302  0.1695 -0.0533
  136OSM   H13S14787   4.206   0.352   7.318 -0.3840  0.7163 -0.7465
  136OSM   H13T14788   4.151   0.170   7.306 -0.8000  0.0035  0.7452
  136OSM   C14S14789   4.028   0.297   7.414  0.3011 -0.2646 -0.3339
  136OSM   H14S14790   3.944   0.225   7.408  1.2088 -1.2139 -1.7760
  136OSM   H14T14791   3.993   0.402   7.403  1.2506  0.3185  1.8792
  136OSM   C15S14792   4.095   0.278   7.553 -0.1890 -0.0860 -0.4436
  136OSM   H15S14793   4.178   0.347   7.577  0.0601 -0.0268 -1.4331
  136OSM   H15T14794   4.144   0.179   7.544 -0.4346 -0.1670 -0.9377
  136OSM   C16S14795   4.002   0.277   7.667  1.1291 -0.6850 -0.1097
  136OSM   H16S14796   3.916   0.216   7.631  1.8066 -2.2847  0.9321
  136OSM   H16T14797   3.967   0.381   7.680 -1.4600 -1.6430  1.0905
  136OSM   C17S14798   4.059   0.208   7.795  0.2268  0.5455  0.1072
  136OSM   H17S14799   4.152   0.262   7.821  0.1214  0.4100  0.7650
  136OSM   H17T14800   4.080   0.101   7.772 -1.5283  0.4522 -1.1694
  136OSM   C18S14801   3.970   0.217   7.911 -0.1417  1.5094  0.1480
  136OSM   H18S14802   4.003   0.167   8.005  1.1445 -2.2723 -2.1796
  136OSM   H18T14803   3.881   0.158   7.883  0.0692  0.9398  0.6636
  136OSM   H18U14804   3.947   0.323   7.933 -1.4867  1.8276 -2.5277
  136OSM    C1F14805   4.628  -0.175   6.331  0.7248 -0.1936 -0.9362
  136OSM     OF14806   4.748  -0.162   6.310 -0.0840  0.0551  0.5041
  136OSM    C2F14807   4.566  -0.292   6.407  1.5162  0.4851 -0.3640
  136OSM    H2F14808   4.634  -0.380   6.400 -0.9609 -1.6549  1.5058
  136OSM    H2G14809   4.467  -0.307   6.359  0.3121 -0.5669  2.3248
  136OSM    C3F14810   4.549  -0.259   6.552 -0.2607  0.7189 -0.1583
  136OSM    H3F14811   4.490  -0.338   6.602  0.0325 -0.4264 -1.6019
  136OSM    H3G14812   4.481  -0.171   6.562 -2.8063 -0.9539 -1.9734
  136OSM    C4F14813   4.677  -0.234   6.629  0.7728  0.0510  0.0126
  136OSM    H4F14814   4.733  -0.148   6.587  1.6721  0.3719  1.8028
  136OSM    H4G14815   4.743  -0.323   6.627 -0.3805 -0.7989 -0.9799
  136OSM    C5F14816   4.648  -0.217   6.776 -0.9433  0.1593  0.1990
  136OSM    H5F14817   4.594  -0.298   6.830 -0.2768  0.2897  1.0673
  136OSM    H5G14818   4.595  -0.120   6.791  1.5182  1.7942 -1.2363
  136OSM    C6F14819   4.771  -0.181   6.855 -0.0503  0.2224  0.1606
  136OSM    H6F14820   4.817  -0.094   6.803 -0.9788  0.8616  0.3965
  136OSM    H6G14821   4.845  -0.263   6.865 -0.0644  0.1681 -0.1758
  136OSM    C7F14822   4.724  -0.145   7.001 -0.3585  0.2240  0.2227
  136OSM    H7F14823   4.667  -0.232   7.038  1.1133 -1.0522 -0.4385
  136OSM    H7G14824   4.647  -0.066   6.991 -0.7364 -0.2907 -1.0361
  136OSM    C8F14825   4.832  -0.100   7.093 -0.1872  0.2003  0.1295
  136OSM    H8F14826   4.893  -0.014   7.060 -2.1209  0.7254 -2.2220
  136OSM    H8G14827   4.889  -0.195   7.085  0.4896  0.5200  1.1510
  136OSM    C9F14828   4.787  -0.078   7.237  0.6861 -0.2294 -0.6035
  136OSM    H9F14829   4.700  -0.135   7.273  2.4852 -2.5816  0.1439
  136OSM   C10F14830   4.823   0.027   7.312  0.0388  0.6832  0.6732
  136OSM   H10F14831   4.778   0.038   7.412 -0.8532  0.0871  0.3421
  136OSM   C11F14832   4.914   0.142   7.282  0.0027 -0.9570  0.7583
  136OSM   H11F14833   4.886   0.233   7.340  1.2567  0.3303 -0.5966
  136OSM   H11G14834   4.896   0.176   7.178  0.6512  0.9713  1.2505
  136OSM   C12F14835   5.055   0.094   7.307 -0.5932 -0.2810 -0.6311
  136OSM   H12F14836   5.126   0.178   7.294  0.6153 -0.9286  1.4971
  136OSM   H12G14837   5.086   0.016   7.235  0.5381  0.5619 -1.0599
  136OSM   C13F14838   5.082   0.042   7.445 -0.4369  0.2352  0.4279
  136OSM   H13F14839   5.192   0.025   7.451 -0.4204  0.4902  0.8816
  136OSM   H13G14840   5.028  -0.052   7.469 -1.5095  0.9139  0.7142
  136OSM   C14F14841   5.056   0.151   7.552  0.0981  0.0385 -0.5568
  136OSM   H14F14842   4.947   0.161   7.573  0.2551  0.6245  0.0072
  136OSM   H14G14843   5.088   0.244   7.500  0.6984 -0.4142 -0.9998
  136OSM   C15F14844   5.130   0.142   7.689 -0.1792 -0.4239 -0.5279
  136OSM   H15F14845   5.241   0.150   7.677 -0.3059 -0.7420 -1.9533
  136OSM   H15G14846   5.105   0.043   7.731 -1.6454  0.2537  0.2236
  136OSM   C16F14847   5.092   0.256   7.782 -0.0637 -0.0345 -0.0203
  136OSM   H16F14848   4.983   0.275   7.787  0.1698  1.4182 -0.3290
  136OSM   H16G14849   5.153   0.342   7.748 -1.3657  1.3335  1.0883
  136OSM   C17F14850   5.129   0.239   7.934  0.3806  0.1539 -0.1605
  136OSM   H17F14851   5.230   0.194   7.943  0.4321 -0.3347 -2.7502
  136OSM   H17G14852   5.056   0.168   7.978  1.1137  0.4304  1.5193
  136OSM   C18F14853   5.135   0.374   8.007 -0.3415  0.3947 -0.1612
  136OSM   H18F14854   5.179   0.360   8.108 -1.6818  0.0361  0.3714
  136OSM   H18G14855   5.028   0.395   8.025 -0.7253 -1.3284 -0.2758
  136OSM   H18H14856   5.184   0.442   7.934  1.5915 -0.3806  0.3605
  137OSM      N14857   1.720   4.292   6.300 -0.2030 -0.3707  0.6394
  137OSM    C1514858   1.835   4.383   6.287 -0.6178 -0.1689 -0.4001
  137OSM   H15A14859   1.928   4.327   6.284 -0.1193  0.5344  1.0085
  137OSM   H15B14860   1.831   4.457   6.366 -0.4617 -0.5893  0.0042
  137OSM   H15C14861   1.840   4.442   6.197  0.6258 -0.1727 -0.3504
  137OSM    C1414862   1.734   4.170   6.216 -0.7354 -0.0879 -0.7214
  137OSM   H14A14863   1.820   4.111   6.244  0.0450  1.0718 -0.6180
  137OSM   H14B14864   1.743   4.199   6.112 -1.8899  0.9565 -0.5335
  137OSM   H14C14865   1.642   4.114   6.217 -1.5504  1.2628  0.3544
  137OSM    C1314866   1.702   4.259   6.447 -0.1250  0.3054 -0.7457
  137OSM   H13A14867   1.668   4.349   6.496  0.1892  0.6872 -1.2216
  137OSM   H13B14868   1.798   4.231   6.489 -1.1814 -1.3683  0.6160
  137OSM   H13C14869   1.638   4.173   6.461  1.1538 -0.5634 -0.0382
  137OSM    C1214870   1.588   4.359   6.252 -0.0456  0.8618  0.0135
  137OSM   H12A14871   1.510   4.286   6.233  1.7378 -0.4076 -2.7343
  137OSM   H12B14872   1.609   4.408   6.158 -2.4616  2.2589  0.1455
  137OSM    C1114873   1.521   4.463   6.349  0.6440 -0.3364  0.2068
  137OSM   H11A14874   1.505   4.412   6.446  0.3000  0.4144  0.5434
  137OSM   H11B14875   1.422   4.489   6.307  0.4021  0.4947  1.2774
  137OSM      P14876   1.632   4.654   6.500  0.3276  0.2105  0.1956
  137OSM    O1314877   1.745   4.747   6.476  0.6575  0.1026  0.8366
  137OSM    O1414878   1.517   4.712   6.578 -0.5142  0.4261 -0.3476
  137OSM    O1114879   1.682   4.533   6.584  0.8123 -0.6182 -0.5425
  137OSM    O1214880   1.582   4.587   6.369 -0.3313 -0.3653  0.1258
  137OSM    C1S14881   1.763   4.547   6.697  0.8089  0.2898 -0.1660
  137OSM    H1S14882   1.816   4.644   6.706  0.9441  0.0708  1.4463
  137OSM    H1T14883   1.843   4.470   6.693  1.0711  0.6054 -1.3788
  137OSM     NF14884   1.770   4.568   6.942 -0.2025  0.3972  0.0500
  137OSM    HNF14885   1.793   4.500   7.011 -1.8097  0.4090  0.5964
  137OSM    C2S14886   1.680   4.546   6.831  0.1091  0.1087 -0.8873
  137OSM    H2S14887   1.611   4.633   6.831  1.4060  1.1427 -1.1522
  137OSM    C3S14888   1.595   4.416   6.842 -0.2910 -0.2458 -0.0407
  137OSM    H3S14889   1.655   4.331   6.880 -0.7098 -0.1440  0.8562
  137OSM     O314890   1.543   4.366   6.722  0.1055  0.5741 -0.6569
  137OSM    HO314891   1.589   4.398   6.645  0.1451 -0.0895 -0.9147
  137OSM    C4S14892   1.482   4.442   6.937  0.0395  0.2097 -0.0474
  137OSM    H4S14893   1.393   4.492   6.895  0.3244  2.2603  1.6490
  137OSM    C5S14894   1.494   4.418   7.072 -0.1593 -0.0437 -0.4074
  137OSM    H5S14895   1.589   4.374   7.107 -1.2213 -1.1168  1.1946
  137OSM    C6S14896   1.392   4.446   7.181 -0.7073 -0.1673  0.2695
  137OSM    H6S14897   1.362   4.357   7.241 -2.1232  0.1293  0.0084
  137OSM    H6T14898   1.295   4.484   7.143 -0.5027  0.0310 -0.0633
  137OSM    C7S14899   1.450   4.559   7.269  0.2958  0.1182  0.1580
  137OSM    H7S14900   1.468   4.641   7.197  2.7762  0.2341  0.8766
  137OSM    H7T14901   1.542   4.519   7.317 -0.1690 -0.4309  0.6165
  137OSM    C8S14902   1.353   4.603   7.379  0.2610 -0.1739  0.3507
  137OSM    H8S14903   1.324   4.517   7.443  0.4147 -0.4688  0.0300
  137OSM    H8T14904   1.256   4.630   7.333 -0.5609 -4.0329 -0.4058
  137OSM    C9S14905   1.401   4.712   7.474  0.3607 -0.0766  0.6370
  137OSM    H9S14906   1.441   4.804   7.427  0.1579  0.5891  1.7468
  137OSM    H9T14907   1.491   4.667   7.523  1.8401  1.5778 -0.5044
  137OSM   C10S14908   1.294   4.761   7.571 -0.0384 -0.7299 -0.1131
  137OSM   H10S14909   1.210   4.694   7.600 -0.1219 -1.6464 -2.3230
  137OSM   H10T14910   1.239   4.840   7.517 -1.2907 -1.4965  0.0348
  137OSM   C11S14911   1.351   4.836   7.690 -0.1585 -0.2254  0.3742
  137OSM   H11S14912   1.387   4.935   7.654 -1.4317 -0.1832 -0.7859
  137OSM   H11T14913   1.442   4.781   7.724  1.5779  1.2834 -1.6810
  137OSM   C12S14914   1.246   4.863   7.798 -0.9766 -0.6359  0.1550
  137OSM   H12S14915   1.158   4.918   7.760 -1.8655 -2.6525 -0.7666
  137OSM   H12T14916   1.286   4.934   7.874  1.0178 -0.3453 -1.1289
  137OSM   C13S14917   1.184   4.736   7.869  0.2287  0.1307  0.0905
  137OSM   H13S14918   1.256   4.676   7.928  0.3457  0.0977 -0.0848
  137OSM   H13T14919   1.134   4.668   7.797 -0.2276  0.2994  0.2486
  137OSM   C14S14920   1.071   4.782   7.967  0.4688  0.7693  0.3015
  137OSM   H14S14921   1.011   4.694   7.998  1.4766  0.7350  2.2401
  137OSM   H14T14922   1.007   4.849   7.905 -0.7955 -0.4770  0.2321
  137OSM   C15S14923   1.124   4.838   8.100  0.4266 -1.1370  0.1852
  137OSM   H15S14924   1.214   4.897   8.074 -1.1065  0.1872 -2.3014
  137OSM   H15T14925   1.151   4.751   8.164 -0.8534  0.1500  2.5737
  137OSM   C16S14926   1.027   4.923   8.180 -0.4936  0.7493  0.5027
  137OSM   H16S14927   0.933   4.865   8.199 -1.7883  3.3321  2.3426
  137OSM   H16T14928   0.994   5.006   8.115  0.0980  0.5126 -0.1026
  137OSM   C17S14929   1.084   4.974   8.316 -0.4444 -0.1954  0.4144
  137OSM   H17S14930   1.167   5.046   8.300 -1.1248 -0.1479 -3.4003
  137OSM   H17T14931   1.125   4.892   8.378 -1.2358 -0.4785  0.5661
  137OSM   C18S14932   0.982   5.052   8.396  0.7024 -0.3153 -0.1722
  137OSM   H18S14933   1.040   5.096   8.480 -0.9339  1.6149 -0.0229
  137OSM   H18T14934   0.899   4.989   8.434 -0.6968  2.0681  0.8272
  137OSM   H18U14935   0.932   5.133   8.340  0.0021 -0.0966  0.7575
  137OSM    C1F14936   1.816   4.687   6.971 -0.6997 -0.3275 -0.0977
  137OSM     OF14937   1.775   4.784   6.912 -0.3739  0.1324  0.3666
  137OSM    C2F14938   1.908   4.701   7.093 -0.1849  0.2635  0.1192
  137OSM    H2F14939   1.981   4.785   7.095 -0.6328  0.6480  0.6016
  137OSM    H2G14940   1.966   4.606   7.091 -0.6200 -0.0732  1.8974
  137OSM    C3F14941   1.822   4.700   7.214  1.1031 -0.1368  0.4477
  137OSM    H3F14942   1.777   4.599   7.217 -0.2695  0.4113 -0.8549
  137OSM    H3G14943   1.749   4.783   7.204 -0.8457 -1.5607  2.3898
  137OSM    C4F14944   1.901   4.710   7.351  0.3314  0.3611 -0.0696
  137OSM    H4F14945   1.983   4.783   7.331  1.1047 -0.2608  0.7400
  137OSM    H4G14946   1.942   4.607   7.360 -0.3272  0.1083  0.0589
  137OSM    C5F14947   1.814   4.753   7.470 -0.1822  0.2086 -0.3333
  137OSM    H5F14948   1.733   4.679   7.487  0.8955 -1.2056 -1.1639
  137OSM    H5G14949   1.773   4.853   7.444 -0.0505  0.0160 -1.3114
  137OSM    C6F14950   1.890   4.765   7.596  0.2572  0.1306 -0.2182
  137OSM    H6F14951   1.976   4.836   7.597  2.0250 -1.9079 -2.1640
  137OSM    H6G14952   1.917   4.661   7.623 -2.1454  0.1548  2.4746
  137OSM    C7F14953   1.807   4.833   7.716  0.4967 -0.2240  0.6133
  137OSM    H7F14954   1.704   4.792   7.704 -0.0474  0.7725  1.7840
  137OSM    H7G14955   1.797   4.943   7.705 -0.6059 -0.2785  0.9761
  137OSM    C8F14956   1.847   4.793   7.860  0.5145 -0.1338  0.5254
  137OSM    H8F14957   1.861   4.683   7.869 -2.2021 -0.3598  2.5738
  137OSM    H8G14958   1.771   4.811   7.938  0.1005  1.7430 -0.2855
  137OSM    C9F14959   1.976   4.860   7.898 -0.4167  0.0284 -0.5487
  137OSM    H9F14960   1.988   4.964   7.865  2.0923  0.0605  0.3314
  137OSM   C10F14961   2.067   4.822   7.992 -0.1873  0.0019  1.2944
  137OSM   H10F14962   2.154   4.889   8.006  0.2798  0.2748 -2.3124
  137OSM   C11F14963   2.075   4.702   8.087  0.6516 -0.2191 -0.0233
  137OSM   H11F14964   2.177   4.658   8.075  0.7662 -0.0418  0.3336
  137OSM   H11G14965   1.998   4.629   8.051  0.8667 -1.2860  1.6298
  137OSM   C12F14966   2.050   4.735   8.233  0.1205 -0.3624  0.0976
  137OSM   H12F14967   2.127   4.811   8.258  1.3108 -1.7637  0.7768
  137OSM   H12G14968   2.071   4.651   8.303  1.3428  0.1695  0.3837
  137OSM   C13F14969   1.915   4.802   8.259 -0.7325  0.7698  0.0420
  137OSM   H13F14970   1.830   4.744   8.216 -0.5581 -0.5551  1.4491
  137OSM   H13G14971   1.930   4.905   8.218  1.9891  1.1384  1.8940
  137OSM   C14F14972   1.875   4.829   8.409 -0.0712  0.0920 -0.3716
  137OSM   H14F14973   1.834   4.930   8.431 -1.4840  0.0407 -2.5862
  137OSM   H14G14974   1.961   4.812   8.477 -0.1196  0.3559 -0.2444
  137OSM   C15F14975   1.760   4.729   8.439  0.0893  0.1402  0.1978
  137OSM   H15F14976   1.802   4.626   8.438  1.2775  0.6230 -0.5371
  137OSM   H15G14977   1.689   4.737   8.355  1.8929 -1.8473 -1.5719
  137OSM   C16F14978   1.699   4.752   8.578 -0.4067  0.6023 -0.1388
  137OSM   H16F14979   1.667   4.858   8.579 -1.1241  0.4206 -1.9746
  137OSM   H16G14980   1.771   4.731   8.660 -2.1034 -1.0694  1.0004
  137OSM   C17F14981   1.570   4.674   8.611 -0.0830  0.3321  0.6706
  137OSM   H17F14982   1.470   4.691   8.565 -0.1898 -1.9065  0.0467
  137OSM   H17G14983   1.566   4.706   8.718  1.5169 -0.8446  1.0993
  137OSM   C18F14984   1.583   4.525   8.600  0.3349  0.6106  0.0670
  137OSM   H18F14985   1.517   4.469   8.669 -0.1036 -3.3607 -3.3701
  137OSM   H18G14986   1.683   4.491   8.635  1.0296  0.4200 -2.0289
  137OSM   H18H14987   1.569   4.484   8.498  0.6222 -0.3695  0.4164
  138OSM      N14988   1.544   6.293   5.830  0.5730  1.0299  0.3711
  138OSM    C1514989   1.503   6.156   5.783  0.2303 -0.3022  0.2983
  138OSM   H15A14990   1.460   6.155   5.684  1.9636 -0.2188 -0.4720
  138OSM   H15B14991   1.429   6.110   5.846  0.6999 -0.7436  0.5334
  138OSM   H15C14992   1.588   6.090   5.786  1.1531  0.8989  1.2609
  138OSM    C1414993   1.682   6.321   5.766 -0.3639 -0.2117 -0.0132
  138OSM   H14A14994   1.752   6.243   5.794  0.6081  0.5133 -0.4026
  138OSM   H14B14995   1.727   6.414   5.800 -1.8487 -0.0067  1.4384
  138OSM   H14C14996   1.678   6.330   5.659 -0.4271  0.8378  0.0721
  138OSM    C1314997   1.451   6.394   5.781 -0.0632  0.1121 -0.1668
  138OSM   H13A14998   1.348   6.387   5.815 -0.4817 -1.3604 -1.6633
  138OSM   H13B14999   1.436   6.377   5.675 -0.8777 -0.1178 -0.0180
  138OSM   H13C15000   1.490   6.493   5.798  0.2690 -0.2003  0.9225
  138OSM    C1215001   1.554   6.293   5.975  0.5486 -0.0287  0.3691
  138OSM   H12A15002   1.609   6.207   6.010  0.5863  0.2128  0.8985
  138OSM   H12B15003   1.458   6.280   6.022 -0.5428  0.9829 -1.5031
  138OSM    C1115004   1.595   6.428   6.049 -0.3330  0.0171 -0.2309
  138OSM   H11A15005   1.696   6.461   6.016 -0.5557  0.0586 -0.8915
  138OSM   H11B15006   1.602   6.396   6.155  0.8891  1.8522  0.2631
  138OSM      P15007   1.549   6.684   6.074 -0.1302 -0.4965 -0.4018
  138OSM    O1315008   1.658   6.714   5.979  0.0312 -0.1000  0.2732
  138OSM    O1415009   1.431   6.772   6.079  0.1577  0.7478  0.7329
  138OSM    O1115010   1.597   6.674   6.224 -0.1078 -0.1034  0.4183
  138OSM    O1215011   1.499   6.535   6.047 -0.4546  0.0249  0.0334
  138OSM    C1S15012   1.522   6.632   6.333 -0.7727 -0.2618  0.1991
  138OSM    H1S15013   1.528   6.521   6.336  0.5560 -0.2455 -1.1856
  138OSM    H1T15014   1.419   6.674   6.324 -0.3383  0.5611 -1.0920
  138OSM     NF15015   1.489   6.616   6.566 -0.3262  0.2531  0.5171
  138OSM    HNF15016   1.411   6.667   6.604 -1.2361  0.0853 -1.0889
  138OSM    C2S15017   1.575   6.681   6.469 -0.8385 -0.1474  0.4123
  138OSM    H2S15018   1.680   6.649   6.485 -0.8577  0.5542  2.0666
  138OSM    C3S15019   1.560   6.831   6.462  0.6703  0.0878 -1.1152
  138OSM    H3S15020   1.451   6.843   6.444  1.0895  2.6280 -2.1759
  138OSM     O315021   1.627   6.896   6.359  0.0120 -0.2059  0.0680
  138OSM    HO315022   1.658   6.829   6.297 -0.1098 -2.4740  2.3592
  138OSM    C4S15023   1.593   6.904   6.596  0.5302  0.6293 -0.1661
  138OSM    H4S15024   1.501   6.928   6.652  1.6600 -2.3281  3.1523
  138OSM    C5S15025   1.710   6.940   6.646 -0.2736 -0.9261 -0.5164
  138OSM    H5S15026   1.798   6.926   6.582 -0.6240 -1.9585 -0.7912
  138OSM    C6S15027   1.726   7.012   6.780  0.0064  0.3746  0.0639
  138OSM    H6S15028   1.778   7.107   6.755 -0.6691  0.2393 -1.9313
  138OSM    H6T15029   1.778   6.935   6.841  1.3206 -0.6158 -2.2410
  138OSM    C7S15030   1.594   7.064   6.845  0.3239  0.6919 -0.4521
  138OSM    H7S15031   1.521   6.980   6.851 -0.1028  1.0947  0.0510
  138OSM    H7T15032   1.534   7.128   6.777  0.0287  0.5488 -0.3277
  138OSM    C8S15033   1.617   7.133   6.980  0.5578 -0.4039  0.1374
  138OSM    H8S15034   1.529   7.192   7.016 -1.3457 -2.3263 -1.2305
  138OSM    H8T15035   1.695   7.210   6.965  0.1607 -0.1491 -0.6598
  138OSM    C9S15036   1.667   7.033   7.087  0.4943  0.2456 -0.1936
  138OSM    H9S15037   1.773   7.005   7.071  0.7657 -0.2177  2.3129
  138OSM    H9T15038   1.619   6.934   7.074  0.3799  0.4498 -1.3652
  138OSM   C10S15039   1.650   7.080   7.232 -0.1321  0.8418  0.4310
  138OSM   H10S15040   1.539   7.076   7.238 -0.2958  3.0295 -0.8509
  138OSM   H10T15041   1.687   7.183   7.248  0.2543  0.6588  0.7385
  138OSM   C11S15042   1.706   6.980   7.340  0.6240 -0.4339 -0.2435
  138OSM   H11S15043   1.813   7.009   7.333  0.3435  0.9941  1.1122
  138OSM   H11T15044   1.689   6.876   7.305  0.3612  0.3434 -2.5351
  138OSM   C12S15045   1.640   7.017   7.476  0.1153 -0.1449 -0.1646
  138OSM   H12S15046   1.637   6.931   7.547 -1.4068  1.4119  1.6840
  138OSM   H12T15047   1.537   7.048   7.451 -0.1364  0.7856  1.9475
  138OSM   C13S15048   1.709   7.136   7.544  0.3839  0.1045 -0.2852
  138OSM   H13S15049   1.716   7.212   7.463  1.3728 -0.4240 -0.7037
  138OSM   H13T15050   1.814   7.113   7.573  0.1477  1.4591  1.7562
  138OSM   C14S15051   1.631   7.197   7.661  0.5108  0.2469  0.2859
  138OSM   H14S15052   1.523   7.204   7.635 -0.0189  0.6039  2.4891
  138OSM   H14T15053   1.665   7.300   7.681  1.1717  0.3381 -1.2275
  138OSM   C15S15054   1.660   7.114   7.786  1.0692 -0.2751 -0.3607
  138OSM   H15S15055   1.769   7.099   7.794  0.7860 -2.6568 -0.4625
  138OSM   H15T15056   1.607   7.017   7.773 -1.2369  0.8601  0.1420
  138OSM   C16S15057   1.596   7.174   7.917  0.1739  0.2711 -0.1060
  138OSM   H16S15058   1.643   7.270   7.947 -0.6127  0.2386  1.2900
  138OSM   H16T15059   1.611   7.101   7.999 -0.6448 -1.5713 -1.5545
  138OSM   C17S15060   1.440   7.192   7.914  0.3553 -0.5503 -0.4551
  138OSM   H17S15061   1.404   7.089   7.894  1.1132 -1.1172  1.0087
  138OSM   H17T15062   1.417   7.257   7.827 -3.1231  2.0510  2.2451
  138OSM   C18S15063   1.379   7.235   8.046  0.3466  0.1619  0.1192
  138OSM   H18S15064   1.276   7.276   8.052 -0.1246 -1.0794  0.5629
  138OSM   H18T15065   1.445   7.312   8.093  0.2175  0.5641 -0.3557
  138OSM   H18U15066   1.381   7.149   8.116  0.9561  0.7460  0.8304
  138OSM    C1F15067   1.488   6.493   6.588  0.4726  0.5909 -0.3715
  138OSM     OF15068   1.589   6.430   6.551  0.8694 -0.1176  0.0670
  138OSM    C2F15069   1.362   6.429   6.639  0.3573 -0.0247 -0.5594
  138OSM    H2F15070   1.361   6.333   6.582  1.1529  0.8760 -2.1047
  138OSM    H2G15071   1.268   6.485   6.621  1.9326  3.0255  0.4145
  138OSM    C3F15072   1.379   6.383   6.786 -0.2186 -0.6600 -0.3751
  138OSM    H3F15073   1.481   6.342   6.803  1.8915  4.5036  0.2257
  138OSM    H3G15074   1.295   6.316   6.814 -1.9293  0.0622 -3.4967
  138OSM    C4F15075   1.377   6.500   6.890 -0.2326  0.3124 -0.2315
  138OSM    H4F15076   1.445   6.581   6.856 -0.1199  0.0338 -0.6653
  138OSM    H4G15077   1.416   6.463   6.987 -2.2364  0.1132  0.5219
  138OSM    C5F15078   1.241   6.562   6.922  0.4380 -0.3369  0.0813
  138OSM    H5F15079   1.165   6.481   6.916  2.0799 -1.7538 -2.1426
  138OSM    H5G15080   1.205   6.630   6.842 -1.3549 -1.4836 -0.1265
  138OSM    C6F15081   1.232   6.622   7.064  0.1639 -0.3306 -0.3967
  138OSM    H6F15082   1.282   6.550   7.133  0.1683  1.1237  1.1575
  138OSM    H6G15083   1.128   6.634   7.100  0.9899  1.9537  1.3285
  138OSM    C7F15084   1.314   6.752   7.081 -0.1754 -1.5877  0.0791
  138OSM    H7F15085   1.250   6.835   7.044 -0.5726 -1.6088  0.7073
  138OSM    H7G15086   1.401   6.747   7.013 -0.2436 -0.1127 -0.1272
  138OSM    C8F15087   1.367   6.780   7.224  0.0301 -0.6563  0.4297
  138OSM    H8F15088   1.431   6.871   7.229 -0.8883  0.1352 -1.4766
  138OSM    H8G15089   1.441   6.701   7.248 -2.8290 -3.5125  0.1421
  138OSM    C9F15090   1.245   6.783   7.311  0.6731  0.0175 -1.0628
  138OSM    H9F15091   1.149   6.805   7.261 -0.2551 -0.4761  0.4676
  138OSM   C10F15092   1.235   6.746   7.433 -0.3890  0.0197 -0.9516
  138OSM   H10F15093   1.138   6.742   7.485  0.7078 -0.3453  1.1100
  138OSM   C11F15094   1.345   6.706   7.533 -0.2341 -0.7406 -0.0233
  138OSM   H11F15095   1.446   6.694   7.489  0.4553  2.5531  0.5714
  138OSM   H11G15096   1.324   6.606   7.577 -3.6291 -0.4803 -0.9251
  138OSM   C12F15097   1.335   6.811   7.648  0.1640 -0.1843 -0.3334
  138OSM   H12F15098   1.360   6.913   7.611 -0.3006  0.4822  1.1850
  138OSM   H12G15099   1.408   6.774   7.723 -0.7633 -1.6610 -0.1441
  138OSM   C13F15100   1.209   6.814   7.743  0.3182  0.1400 -0.1138
  138OSM   H13F15101   1.116   6.839   7.688 -0.4218 -1.1097  0.5468
  138OSM   H13G15102   1.228   6.906   7.802  2.0967  1.0123 -1.9794
  138OSM   C14F15103   1.178   6.689   7.825 -0.6344  0.4286 -0.2873
  138OSM   H14F15104   1.226   6.595   7.792  0.1977  0.1031  1.7681
  138OSM   H14G15105   1.071   6.676   7.853 -0.7773  0.6190 -0.7384
  138OSM   C15F15106   1.242   6.719   7.971  0.7585  0.6192  0.2546
  138OSM   H15F15107   1.352   6.739   7.970  0.6426  1.2403 -2.2639
  138OSM   H15G15108   1.226   6.631   8.037 -0.0491  0.0236 -0.7379
  138OSM   C16F15109   1.161   6.826   8.044 -0.1956  0.8666 -0.3399
  138OSM   H16F15110   1.057   6.829   8.006  0.4537  0.8429 -2.2081
  138OSM   H16G15111   1.202   6.926   8.020  1.6180  0.6088  1.5091
  138OSM   C17F15112   1.153   6.802   8.194  0.0900 -0.5593  0.2879
  138OSM   H17F15113   1.105   6.702   8.203 -0.0042 -0.4970  0.4871
  138OSM   H17G15114   1.077   6.871   8.237  1.1818  1.5406 -1.0640
  138OSM   C18F15115   1.288   6.796   8.266  0.2344 -0.7966  0.3489
  138OSM   H18F15116   1.282   6.756   8.369 -0.0980  2.5119  1.6876
  138OSM   H18G15117   1.320   6.900   8.289  1.7224 -0.4014 -3.1405
  138OSM   H18H15118   1.374   6.746   8.217  0.8550 -1.2988  1.9293
  139OSM      N15119   0.199   0.286   5.938 -0.1170 -0.5443 -0.0272
  139OSM    C1515120   0.062   0.332   5.947  0.1554 -0.5669  0.3842
  139OSM   H15A15121   0.036   0.372   5.851  1.5734 -2.2459 -0.7397
  139OSM   H15B15122   0.046   0.413   6.017 -2.8086 -1.1467  0.4322
  139OSM   H15C15123  -0.008   0.251   5.954 -2.1334  1.3548  0.3536
  139OSM    C1415124   0.212   0.183   5.833  0.0381 -0.0804 -0.1921
  139OSM   H14A15125   0.185   0.224   5.737  0.2910  0.8105  0.1125
  139OSM   H14B15126   0.147   0.098   5.847 -1.0401  0.2754 -2.8745
  139OSM   H14C15127   0.313   0.143   5.825 -0.6443 -1.4922 -2.1135
  139OSM    C1315128   0.276   0.406   5.880  0.6159  0.3150  0.1395
  139OSM   H13A15129   0.232   0.431   5.785 -1.0996 -1.6973  0.3582
  139OSM   H13B15130   0.378   0.380   5.856  0.5962 -0.0466  0.4403
  139OSM   H13C15131   0.267   0.480   5.957 -2.6472 -0.2131  0.3143
  139OSM    C1215132   0.264   0.240   6.071 -0.1878 -0.1917  0.6351
  139OSM   H12A15133   0.366   0.220   6.043 -1.1507 -3.7751 -0.7610
  139OSM   H12B15134   0.226   0.145   6.106  0.3154 -0.5260  0.2707
  139OSM    C1115135   0.257   0.333   6.196  0.3852  0.3199  0.3864
  139OSM   H11A15136   0.308   0.294   6.287 -0.1814 -1.3625 -0.0032
  139OSM   H11B15137   0.149   0.344   6.219 -0.4350 -0.3266 -2.8552
  139OSM      P15138   0.256   0.596   6.213  0.0635  0.0193 -0.3830
  139OSM    O1315139   0.355   0.700   6.184 -0.1743 -0.1550 -0.2945
  139OSM    O1415140   0.118   0.597   6.159 -0.7800 -0.3344 -0.1374
  139OSM    O1115141   0.248   0.564   6.371  0.4007  0.0315  0.9534
  139OSM    O1215142   0.316   0.458   6.166  0.0726  0.1689  0.7324
  139OSM    C1S15143   0.337   0.624   6.461  0.3889 -0.3020  0.2851
  139OSM    H1S15144   0.373   0.725   6.434  0.3583 -0.7023 -1.3112
  139OSM    H1T15145   0.431   0.564   6.468  1.6703  1.2868 -2.6575
  139OSM     NF15146   0.381   0.688   6.683  0.4398 -0.0938 -0.3611
  139OSM    HNF15147   0.424   0.624   6.745 -1.0122  0.5226  1.3442
  139OSM    C2S15148   0.278   0.622   6.603  0.4514  0.2687  0.1807
  139OSM    H2S15149   0.191   0.691   6.602  0.2548  0.0365  1.2318
  139OSM    C3S15150   0.241   0.483   6.648 -0.7364  0.4787  0.1179
  139OSM    H3S15151   0.331   0.418   6.644 -0.3568  1.0714 -1.2071
  139OSM     O315152   0.162   0.407   6.565 -0.2879  0.0637  0.3308
  139OSM    HO315153   0.169   0.451   6.479  1.9987  0.0648  0.4825
  139OSM    C4S15154   0.187   0.490   6.787 -0.0854 -0.1707  0.6744
  139OSM    H4S15155   0.263   0.463   6.862  0.7338 -1.5266 -0.6233
  139OSM    C5S15156   0.060   0.513   6.829  0.4412  0.4660  0.6685
  139OSM    H5S15157  -0.026   0.515   6.760  2.0752 -1.4145 -1.4848
  139OSM    C6S15158   0.010   0.497   6.972  0.6122  0.5505  0.0928
  139OSM    H6S15159   0.098   0.474   7.036  1.6410 -1.6086 -2.0058
  139OSM    H6T15160  -0.067   0.416   6.971  0.6153  0.5374 -2.1085
  139OSM    C7S15161  -0.061   0.615   7.024 -1.3766  0.2692 -1.0802
  139OSM    H7S15162  -0.154   0.633   6.966 -3.0839  0.2356  1.5765
  139OSM    H7T15163   0.011   0.700   7.021 -0.3485 -0.3842  2.6959
  139OSM    C8S15164  -0.098   0.596   7.174  0.5116  0.6544 -0.3941
  139OSM    H8S15165  -0.148   0.499   7.193 -1.1372  1.5306 -0.1485
  139OSM    H8T15166  -0.177   0.674   7.182  0.9551  1.0654  0.0362
  139OSM    C9S15167   0.018   0.611   7.276  0.1593  0.7498 -0.1871
  139OSM    H9S15168   0.098   0.664   7.221  2.1441 -0.8406  1.1091
  139OSM    H9T15169   0.072   0.520   7.309  3.0216  1.5346 -2.5117
  139OSM   C10S15170  -0.023   0.687   7.407 -0.0483  0.1150  0.1438
  139OSM   H10S15171  -0.098   0.626   7.461 -0.0650 -0.1000 -0.1203
  139OSM   H10T15172  -0.077   0.778   7.373  0.5510  0.5377  0.3287
  139OSM   C11S15173   0.097   0.734   7.483  0.1329  0.5368  0.4991
  139OSM   H11S15174   0.158   0.808   7.426  1.0924  0.2428  1.1292
  139OSM   H11T15175   0.171   0.653   7.502 -1.1753 -0.6546  0.5735
  139OSM   C12S15176   0.072   0.799   7.622 -0.1826  0.1710 -0.3463
  139OSM   H12S15177   0.018   0.725   7.685  1.0941 -1.9571 -1.6798
  139OSM   H12T15178  -0.004   0.873   7.590 -1.3692 -1.1037 -0.4965
  139OSM   C13S15179   0.201   0.853   7.661  1.0077 -0.1870  0.3443
  139OSM   H13S15180   0.211   0.960   7.633  2.7191 -0.8356 -1.6179
  139OSM   H13T15181   0.291   0.806   7.616  0.6525  0.2417 -0.8298
  139OSM   C14S15182   0.215   0.876   7.818  0.4705  0.4342  0.0556
  139OSM   H14S15183   0.225   0.776   7.867 -0.2282  0.5890  0.5278
  139OSM   H14T15184   0.127   0.921   7.870  1.9074  1.3288  1.7480
  139OSM   C15S15185   0.341   0.955   7.857 -0.3382  0.1517 -0.4770
  139OSM   H15S15186   0.358   1.042   7.791 -3.0584  1.0083 -0.1183
  139OSM   H15T15187   0.436   0.896   7.853 -0.5787 -0.2815  0.0265
  139OSM   C16S15188   0.331   1.018   7.998 -0.3013 -0.0508 -0.2341
  139OSM   H16S15189   0.300   0.932   8.062  2.9067 -0.9008  0.2529
  139OSM   H16T15190   0.248   1.091   8.004  0.3108  0.7845 -1.6664
  139OSM   C17S15191   0.462   1.071   8.055 -0.2548  0.1126 -0.2424
  139OSM   H17S15192   0.487   1.174   8.023  1.6624 -0.4528 -0.6593
  139OSM   H17T15193   0.547   1.007   8.023 -1.2373 -1.7725  0.7877
  139OSM   C18S15194   0.463   1.057   8.213 -0.0886  0.2235 -0.1205
  139OSM   H18S15195   0.363   1.079   8.257  0.5812  1.3205  0.8803
  139OSM   H18T15196   0.550   1.100   8.267  0.6299 -2.7412  1.1614
  139OSM   H18U15197   0.489   0.951   8.234  0.9653  0.3941 -0.5157
  139OSM    C1F15198   0.416   0.823   6.676 -0.4140  0.8401  0.1848
  139OSM     OF15199   0.359   0.906   6.606 -0.0403  0.3671  0.9062
  139OSM    C2F15200   0.522   0.875   6.775  0.7664  0.1543  0.2670
  139OSM    H2F15201   0.607   0.805   6.764 -0.2345 -1.9343  4.5958
  139OSM    H2G15202   0.465   0.862   6.870 -1.1801  0.5022 -0.8105
  139OSM    C3F15203   0.564   1.021   6.747 -0.8831 -0.4858  0.0338
  139OSM    H3F15204   0.487   1.093   6.782  2.2696  2.2818  1.6390
  139OSM    H3G15205   0.584   1.019   6.638  1.1788 -1.7712  0.4111
  139OSM    C4F15206   0.694   1.070   6.807 -0.6075  0.1116 -0.4126
  139OSM    H4F15207   0.775   1.004   6.770 -0.4387 -0.1708  0.4464
  139OSM    H4G15208   0.697   1.061   6.917  3.4940 -0.2514 -0.4810
  139OSM    C5F15209   0.739   1.213   6.780  0.4672 -0.5098 -0.8311
  139OSM    H5F15210   0.748   1.222   6.669  0.7617  0.6708 -0.7214
  139OSM    H5G15211   0.834   1.240   6.830 -0.0954  1.9448 -1.0166
  139OSM    C6F15212   0.642   1.321   6.823  0.2845 -0.1599  0.1839
  139OSM    H6F15213   0.560   1.333   6.748 -0.5793  0.0509  1.1501
  139OSM    H6G15214   0.686   1.420   6.799 -0.2808 -0.4765 -2.3873
  139OSM    C7F15215   0.580   1.315   6.963 -0.3467  0.5852  0.1309
  139OSM    H7F15216   0.509   1.230   6.965 -0.0359  0.3157 -0.2127
  139OSM    H7G15217   0.516   1.400   6.994 -0.9907 -1.0594  3.6223
  139OSM    C8F15218   0.689   1.296   7.073  0.1876 -0.7343 -0.3322
  139OSM    H8F15219   0.762   1.214   7.052  1.5721  0.2740  0.4632
  139OSM    H8G15220   0.638   1.279   7.170 -0.0044  0.8840 -0.1485
  139OSM    C9F15221   0.762   1.433   7.061 -0.1000  0.2930  0.0994
  139OSM    H9F15222   0.855   1.429   7.002 -0.7779 -0.5075 -0.9169
  139OSM   C10F15223   0.726   1.547   7.125 -0.1206 -0.5015  0.1913
  139OSM   H10F15224   0.785   1.639   7.115  2.1173 -1.7243  1.5073
  139OSM   C11F15225   0.607   1.567   7.216  0.2335 -0.7810 -0.2815
  139OSM   H11F15226   0.545   1.474   7.218  0.5596 -1.0184 -1.3587
  139OSM   H11G15227   0.538   1.639   7.167  1.1578 -0.7718 -1.5707
  139OSM   C12F15228   0.639   1.600   7.363  0.4845  0.7295 -0.4779
  139OSM   H12F15229   0.650   1.711   7.368 -0.6516  0.8697 -0.9182
  139OSM   H12G15230   0.731   1.555   7.404 -1.5811 -3.4282 -0.1738
  139OSM   C13F15231   0.519   1.558   7.458  0.2653 -0.1752 -0.2746
  139OSM   H13F15232   0.497   1.449   7.463 -1.1863 -0.0335 -2.7866
  139OSM   H13G15233   0.427   1.602   7.414  1.4327  1.2936 -1.2755
  139OSM   C14F15234   0.536   1.612   7.599  0.3277  0.1805  0.3530
  139OSM   H14F15235   0.441   1.611   7.656 -0.9891  0.6483 -1.7859
  139OSM   H14G15236   0.561   1.719   7.589 -0.2749  0.1884 -1.1654
  139OSM   C15F15237   0.641   1.527   7.680  0.0410 -0.2181 -0.3343
  139OSM   H15F15238   0.742   1.547   7.638  0.7390 -2.4087  0.2292
  139OSM   H15G15239   0.615   1.422   7.655 -1.0082  0.1650 -0.8903
  139OSM   C16F15240   0.631   1.544   7.832 -0.0095  0.3830  0.1089
  139OSM   H16F15241   0.671   1.644   7.857  0.7965  0.4510 -1.3969
  139OSM   H16G15242   0.701   1.465   7.867  0.4866  1.0980  0.7336
  139OSM   C17F15243   0.495   1.526   7.905  0.6904  0.3876 -0.1616
  139OSM   H17F15244   0.424   1.609   7.887 -0.6898 -0.6202  0.5264
  139OSM   H17G15245   0.513   1.534   8.015  2.7516  1.7321 -0.5775
  139OSM   C18F15246   0.423   1.403   7.863  0.1818  0.7177 -0.4066
  139OSM   H18F15247   0.496   1.320   7.879  1.5501  1.3394 -3.0777
  139OSM   H18G15248   0.401   1.406   7.754 -2.9457  1.9152  0.2121
  139OSM   H18H15249   0.329   1.383   7.918  1.1693 -1.8661  0.4300
  140OSM      N15250   1.324   2.497   6.294  0.7289 -0.4845  0.6010
  140OSM    C1515251   1.401   2.565   6.189  0.0068  0.3828 -0.6279
  140OSM   H15A15252   1.452   2.494   6.126 -1.5219 -1.6281  0.3483
  140OSM   H15B15253   1.460   2.642   6.236  0.6430  0.3952 -1.4276
  140OSM   H15C15254   1.343   2.623   6.118 -0.9253  2.1083  1.4612
  140OSM    C1415255   1.207   2.583   6.322 -0.3641  0.2466 -0.4588
  140OSM   H14A15256   1.229   2.689   6.323  1.8566 -0.2041  1.6698
  140OSM   H14B15257   1.171   2.560   6.421 -2.8277 -1.0069 -1.5862
  140OSM   H14C15258   1.126   2.570   6.251 -0.0305 -1.1882 -0.5760
  140OSM    C1315259   1.278   2.360   6.241  0.1252 -0.9886 -1.1389
  140OSM   H13A15260   1.365   2.297   6.238  0.8182 -0.2555  2.2977
  140OSM   H13B15261   1.245   2.372   6.138 -1.3287  3.0377 -0.2936
  140OSM   H13C15262   1.199   2.305   6.291  0.8966 -0.6182  0.5148
  140OSM    C1215263   1.409   2.471   6.417 -0.3721 -0.1511  0.0427
  140OSM   H12A15264   1.478   2.393   6.388 -0.7893 -0.9149  1.0476
  140OSM   H12B15265   1.348   2.421   6.490 -1.9878 -1.5856 -2.2303
  140OSM    C1115266   1.482   2.593   6.484 -0.2784 -0.3982 -0.2966
  140OSM   H11A15267   1.524   2.552   6.578 -1.0669 -2.5538 -0.8439
  140OSM   H11B15268   1.400   2.662   6.514  0.6759  1.1519 -1.1683
  140OSM      P15269   1.589   2.811   6.376 -0.2264  0.0785  0.3971
  140OSM    O1315270   1.713   2.844   6.305 -0.1643  0.8876  0.3838
  140OSM    O1415271   1.460   2.843   6.310  0.2141 -0.3083  0.3463
  140OSM    O1115272   1.597   2.891   6.514 -0.2606  0.5267 -0.2022
  140OSM    O1215273   1.584   2.664   6.412 -0.0390  0.1343 -0.1785
  140OSM    C1S15274   1.665   2.833   6.623 -0.4612 -0.0680 -0.1620
  140OSM    H1S15275   1.769   2.810   6.592 -0.6091  0.1728 -0.8399
  140OSM    H1T15276   1.610   2.740   6.651 -0.2983 -1.1699 -3.2199
  140OSM     NF15277   1.771   2.888   6.834 -0.2982 -0.2122  0.4374
  140OSM    HNF15278   1.735   2.822   6.900 -1.8848 -1.1077 -1.2889
  140OSM    C2S15279   1.661   2.926   6.748  0.4760 -0.2503  0.1645
  140OSM    H2S15280   1.675   3.032   6.720  0.0615  0.5632  2.8616
  140OSM    C3S15281   1.522   2.918   6.819 -0.5758  0.6233  0.0954
  140OSM    H3S15282   1.503   2.811   6.843  0.6419  0.8934  2.4288
  140OSM     O315283   1.414   2.948   6.734 -0.3927 -0.1214 -0.5562
  140OSM    HO315284   1.447   2.944   6.644 -3.3392 -2.6463 -1.5963
  140OSM    C4S15285   1.516   3.005   6.939  0.7205 -0.5665 -0.1052
  140OSM    H4S15286   1.530   3.113   6.927 -2.0020 -0.0368  1.1496
  140OSM    C5S15287   1.508   2.964   7.067  0.3610  0.1777  0.2072
  140OSM    H5S15288   1.527   2.857   7.086 -0.7355  0.2566  1.7875
  140OSM    C6S15289   1.502   3.063   7.176 -0.6009 -0.2157 -0.0231
  140OSM    H6S15290   1.413   3.128   7.163 -1.1569 -1.2104 -1.2290
  140OSM    H6T15291   1.595   3.124   7.176  0.1615 -1.3529 -1.5653
  140OSM    C7S15292   1.490   3.000   7.315  0.7614 -0.2951  0.2173
  140OSM    H7S15293   1.580   2.935   7.326 -0.3783 -1.9730 -0.1731
  140OSM    H7T15294   1.404   2.932   7.333  0.9867 -1.1428 -1.7589
  140OSM    C8S15295   1.482   3.106   7.425 -0.2555 -1.0259 -0.0209
  140OSM    H8S15296   1.418   3.186   7.380 -1.8754 -0.5387  3.0028
  140OSM    H8T15297   1.585   3.147   7.437 -0.9087  1.0567 -1.2044
  140OSM    C9S15298   1.421   3.058   7.557  0.6524  0.7526 -0.4951
  140OSM    H9S15299   1.496   3.004   7.618 -0.5422  0.5303  0.8150
  140OSM    H9T15300   1.341   2.981   7.553 -0.0262  0.9804  4.7385
  140OSM   C10S15301   1.384   3.183   7.644  0.1479 -0.2850  0.0795
  140OSM   H10S15302   1.297   3.230   7.594  0.5065 -0.9687 -1.2058
  140OSM   H10T15303   1.469   3.254   7.641 -1.7922  2.0057 -2.2593
  140OSM   C11S15304   1.349   3.137   7.783 -0.2657 -0.6007 -0.2151
  140OSM   H11S15305   1.443   3.093   7.822 -0.4477 -1.1910 -0.4497
  140OSM   H11T15306   1.274   3.056   7.771  0.9759 -1.9128  0.7539
  140OSM   C12S15307   1.290   3.250   7.870 -0.0775  0.4444 -0.3894
  140OSM   H12S15308   1.194   3.284   7.827 -0.4329 -1.2836 -1.0132
  140OSM   H12T15309   1.356   3.339   7.870 -1.1820  1.2842 -2.1242
  140OSM   C13S15310   1.265   3.214   8.016  0.6948 -0.3503 -1.1796
  140OSM   H13S15311   1.354   3.226   8.081 -1.2758  0.7805  1.3894
  140OSM   H13T15312   1.213   3.117   8.035 -0.0698  0.7043  2.5923
  140OSM   C14S15313   1.169   3.316   8.082  0.7891  1.1485 -0.2300
  140OSM   H14S15314   1.065   3.335   8.046  0.1697  2.6502  2.2922
  140OSM   H14T15315   1.228   3.410   8.076  0.3046  1.4722  0.0449
  140OSM   C15S15316   1.160   3.294   8.235 -0.5821 -0.0879  0.2541
  140OSM   H15S15317   1.238   3.219   8.260  1.1272  1.4154 -0.4145
  140OSM   H15T15318   1.062   3.251   8.265 -0.4910  0.4670  1.3911
  140OSM   C16S15319   1.177   3.426   8.299 -0.3957 -0.1746 -0.5761
  140OSM   H16S15320   1.078   3.476   8.300 -1.1592 -1.6721  1.6232
  140OSM   H16T15321   1.262   3.482   8.253 -0.8507 -0.9482 -2.4140
  140OSM   C17S15322   1.212   3.405   8.449 -0.2650 -0.2342  0.6367
  140OSM   H17S15323   1.225   3.504   8.499 -1.2772 -1.3717  3.2336
  140OSM   H17T15324   1.308   3.348   8.451 -0.9803 -1.4525  0.8422
  140OSM   C18S15325   1.111   3.331   8.527 -0.3166 -0.1992 -0.4661
  140OSM   H18S15326   1.097   3.229   8.484 -1.1823  0.2006 -1.1646
  140OSM   H18T15327   1.011   3.380   8.521  0.2458  1.0654  0.2770
  140OSM   H18U15328   1.130   3.328   8.636  2.4813  1.0577 -0.9015
  140OSM    C1F15329   1.902   2.905   6.807  0.0791  0.3976 -0.6920
  140OSM     OF15330   1.944   2.960   6.709 -0.2996 -0.2397 -0.1227
  140OSM    C2F15331   2.003   2.843   6.898 -0.1330  0.0723  0.6877
  140OSM    H2F15332   2.069   2.927   6.929 -1.6672  0.0827  4.1640
  140OSM    H2G15333   2.065   2.784   6.828  1.0209  1.8441  0.1706
  140OSM    C3F15334   1.945   2.775   7.018 -0.0421  0.3007 -0.2397
  140OSM    H3F15335   1.878   2.689   6.996  0.3326  0.1380 -0.7639
  140OSM    H3G15336   1.889   2.850   7.078 -0.8295 -0.1151 -0.4439
  140OSM    C4F15337   2.057   2.725   7.113  0.0074  0.6408  0.2839
  140OSM    H4F15338   2.130   2.808   7.121  0.3382  0.2348  1.5414
  140OSM    H4G15339   2.106   2.638   7.065 -3.0359 -0.3186 -1.2205
  140OSM    C5F15340   2.004   2.684   7.248 -0.0547 -0.5972  0.0261
  140OSM    H5F15341   1.942   2.593   7.234 -1.3425  0.2840 -0.0351
  140OSM    H5G15342   1.951   2.766   7.300 -0.8014 -0.2066 -1.3267
  140OSM    C6F15343   2.124   2.636   7.329  0.0727 -0.2866  0.2368
  140OSM    H6F15344   2.196   2.716   7.358  1.6509 -1.4850 -0.3272
  140OSM    H6G15345   2.176   2.565   7.261  0.0924 -0.2800  0.2454
  140OSM    C7F15346   2.088   2.558   7.463  0.1972 -0.5983 -0.4252
  140OSM    H7F15347   2.008   2.483   7.445  0.6660 -1.1512 -0.2272
  140OSM    H7G15348   2.035   2.629   7.530  2.8031  2.9774 -2.0170
  140OSM    C8F15349   2.213   2.489   7.513 -0.1152  0.1263  0.1924
  140OSM    H8F15350   2.295   2.564   7.504  1.5839 -1.8393 -1.2614
  140OSM    H8G15351   2.238   2.408   7.441 -1.0538  1.5534 -1.7828
  140OSM    C9F15352   2.209   2.433   7.650 -0.4524 -0.0530 -0.6016
  140OSM    H9F15353   2.220   2.324   7.649  1.9949  0.1606 -2.4924
  140OSM   C10F15354   2.192   2.493   7.769 -0.2470  0.3995  1.2274
  140OSM   H10F15355   2.199   2.432   7.860  1.1083 -0.6710  0.4055
  140OSM   C11F15356   2.161   2.639   7.803 -0.1012 -0.1206  0.5692
  140OSM   H11F15357   2.051   2.650   7.813 -0.0714  1.2833 -0.4322
  140OSM   H11G15358   2.193   2.699   7.715  1.7665 -0.0539  1.2947
  140OSM   C12F15359   2.224   2.689   7.932 -0.3886 -0.2153 -0.1004
  140OSM   H12F15360   2.222   2.800   7.931 -0.8369 -0.2155  0.7465
  140OSM   H12G15361   2.330   2.654   7.927 -0.0852  0.7767 -0.7351
  140OSM   C13F15362   2.157   2.637   8.056 -0.4178 -0.3519  0.0088
  140OSM   H13F15363   2.241   2.649   8.128 -0.4043 -0.0747 -0.0519
  140OSM   H13G15364   2.133   2.530   8.037 -1.8243  0.1522 -1.1530
  140OSM   C14F15365   2.030   2.706   8.100 -0.8031 -0.5124  0.0076
  140OSM   H14F15366   1.993   2.657   8.192 -0.5175  1.3276  1.1315
  140OSM   H14G15367   1.963   2.701   8.012 -0.5766  0.0556 -0.2004
  140OSM   C15F15368   2.046   2.859   8.129  0.2574 -0.2628  0.1741
  140OSM   H15F15369   1.943   2.888   8.161  0.0740 -0.3616 -0.3193
  140OSM   H15G15370   2.082   2.913   8.039  2.9692 -2.0825  0.1346
  140OSM   C16F15371   2.132   2.906   8.243 -0.2848  0.1440  0.4443
  140OSM   H16F15372   2.232   2.859   8.234 -0.7879 -1.2714  2.0311
  140OSM   H16G15373   2.110   2.855   8.339  1.3935 -1.6719 -0.1050
  140OSM   C17F15374   2.148   3.057   8.246 -0.0964  0.3994 -0.6179
  140OSM   H17F15375   2.159   3.095   8.143 -0.3749  2.7038  0.1681
  140OSM   H17G15376   2.235   3.088   8.308 -1.0054  2.1590 -0.1543
  140OSM   C18F15377   2.028   3.129   8.301 -0.3200  0.4827  0.2137
  140OSM   H18F15378   1.938   3.112   8.238 -0.4669  2.9988 -0.3035
  140OSM   H18G15379   2.049   3.237   8.318  0.1062  0.2159  1.4328
  140OSM   H18H15380   1.999   3.089   8.400  0.1983 -2.6792 -0.8337
  141OSM      N15381   1.070   4.671   6.354  0.1486 -0.2973 -0.1634
  141OSM    C1515382   1.089   4.523   6.362 -0.0783 -0.2716  0.3567
  141OSM   H15A15383   0.994   4.472   6.362 -0.5323  0.5359 -0.7880
  141OSM   H15B15384   1.140   4.489   6.451 -0.2693 -3.7932 -0.8244
  141OSM   H15C15385   1.147   4.503   6.273 -0.1879 -0.7276  0.3884
  141OSM    C1415386   1.012   4.718   6.483  0.4973  0.2862  0.3107
  141OSM   H14A15387   1.000   4.825   6.486 -1.4674  0.1464 -1.4495
  141OSM   H14B15388   1.080   4.689   6.562  0.8096 -0.4367 -0.2166
  141OSM   H14C15389   0.913   4.683   6.510 -0.1838  1.7858 -0.2258
  141OSM    C1315390   1.209   4.730   6.341  0.2156 -0.3001 -0.6305
  141OSM   H13A15391   1.265   4.690   6.425  0.5888  0.2841 -0.5983
  141OSM   H13B15392   1.196   4.837   6.344 -1.1160 -0.4045 -2.2294
  141OSM   H13C15393   1.263   4.714   6.249  1.2747  1.6807 -0.3699
  141OSM    C1215394   0.969   4.704   6.245  0.0294 -0.4034  0.2543
  141OSM   H12A15395   1.017   4.688   6.150  1.1709  0.0364  0.7398
  141OSM   H12B15396   0.951   4.810   6.255 -0.9311 -0.5766  0.3673
  141OSM    C1115397   0.831   4.639   6.244  0.3150 -0.2496  0.3131
  141OSM   H11A15398   0.771   4.689   6.164 -0.7062  0.0345  1.2399
  141OSM   H11B15399   0.779   4.655   6.341 -0.1020  3.1167 -0.4061
  141OSM      P15400   0.724   4.400   6.266 -0.2446  0.0737  0.0919
  141OSM    O1315401   0.592   4.459   6.232 -0.0345  0.1283 -0.1745
  141OSM    O1415402   0.757   4.275   6.198  0.3299 -0.5933 -0.7091
  141OSM    O1115403   0.724   4.373   6.420  0.6771 -0.1971  0.1910
  141OSM    O1215404   0.843   4.503   6.230 -0.2886  0.3096 -0.4481
  141OSM    C1S15405   0.803   4.430   6.525  0.8418 -0.7345  0.3211
  141OSM    H1S15406   0.858   4.520   6.489 -0.0238 -0.1774  0.3894
  141OSM    H1T15407   0.885   4.358   6.545 -0.8368 -2.6168  0.6380
  141OSM     NF15408   0.840   4.475   6.759 -0.8994 -0.4040  0.3273
  141OSM    HNF15409   0.888   4.401   6.806  2.0188 -0.6321 -2.8264
  141OSM    C2S15410   0.733   4.442   6.662  0.0759 -0.3755 -1.0030
  141OSM    H2S15411   0.660   4.525   6.659  3.2246  2.4887 -1.1988
  141OSM    C3S15412   0.651   4.313   6.706  0.2412 -0.5649 -1.1990
  141OSM    H3S15413   0.727   4.238   6.738  0.2863 -0.4778 -1.1040
  141OSM     O315414   0.574   4.251   6.599  0.3647 -0.4400 -0.2009
  141OSM    HO315415   0.619   4.276   6.518  0.0780  0.2256 -0.1591
  141OSM    C4S15416   0.566   4.334   6.829  0.5356  0.1840 -0.1491
  141OSM    H4S15417   0.618   4.299   6.919  2.1162 -0.7778 -1.3929
  141OSM    C5S15418   0.439   4.381   6.840  1.1347  0.4895 -0.3856
  141OSM    H5S15419   0.389   4.426   6.752  0.1137  1.4793  0.6860
  141OSM    C6S15420   0.356   4.390   6.972  0.6796  0.0276 -0.1935
  141OSM    H6S15421   0.258   4.341   6.958  2.0624 -2.9593  0.2192
  141OSM    H6T15422   0.337   4.498   6.987  0.2803 -0.1896  0.9275
  141OSM    C7S15423   0.417   4.330   7.100  0.4194  0.3308  0.0543
  141OSM    H7S15424   0.521   4.368   7.113  0.5717  0.8853 -2.5353
  141OSM    H7T15425   0.419   4.220   7.090 -0.4118 -0.0368  3.4688
  141OSM    C8S15426   0.340   4.368   7.233 -0.3553  0.1158  0.4309
  141OSM    H8S15427   0.230   4.366   7.221 -0.3268  2.2291 -0.5643
  141OSM    H8T15428   0.370   4.474   7.253 -0.6749  0.5853 -1.5098
  141OSM    C9S15429   0.376   4.273   7.353  0.4663 -0.1050 -0.5974
  141OSM    H9S15430   0.487   4.261   7.356  0.7846  2.8125  0.8389
  141OSM    H9T15431   0.342   4.172   7.321  0.2836  0.1510 -1.2157
  141OSM   C10S15432   0.313   4.311   7.490 -0.3914  0.4119  0.3472
  141OSM   H10S15433   0.205   4.298   7.473 -0.3480  1.2817 -0.6323
  141OSM   H10T15434   0.331   4.420   7.504  1.3723  0.0955  0.7313
  141OSM   C11S15435   0.365   4.233   7.610 -0.2371 -0.3023  0.0601
  141OSM   H11S15436   0.470   4.259   7.636 -0.4166 -1.7020  2.3700
  141OSM   H11T15437   0.362   4.123   7.594  0.8607 -0.1967 -0.8807
  141OSM   C12S15438   0.291   4.266   7.740 -0.1080 -0.5443 -0.2002
  141OSM   H12S15439   0.184   4.276   7.710 -0.4331  0.8799  1.3540
  141OSM   H12T15440   0.333   4.366   7.763 -3.2035  0.6271  0.5598
  141OSM   C13S15441   0.306   4.150   7.843 -1.3729  0.0483  0.4833
  141OSM   H13S15442   0.413   4.144   7.873 -1.1374 -0.5535 -0.4723
  141OSM   H13T15443   0.287   4.051   7.797 -0.7557 -0.7104  1.8091
  141OSM   C14S15444   0.216   4.155   7.968 -0.6867  0.3573  0.1863
  141OSM   H14S15445   0.111   4.162   7.932 -0.8172  0.5333  0.6003
  141OSM   H14T15446   0.229   4.251   8.023 -0.8213  0.2875  0.3406
  141OSM   C15S15447   0.229   4.040   8.064  0.3847  0.4338 -0.0313
  141OSM   H15S15448   0.333   4.004   8.046 -0.0051  0.1846 -1.8847
  141OSM   H15T15449   0.168   3.953   8.031  0.6833 -0.2444  1.1685
  141OSM   C16S15450   0.195   4.078   8.214 -0.9825  0.2596  0.0143
  141OSM   H16S15451   0.245   4.175   8.231  1.9173 -0.8408 -1.9177
  141OSM   H16T15452   0.222   3.998   8.286 -0.0396  0.3854 -0.2032
  141OSM   C17S15453   0.039   4.096   8.218 -0.2490 -0.1046 -0.0831
  141OSM   H17S15454  -0.011   4.006   8.177 -1.8813  0.6589  0.1578
  141OSM   H17T15455   0.010   4.181   8.152  0.1033  2.9206  3.4537
  141OSM   C18S15456  -0.023   4.110   8.359  0.4843  0.5236 -0.2053
  141OSM   H18S15457  -0.130   4.082   8.355  0.5700  0.3934 -2.1721
  141OSM   H18T15458  -0.010   4.211   8.404 -0.4026 -0.1506  1.6009
  141OSM   H18U15459   0.029   4.039   8.427 -0.4392 -0.3363 -0.3934
  141OSM    C1F15460   0.884   4.598   6.760  0.1505 -0.5392  0.0267
  141OSM     OF15461   0.831   4.686   6.698  0.2643 -0.6255 -0.4097
  141OSM    C2F15462   1.014   4.622   6.835  0.7308  0.1705 -1.1456
  141OSM    H2F15463   1.096   4.622   6.760  0.9623 -2.5829 -0.9636
  141OSM    H2G15464   1.043   4.529   6.888  2.7754  1.7513  0.5483
  141OSM    C3F15465   1.017   4.752   6.917 -0.0687 -0.4745  0.3216
  141OSM    H3F15466   1.018   4.836   6.844 -1.8472 -0.1386  0.6670
  141OSM    H3G15467   1.108   4.757   6.981  0.2433  0.0878 -0.1559
  141OSM    C4F15468   0.890   4.782   7.008 -0.1188 -0.3289  0.2996
  141OSM    H4F15469   0.802   4.806   6.944  0.4473 -2.3799 -1.3043
  141OSM    H4G15470   0.923   4.869   7.069  0.7198  0.3990 -1.1611
  141OSM    C5F15471   0.854   4.662   7.091  0.3884 -0.7053 -0.2217
  141OSM    H5F15472   0.950   4.616   7.121  0.0226 -1.1675  0.2603
  141OSM    H5G15473   0.802   4.599   7.016 -0.1748  1.4670 -1.7026
  141OSM    C6F15474   0.772   4.691   7.219  0.0932  0.6673  0.0649
  141OSM    H6F15475   0.678   4.736   7.182 -1.0028 -1.7622 -0.2099
  141OSM    H6G15476   0.813   4.773   7.282  1.6055  1.2490 -1.6338
  141OSM    C7F15477   0.745   4.568   7.309 -0.1433 -0.4552  0.9231
  141OSM    H7F15478   0.840   4.514   7.328 -1.0431 -1.9861  1.2437
  141OSM    H7G15479   0.680   4.503   7.246 -2.2952  1.1627  1.4039
  141OSM    C8F15480   0.666   4.603   7.434  0.2531 -0.2165  0.1389
  141OSM    H8F15481   0.565   4.643   7.413  0.1260  0.8710  2.6455
  141OSM    H8G15482   0.721   4.687   7.481  0.6574 -0.0099 -0.6817
  141OSM    C9F15483   0.663   4.492   7.536  0.2794 -0.6921  0.1966
  141OSM    H9F15484   0.628   4.397   7.491  0.7841 -0.3224 -0.9891
  141OSM   C10F15485   0.694   4.493   7.666 -0.3901 -0.1403  0.0728
  141OSM   H10F15486   0.673   4.403   7.726 -1.0579  1.6593  2.5841
  141OSM   C11F15487   0.748   4.609   7.752 -0.0900 -0.0823  0.4382
  141OSM   H11F15488   0.711   4.701   7.703 -0.1634  0.4512  1.4845
  141OSM   H11G15489   0.857   4.614   7.769  0.1142  0.8372 -1.0250
  141OSM   C12F15490   0.679   4.613   7.890  0.2224  0.6200 -0.3863
  141OSM   H12F15491   0.569   4.602   7.880  0.1485 -0.8727  1.6753
  141OSM   H12G15492   0.718   4.710   7.927  0.8238  0.2037  0.0951
  141OSM   C13F15493   0.723   4.501   7.979 -0.0794 -0.1135  0.2837
  141OSM   H13F15494   0.830   4.481   7.957  0.7088  3.2783  0.7605
  141OSM   H13G15495   0.667   4.411   7.946  0.0522 -0.9336  2.2072
  141OSM   C14F15496   0.700   4.527   8.128 -0.5517 -0.6263 -0.6818
  141OSM   H14F15497   0.772   4.597   8.176 -0.2661 -0.7204 -0.9678
  141OSM   H14G15498   0.724   4.426   8.168 -0.0423  0.6138  2.3182
  141OSM   C15F15499   0.558   4.573   8.162  0.4089 -0.0940  0.0929
  141OSM   H15F15500   0.485   4.519   8.098  0.3134 -0.4118  0.4683
  141OSM   H15G15501   0.542   4.682   8.145  2.0407 -0.1984 -2.4792
  141OSM   C16F15502   0.522   4.560   8.313  0.6464  0.0665  0.7909
  141OSM   H16F15503   0.426   4.612   8.331  1.5873  1.5398  1.5963
  141OSM   H16G15504   0.591   4.617   8.379 -1.7640  3.9717  0.1219
  141OSM   C17F15505   0.513   4.423   8.369  0.0175 -0.5079 -0.0415
  141OSM   H17F15506   0.603   4.359   8.365 -0.3784 -1.1064  0.5591
  141OSM   H17G15507   0.439   4.355   8.321 -0.8328 -0.5236  1.2640
  141OSM   C18F15508   0.470   4.428   8.517  0.1304 -0.4104 -0.4214
  141OSM   H18F15509   0.440   4.327   8.555  0.1664  0.7705  2.9064
  141OSM   H18G15510   0.390   4.505   8.521 -0.6919 -1.2693  0.1607
  141OSM   H18H15511   0.560   4.462   8.572  0.4802  1.5316 -2.1461
  142OSM      N15512   0.791   6.040   6.059  0.0924  0.7581  0.1801
  142OSM    C1515513   0.698   6.159   6.090  0.5288  1.0184 -0.1082
  142OSM   H15A15514   0.732   6.254   6.052 -1.3635  1.2222 -1.3466
  142OSM   H15B15515   0.696   6.162   6.198  0.9536 -0.9008 -0.0280
  142OSM   H15C15516   0.596   6.143   6.060  0.2986  0.7154  0.8230
  142OSM    C1415517   0.777   6.008   5.920 -0.5242  0.3050  0.1230
  142OSM   H14A15518   0.670   6.004   5.902 -0.6120  2.4736  0.0008
  142OSM   H14B15519   0.816   5.910   5.896 -0.4695  0.1172  0.9694
  142OSM   H14C15520   0.815   6.085   5.854  1.2590 -1.2070 -0.6262
  142OSM    C1315521   0.933   6.082   6.078  0.3495 -0.2529 -0.4984
  142OSM   H13A15522   0.966   6.091   6.180  0.8749 -0.2170 -0.6724
  142OSM   H13B15523   0.940   6.180   6.034  3.0955 -0.3364 -0.3189
  142OSM   H13C15524   1.001   6.017   6.025 -2.2001 -4.2847  0.8543
  142OSM    C1215525   0.743   5.926   6.144 -0.0106 -0.3866  0.0846
  142OSM   H12A15526   0.791   5.838   6.105  0.7939  0.6666 -1.3553
  142OSM   H12B15527   0.635   5.922   6.141 -0.3443  2.6362  3.6858
  142OSM    C1115528   0.794   5.926   6.289 -0.9691 -0.1299 -0.6114
  142OSM   H11A15529   0.905   5.927   6.296 -1.0218  2.3722  0.2619
  142OSM   H11B15530   0.759   5.830   6.333  1.4109 -1.7569 -2.1497
  142OSM      P15531   0.593   6.014   6.423  0.1696 -0.1466  0.0043
  142OSM    O1315532   0.528   6.146   6.407 -0.6227  0.3855 -0.6745
  142OSM    O1415533   0.536   5.894   6.363 -0.0585  0.0865  0.4768
  142OSM    O1115534   0.614   5.987   6.579 -0.3728 -0.1227  0.1116
  142OSM    O1215535   0.743   6.033   6.369  0.7441  0.5953 -0.3159
  142OSM    C1S15536   0.696   6.072   6.658  1.5096  0.3234  0.1432
  142OSM    H1S15537   0.687   6.179   6.632 -0.4683 -0.0864 -0.9614
  142OSM    H1T15538   0.797   6.060   6.612  1.0644 -0.6741 -0.6004
  142OSM     NF15539   0.758   6.170   6.881  0.0712 -0.2563  0.0576
  142OSM    HNF15540   0.846   6.145   6.920  1.8221  0.3253 -3.2845
  142OSM    C2S15541   0.684   6.066   6.814  0.0465 -1.1128 -0.3224
  142OSM    H2S15542   0.578   6.089   6.836  0.1444 -0.4824 -0.5109
  142OSM    C3S15543   0.725   5.925   6.871 -0.1750  0.3707 -0.7267
  142OSM    H3S15544   0.836   5.926   6.868 -0.2055 -0.1652 -2.5199
  142OSM     O315545   0.669   5.817   6.788  0.8515 -0.7892  0.5302
  142OSM    HO315546   0.660   5.854   6.700  0.1946 -3.1035 -0.4167
  142OSM    C4S15547   0.682   5.909   7.015 -0.4060  0.4984  0.0355
  142OSM    H4S15548   0.737   5.978   7.081  2.2313  0.1222 -1.6940
  142OSM    C5S15549   0.578   5.837   7.057 -0.3194 -0.2013 -0.4424
  142OSM    H5S15550   0.504   5.798   6.986  0.4682 -0.6964 -0.9840
  142OSM    C6S15551   0.537   5.818   7.201  0.1000 -0.1710 -0.8327
  142OSM    H6S15552   0.575   5.724   7.247  0.4588  0.0394 -0.7096
  142OSM    H6T15553   0.426   5.810   7.207  0.0416  0.9446 -0.4360
  142OSM    C7S15554   0.566   5.932   7.302  0.0572  1.0841 -0.2600
  142OSM    H7S15555   0.510   6.018   7.258  0.6435  1.9222  0.6316
  142OSM    H7T15556   0.670   5.968   7.311  1.5604 -2.8987 -0.7064
  142OSM    C8S15557   0.518   5.909   7.451  0.3008 -0.2717  1.1164
  142OSM    H8S15558   0.582   5.827   7.490  0.6238 -1.2727 -1.4269
  142OSM    H8T15559   0.413   5.874   7.459  0.6173 -1.6190 -0.4438
  142OSM    C9S15560   0.543   6.029   7.543 -0.2224 -0.4157 -0.3060
  142OSM    H9S15561   0.470   6.100   7.498 -1.9959 -0.8116  1.8595
  142OSM    H9T15562   0.646   6.066   7.524 -0.4152  0.5258  0.4364
  142OSM   C10S15563   0.505   5.998   7.685  0.3244  0.0876 -0.7681
  142OSM   H10S15564   0.549   5.898   7.705  0.9408  0.2525 -1.2564
  142OSM   H10T15565   0.396   5.980   7.693  0.1885  0.9098 -0.7572
  142OSM   C11S15566   0.554   6.099   7.788  0.3660  0.1018 -0.3812
  142OSM   H11S15567   0.521   6.202   7.763  0.2567  0.2504  0.3524
  142OSM   H11T15568   0.665   6.097   7.789  0.4417  0.9831 -3.5400
  142OSM   C12S15569   0.496   6.073   7.930  0.5664  0.6438  0.0602
  142OSM   H12S15570   0.549   5.983   7.969  0.0476  0.4865  0.4079
  142OSM   H12T15571   0.386   6.063   7.935  0.5185  2.1998  2.9535
  142OSM   C13S15572   0.533   6.182   8.031  0.4824 -0.0446 -0.4177
  142OSM   H13S15573   0.644   6.183   8.036  0.4995  1.3299 -0.7942
  142OSM   H13T15574   0.502   6.145   8.131 -1.2348  0.9498 -0.5670
  142OSM   C14S15575   0.498   6.327   8.005  0.0726 -0.2726 -0.2057
  142OSM   H14S15576   0.390   6.341   7.987 -0.2051 -3.2124 -1.0527
  142OSM   H14T15577   0.553   6.377   7.922  1.3589 -1.7513 -0.2586
  142OSM   C15S15578   0.539   6.416   8.121 -0.6149 -0.1673 -0.1093
  142OSM   H15S15579   0.535   6.520   8.083 -2.7419  0.4339  1.6554
  142OSM   H15T15580   0.644   6.399   8.154 -1.2358  0.6414  2.3390
  142OSM   C16S15581   0.446   6.395   8.246  0.2655 -0.1178 -0.2123
  142OSM   H16S15582   0.460   6.293   8.287 -2.0062 -0.1403  0.5982
  142OSM   H16T15583   0.339   6.400   8.216 -0.1119 -2.5524  0.5926
  142OSM   C17S15584   0.471   6.489   8.357  0.4378  0.3997  0.2938
  142OSM   H17S15585   0.429   6.588   8.329  3.4389  1.7610  0.4132
  142OSM   H17T15586   0.580   6.506   8.366  0.7064 -1.1184  0.0094
  142OSM   C18S15587   0.415   6.446   8.494 -0.1913 -0.1974 -0.6438
  142OSM   H18S15588   0.439   6.511   8.580  0.2124 -0.6892 -0.3823
  142OSM   H18T15589   0.447   6.345   8.529  1.9451  1.4150  2.2113
  142OSM   H18U15590   0.304   6.435   8.494 -0.4056  1.8241  0.3560
  142OSM    C1F15591   0.724   6.298   6.865 -0.0103 -0.0125  0.0829
  142OSM     OF15592   0.632   6.331   6.788 -0.7338  0.1240 -0.7165
  142OSM    C2F15593   0.817   6.386   6.946  0.1070 -0.2627 -0.9454
  142OSM    H2F15594   0.846   6.473   6.882 -0.1479 -0.4346 -1.2998
  142OSM    H2G15595   0.904   6.323   6.973  0.2382 -0.0414 -0.8552
  142OSM    C3F15596   0.741   6.435   7.070 -0.5463  0.6964 -0.0928
  142OSM    H3F15597   0.659   6.381   7.122  2.3619 -3.6629  0.1831
  142OSM    H3G15598   0.706   6.533   7.029  1.1408  1.4752  0.2872
  142OSM    C4F15599   0.844   6.459   7.184 -0.0390  0.2247  0.8805
  142OSM    H4F15600   0.801   6.536   7.251 -0.1932  1.7737 -0.9396
  142OSM    H4G15601   0.923   6.515   7.129 -1.0534 -0.0302 -0.8687
  142OSM    C5F15602   0.886   6.334   7.259 -0.1570 -0.5746 -0.0976
  142OSM    H5F15603   0.928   6.264   7.183 -1.1190 -1.2239 -0.0363
  142OSM    H5G15604   0.804   6.274   7.303  1.6597 -2.0003  1.4339
  142OSM    C6F15605   0.995   6.357   7.367  0.0697  0.5941 -0.2043
  142OSM    H6F15606   1.081   6.404   7.314 -0.1736  0.8371 -0.3828
  142OSM    H6G15607   1.030   6.262   7.412  0.3916  1.5726  1.6501
  142OSM    C7F15608   0.948   6.443   7.484  0.1299 -0.9007 -0.0117
  142OSM    H7F15609   0.892   6.529   7.442  2.9686  1.2326  0.4213
  142OSM    H7G15610   1.038   6.493   7.526 -1.0709  1.2763  0.0357
  142OSM    C8F15611   0.885   6.369   7.605 -0.5096 -0.9007  0.5660
  142OSM    H8F15612   0.955   6.286   7.630  0.4602  0.7710  3.7023
  142OSM    H8G15613   0.791   6.322   7.569 -1.8349  1.5717  0.6572
  142OSM    C9F15614   0.843   6.436   7.733 -0.0701  0.1686  0.6173
  142OSM    H9F15615   0.752   6.497   7.726 -0.6674 -0.6950  0.8686
  142OSM   C10F15616   0.896   6.427   7.855 -0.1773  0.2278  0.0261
  142OSM   H10F15617   0.841   6.472   7.938 -1.2861 -0.5075 -0.3040
  142OSM   C11F15618   1.024   6.358   7.892 -1.1337 -0.1231  0.7520
  142OSM   H11F15619   1.098   6.435   7.919  0.6736 -0.9854 -1.5989
  142OSM   H11G15620   1.061   6.299   7.806  1.5543  0.2228  1.6226
  142OSM   C12F15621   1.001   6.252   8.002 -0.1590 -0.0704  0.7697
  142OSM   H12F15622   1.098   6.203   8.023 -0.3259  0.1647  2.1638
  142OSM   H12G15623   0.921   6.180   7.977  1.4689 -1.0456 -1.7920
  142OSM   C13F15624   0.959   6.329   8.133 -0.3881  0.3632  0.0657
  142OSM   H13F15625   0.853   6.363   8.131 -0.3878  0.3220 -1.2035
  142OSM   H13G15626   1.025   6.412   8.167  1.1502 -1.0985  0.7307
  142OSM   C14F15627   0.959   6.228   8.247 -0.3265  0.8398 -0.2799
  142OSM   H14F15628   1.062   6.190   8.266 -0.5110 -0.3275 -1.5916
  142OSM   H14G15629   0.899   6.138   8.221  0.2838  0.0419  1.0449
  142OSM   C15F15630   0.894   6.278   8.385 -0.4279  0.2973 -0.5406
  142OSM   H15F15631   0.891   6.199   8.462 -1.4289  3.2869  2.6171
  142OSM   H15G15632   0.788   6.300   8.357  0.1789  1.2909 -2.1566
  142OSM   C16F15633   0.965   6.403   8.440 -0.0170  0.3373  0.3442
  142OSM   H16F15634   0.903   6.455   8.516  1.1636 -0.4655  1.8935
  142OSM   H16G15635   0.983   6.479   8.362 -1.1597 -0.4165 -0.6758
  142OSM   C17F15636   1.100   6.371   8.501 -0.8006 -0.1401  0.3879
  142OSM   H17F15637   1.146   6.470   8.523  0.9583 -1.1320  1.3080
  142OSM   H17G15638   1.172   6.320   8.433  0.1967  1.2085  0.4027
  142OSM   C18F15639   1.085   6.290   8.632  0.3035 -0.3265  0.0595
  142OSM   H18F15640   1.174   6.301   8.698 -0.0553 -0.2594  0.5379
  142OSM   H18G15641   1.072   6.182   8.608  0.8276 -0.3719 -0.0194
  142OSM   H18H15642   1.001   6.325   8.696  1.2132 -0.4756  1.3614
  143OSM      N15643   2.052   2.265   6.407  0.0506 -0.3137  0.1874
  143OSM    C1515644   2.183   2.247   6.477  0.2268  0.2787 -0.7442
  143OSM   H15A15645   2.178   2.172   6.554 -1.2536  1.4154  0.3043
  143OSM   H15B15646   2.214   2.337   6.527 -2.6123 -0.0643  1.7566
  143OSM   H15C15647   2.250   2.216   6.398  0.1567  1.0406 -1.1083
  143OSM    C1415648   1.950   2.316   6.498  0.0935 -0.6566 -1.0951
  143OSM   H14A15649   1.923   2.252   6.581 -0.1415  1.3912  0.4417
  143OSM   H14B15650   1.857   2.342   6.451 -0.6210 -1.9332 -0.4072
  143OSM   H14C15651   1.989   2.409   6.536 -0.9623 -1.1448  1.2882
  143OSM    C1315652   2.068   2.348   6.288  0.2465 -0.2547  0.1285
  143OSM   H13A15653   2.133   2.300   6.216 -0.1521  1.4022 -1.3716
  143OSM   H13B15654   2.106   2.446   6.312 -2.3019  0.6201  0.7242
  143OSM   H13C15655   1.972   2.358   6.240  0.6230 -0.4133 -0.6712
  143OSM    C1215656   1.999   2.128   6.360  0.6087  0.7494  0.8656
  143OSM   H12A15657   2.065   2.091   6.284  0.4250  1.1704  0.5009
  143OSM   H12B15658   1.897   2.136   6.325 -0.0124 -0.0389  2.3985
  143OSM    C1115659   1.990   2.008   6.463  0.2566 -0.3282 -0.3465
  143OSM   H11A15660   1.933   1.926   6.414 -1.3061  0.9848 -0.7585
  143OSM   H11B15661   1.928   2.036   6.551  0.1197  0.2963 -0.6401
  143OSM      P15662   2.215   1.887   6.420  0.1417  0.3391  0.0730
  143OSM    O1315663   2.194   1.930   6.279 -0.4306 -0.1527  0.4650
  143OSM    O1415664   2.351   1.887   6.476 -0.4360 -0.0714  0.3208
  143OSM    O1115665   2.157   1.735   6.428  0.6036  0.1558 -0.5175
  143OSM    O1215666   2.118   1.972   6.510  0.0047  0.0135 -0.8382
  143OSM    C1S15667   2.163   1.672   6.558  0.7090 -0.4760 -0.6161
  143OSM    H1S15668   2.127   1.739   6.639  2.2937  1.0471 -1.1515
  143OSM    H1T15669   2.267   1.638   6.576  0.4747 -1.9862 -1.9773
  143OSM     NF15670   2.056   1.511   6.708 -0.0031  0.5595  0.3550
  143OSM    HNF15671   2.128   1.455   6.749 -1.7288 -0.6408  1.8566
  143OSM    C2S15672   2.066   1.548   6.572 -0.7962  0.2560  0.3665
  143OSM    H2S15673   1.964   1.564   6.531  0.3338 -0.7183 -2.9989
  143OSM    C3S15674   2.123   1.435   6.478  0.2234  0.4750  0.2022
  143OSM    H3S15675   2.232   1.424   6.499  0.1002  1.4181  1.4538
  143OSM     O315676   2.116   1.469   6.338 -0.0710  0.2922 -0.1326
  143OSM    HO315677   2.100   1.564   6.340  1.2500  0.5107  0.5725
  143OSM    C4S15678   2.043   1.306   6.499 -0.3634  0.5882  0.5335
  143OSM    H4S15679   1.940   1.308   6.462 -0.3191  1.2755  0.4405
  143OSM    C5S15680   2.087   1.199   6.568  0.0097 -0.1169  0.3572
  143OSM    H5S15681   2.194   1.211   6.592  0.7481 -0.7908 -2.3955
  143OSM    C6S15682   2.023   1.070   6.605  0.1734 -0.6448 -0.4664
  143OSM    H6S15683   2.072   1.001   6.533  3.4040  1.3216 -0.2839
  143OSM    H6T15684   1.917   1.065   6.575  0.7056 -2.0969 -2.2079
  143OSM    C7S15685   2.042   1.017   6.751 -0.5528 -0.0084 -0.0662
  143OSM    H7S15686   2.151   0.998   6.763 -0.4857  1.0583  1.2665
  143OSM    H7T15687   1.994   0.917   6.756  2.3765 -1.5611 -1.3742
  143OSM    C8S15688   2.003   1.106   6.873 -0.1906  0.2449 -0.4993
  143OSM    H8S15689   1.895   1.130   6.862 -0.4834 -1.3438 -1.2914
  143OSM    H8T15690   2.040   1.211   6.863 -1.8764  0.7145 -2.0232
  143OSM    C9S15691   2.041   1.043   7.008  0.4266 -0.8198 -0.0681
  143OSM    H9S15692   2.152   1.042   7.020  0.3736  2.0839  1.0692
  143OSM    H9T15693   2.004   0.939   7.024 -0.4640 -0.7145 -1.3998
  143OSM   C10S15694   1.999   1.135   7.125 -0.4320  0.5102  0.0610
  143OSM   H10S15695   1.897   1.102   7.155  0.0335  1.5209  2.8898
  143OSM   H10T15696   1.991   1.243   7.101 -0.6614  0.7855  1.3352
  143OSM   C11S15697   2.087   1.115   7.245  0.6555 -0.6890 -0.8213
  143OSM   H11S15698   2.189   1.154   7.224  0.6747  1.0971  2.2546
  143OSM   H11T15699   2.085   1.007   7.274  0.6517 -0.0058  1.9026
  143OSM   C12S15700   2.021   1.173   7.376  0.8085 -0.8731  0.2630
  143OSM   H12S15701   1.918   1.131   7.376  1.6472 -3.0198  0.5370
  143OSM   H12T15702   2.013   1.283   7.365  1.5668 -0.8602 -0.2033
  143OSM   C13S15703   2.093   1.126   7.505  0.0041  0.4984  0.5093
  143OSM   H13S15704   2.202   1.134   7.484 -0.0179 -1.6426 -0.5273
  143OSM   H13T15705   2.067   1.021   7.529  0.1902 -0.5092 -3.2798
  143OSM   C14S15706   2.036   1.215   7.617 -0.4790  0.2026 -0.3584
  143OSM   H14S15707   1.925   1.213   7.605 -0.7033  1.6864  1.2388
  143OSM   H14T15708   2.081   1.317   7.614 -0.2957  0.0892 -1.6480
  143OSM   C15S15709   2.063   1.168   7.756 -0.0646  0.0828 -1.0735
  143OSM   H15S15710   2.023   1.066   7.772  2.1879 -1.0535 -2.4105
  143OSM   H15T15711   2.003   1.244   7.811  0.3560 -0.4943  0.2054
  143OSM   C16S15712   2.208   1.185   7.792  0.5006  0.3515 -0.0423
  143OSM   H16S15713   2.234   1.290   7.768 -2.8124  1.2382  0.0202
  143OSM   H16T15714   2.271   1.126   7.722  0.9754  1.1587 -0.3003
  143OSM   C17S15715   2.250   1.173   7.935  0.5868 -0.9508 -0.0600
  143OSM   H17S15716   2.210   1.251   8.003 -0.5927 -1.9437  0.3958
  143OSM   H17T15717   2.360   1.186   7.928  0.6303 -2.0968 -1.9512
  143OSM   C18S15718   2.212   1.038   7.997  0.5349  0.3667  0.3455
  143OSM   H18S15719   2.244   1.040   8.104  1.7189 -0.4969  0.0269
  143OSM   H18T15720   2.271   0.959   7.947 -1.2670 -2.0369  1.9090
  143OSM   H18U15721   2.102   1.024   7.995  0.4651  0.9416 -0.1028
  143OSM    C1F15722   1.962   1.558   6.789  0.6618 -0.2388  0.4884
  143OSM     OF15723   1.886   1.646   6.749 -0.3090  0.1573  0.2359
  143OSM    C2F15724   1.958   1.499   6.929 -0.6499  0.5841 -0.0145
  143OSM    H2F15725   2.042   1.427   6.934 -1.2378 -0.0076  1.8793
  143OSM    H2G15726   1.872   1.429   6.938  0.2296 -0.2394  2.3324
  143OSM    C3F15727   1.963   1.603   7.039  0.6319  0.5167  0.1194
  143OSM    H3F15728   1.884   1.679   7.020 -0.5970 -1.3752 -2.4857
  143OSM    H3G15729   2.053   1.668   7.031  0.6075  0.3189 -1.8686
  143OSM    C4F15730   1.952   1.554   7.190  0.0969 -0.2074 -0.1673
  143OSM    H4F15731   2.044   1.495   7.205  0.1091 -0.0978  0.1927
  143OSM    H4G15732   1.858   1.493   7.196 -0.3366  0.3014 -1.6658
  143OSM    C5F15733   1.945   1.660   7.297  0.2060 -0.2635 -0.6229
  143OSM    H5F15734   1.855   1.724   7.285 -0.2435 -0.6161  0.7962
  143OSM    H5G15735   2.034   1.726   7.288  1.2393 -1.6153 -0.4371
  143OSM    C6F15736   1.933   1.606   7.440 -0.0924  0.3736  0.2939
  143OSM    H6F15737   2.035   1.569   7.465 -0.5294 -0.3015  1.1159
  143OSM    H6G15738   1.861   1.522   7.432  1.2404 -0.9281  1.5755
  143OSM    C7F15739   1.919   1.718   7.548 -0.0821  0.1328 -0.0241
  143OSM    H7F15740   1.823   1.773   7.544  1.1058  2.2993  0.4719
  143OSM    H7G15741   2.002   1.792   7.540  1.8344 -2.1116 -1.5458
  143OSM    C8F15742   1.922   1.664   7.693  0.5027  0.2866  0.1753
  143OSM    H8F15743   1.853   1.577   7.695 -0.9894  1.4832  1.8256
  143OSM    H8G15744   1.884   1.738   7.766  1.3480  1.1969 -0.2777
  143OSM    C9F15745   2.066   1.621   7.732  0.1721 -0.1542  0.0303
  143OSM    H9F15746   2.144   1.639   7.657 -0.4302 -1.0601 -0.8198
  143OSM   C10F15747   2.105   1.577   7.852  0.0831  0.3071 -0.0319
  143OSM   H10F15748   2.206   1.533   7.852 -0.8821 -2.0796 -2.6951
  143OSM   C11F15749   2.021   1.555   7.969  0.4067 -0.5094 -0.6108
  143OSM   H11F15750   2.023   1.450   8.004  3.1160 -1.0169 -2.1883
  143OSM   H11G15751   1.913   1.572   7.946  0.0387  0.1204  1.4145
  143OSM   C12F15752   2.062   1.640   8.088  0.5341  0.3509  0.4944
  143OSM   H12F15753   1.990   1.639   8.172  0.3186  1.9675  0.3550
  143OSM   H12G15754   2.067   1.745   8.052  0.3449 -0.5124 -2.1521
  143OSM   C13F15755   2.188   1.602   8.156 -0.2769  0.2910 -0.0056
  143OSM   H13F15756   2.267   1.628   8.082 -1.2645  0.2931 -1.0624
  143OSM   H13G15757   2.202   1.492   8.158  1.5283  0.4966 -0.1333
  143OSM   C14F15758   2.196   1.664   8.296 -0.2456  0.2721 -0.3821
  143OSM   H14F15759   2.105   1.639   8.355  1.4343 -0.6299  1.8469
  143OSM   H14G15760   2.193   1.775   8.283 -0.3368  0.4476  1.0452
  143OSM   C15F15761   2.321   1.625   8.373  0.1590  0.6615  0.9562
  143OSM   H15F15762   2.412   1.609   8.312 -0.6662  1.7108 -0.5670
  143OSM   H15G15763   2.288   1.532   8.424  1.0212 -0.3647 -0.3422
  143OSM   C16F15764   2.358   1.713   8.487 -0.3485 -0.6351  0.6030
  143OSM   H16F15765   2.265   1.732   8.546 -1.4640  0.7501 -1.5175
  143OSM   H16G15766   2.401   1.804   8.440 -0.6975  0.0621  1.6226
  143OSM   C17F15767   2.466   1.652   8.572 -0.4341 -0.2813 -0.7146
  143OSM   H17F15768   2.549   1.628   8.503 -1.2184 -2.1910 -1.0190
  143OSM   H17G15769   2.436   1.555   8.618 -3.1262  0.1465 -1.4783
  143OSM   C18F15770   2.513   1.742   8.682 -0.0981 -0.1144  0.2172
  143OSM   H18F15771   2.425   1.772   8.743  1.1135 -0.5830  2.2649
  143OSM   H18G15772   2.568   1.833   8.651  0.8908 -0.0057  2.1952
  143OSM   H18H15773   2.581   1.687   8.751 -3.2268 -2.1977  1.7556
  144OSM      N15774   0.732   1.535   6.412  0.3766 -0.3711 -0.7367
  144OSM    C1515775   0.586   1.531   6.447 -0.5778 -0.1288 -0.8662
  144OSM   H15A15776   0.562   1.599   6.527 -3.8772 -2.4458  0.1981
  144OSM   H15B15777   0.556   1.429   6.461  0.8962 -0.7076 -1.8257
  144OSM   H15C15778   0.530   1.566   6.361  0.6914  0.0776 -1.6158
  144OSM    C1415779   0.760   1.683   6.397  0.1523 -0.3704  0.7286
  144OSM   H14A15780   0.731   1.744   6.482  1.3083 -0.1203  0.9442
  144OSM   H14B15781   0.689   1.722   6.325  0.3148  1.0268  1.3060
  144OSM   H14C15782   0.860   1.706   6.366 -0.2201  0.4985  0.1392
  144OSM    C1315783   0.810   1.485   6.534 -0.0421  0.6667  0.2447
  144OSM   H13A15784   0.785   1.545   6.621 -1.3609  0.3118  0.1093
  144OSM   H13B15785   0.915   1.499   6.510  0.8032 -0.4741  3.1097
  144OSM   H13C15786   0.800   1.380   6.556  2.3649  0.0587 -1.3007
  144OSM    C1215787   0.767   1.457   6.292 -0.3621  0.1341 -0.1138
  144OSM   H12A15788   0.708   1.482   6.205 -1.3767  0.3797  0.6316
  144OSM   H12B15789   0.738   1.356   6.319 -0.8439 -0.2625 -2.0000
  144OSM    C1115790   0.913   1.457   6.250  0.2543  0.0190  0.2372
  144OSM   H11A15791   0.933   1.563   6.222 -1.3844  0.1414 -0.5551
  144OSM   H11B15792   0.915   1.402   6.154  2.2097  1.0193 -0.3275
  144OSM      P15793   1.021   1.254   6.344  0.4821  0.3382  0.0423
  144OSM    O1315794   0.896   1.197   6.408 -0.0821  0.3182 -0.2442
  144OSM    O1415795   1.056   1.204   6.209 -0.1792  0.0585 -0.5042
  144OSM    O1115796   1.137   1.229   6.448 -0.5031  0.4076 -0.5801
  144OSM    O1215797   1.007   1.411   6.334  0.0155  0.0761 -0.1538
  144OSM    C1S15798   1.169   1.323   6.549  0.3611  0.0014 -0.5855
  144OSM    H1S15799   1.111   1.417   6.555  0.0064 -0.2844  0.6022
  144OSM    H1T15800   1.275   1.357   6.544  1.0527 -1.9690 -0.0461
  144OSM     NF15801   1.185   1.338   6.796  0.0377 -0.8657  0.5153
  144OSM    HNF15802   1.269   1.320   6.847 -0.5508  0.3318  1.9288
  144OSM    C2S15803   1.152   1.254   6.685 -0.1463  0.0659 -0.1705
  144OSM    H2S15804   1.044   1.227   6.696 -0.9853  2.5166 -2.1336
  144OSM    C3S15805   1.234   1.120   6.691  0.2317 -0.0204 -0.6989
  144OSM    H3S15806   1.343   1.139   6.700  0.1127 -0.3224  1.6734
  144OSM     O315807   1.234   1.041   6.573 -0.0567 -0.0492  0.2372
  144OSM    HO315808   1.179   1.100   6.520  0.4986  0.9327  0.7521
  144OSM    C4S15809   1.205   1.033   6.816  0.2601 -0.4011  0.7051
  144OSM    H4S15810   1.243   1.073   6.911  0.1086  1.3117  0.0581
  144OSM    C5S15811   1.139   0.911   6.832  0.9418 -0.5709 -0.0927
  144OSM    H5S15812   1.079   0.869   6.749  1.7853  1.2930 -1.6728
  144OSM    C6S15813   1.136   0.840   6.970  0.4755 -0.2670  0.2147
  144OSM    H6S15814   1.195   0.894   7.047  1.7966  0.1745 -1.0752
  144OSM    H6T15815   1.180   0.739   6.954  1.2125  0.2224 -0.8910
  144OSM    C7S15816   0.995   0.820   7.025  0.9127  0.6082  0.4802
  144OSM    H7S15817   1.006   0.742   7.103 -0.7793  2.4287  2.6202
  144OSM    H7T15818   0.939   0.783   6.936  0.6448 -1.5486  1.5151
  144OSM    C8S15819   0.925   0.940   7.095  0.1670  0.7350 -0.1200
  144OSM    H8S15820   0.817   0.918   7.104  0.0997  1.8526  2.0232
  144OSM    H8T15821   0.923   1.036   7.039  0.1345  1.5321  1.2296
  144OSM    C9S15822   0.975   0.975   7.232  0.5092  0.1041 -0.3906
  144OSM    H9S15823   1.085   0.962   7.240  0.7012  0.1387 -2.7991
  144OSM    H9T15824   0.936   0.898   7.303  1.9857 -1.0610 -0.8273
  144OSM   C10S15825   0.942   1.112   7.285 -0.1701  0.1546  0.1023
  144OSM   H10S15826   0.833   1.132   7.284 -0.6071 -2.0628  0.8063
  144OSM   H10T15827   1.004   1.185   7.228 -0.8767 -0.2473 -1.1744
  144OSM   C11S15828   0.993   1.137   7.433 -0.2343  0.4859  0.2280
  144OSM   H11S15829   1.104   1.130   7.436 -0.3177 -0.9606 -0.1624
  144OSM   H11T15830   0.948   1.055   7.493 -0.9709  1.1147  0.5469
  144OSM   C12S15831   0.939   1.267   7.497  0.2015  0.0341 -0.3172
  144OSM   H12S15832   0.828   1.264   7.502  0.1788  2.0727  0.8577
  144OSM   H12T15833   0.954   1.335   7.410  0.1908 -1.4426 -1.4957
  144OSM   C13S15834   1.008   1.315   7.626 -0.1524 -0.7240  0.1863
  144OSM   H13S15835   0.985   1.423   7.635 -1.5456 -0.8959 -1.1530
  144OSM   H13T15836   1.119   1.309   7.620 -0.1238  1.5442 -2.4776
  144OSM   C14S15837   0.951   1.236   7.742  0.7425 -0.4392 -0.3719
  144OSM   H14S15838   0.994   1.134   7.729  1.2541 -0.2304 -0.3100
  144OSM   H14T15839   0.840   1.225   7.742  0.7292 -0.3207  0.4449
  144OSM   C15S15840   0.986   1.300   7.871  0.5711  0.1848 -1.2281
  144OSM   H15S15841   0.931   1.397   7.874 -3.2775 -1.9563  1.9299
  144OSM   H15T15842   1.096   1.320   7.870  0.1741  2.6048 -1.0599
  144OSM   C16S15843   0.950   1.202   7.986  0.2724 -0.0941 -0.6110
  144OSM   H16S15844   0.981   1.099   7.955  0.4169 -0.0498 -0.6144
  144OSM   H16T15845   0.840   1.190   7.985  0.0246  2.0923 -0.1921
  144OSM   C17S15846   1.007   1.237   8.122 -0.4455 -0.4089 -0.5909
  144OSM   H17S15847   1.116   1.216   8.121 -0.0606  1.2865  2.4721
  144OSM   H17T15848   0.951   1.171   8.192  0.4123  0.1413  0.6228
  144OSM   C18S15849   0.970   1.387   8.152 -0.0596  0.4497 -0.6085
  144OSM   H18S15850   1.045   1.455   8.106  0.8445 -2.8849 -4.2962
  144OSM   H18T15851   0.966   1.405   8.262 -0.5221  2.6529 -0.9606
  144OSM   H18U15852   0.874   1.415   8.102 -1.3778 -0.7873  1.1533
  144OSM    C1F15853   1.114   1.444   6.834 -1.1526  0.4366 -0.0210
  144OSM     OF15854   1.021   1.485   6.774  0.3876 -0.1404  0.2382
  144OSM    C2F15855   1.155   1.499   6.979 -0.4945 -0.1471  0.3673
  144OSM    H2F15856   1.266   1.513   6.978 -0.6618  1.2576 -1.5357
  144OSM    H2G15857   1.131   1.416   7.049 -0.3876 -0.4541  0.0449
  144OSM    C3F15858   1.072   1.622   7.032 -0.1305 -1.1424 -0.2806
  144OSM    H3F15859   0.963   1.599   7.031 -0.6037  0.8004  1.8814
  144OSM    H3G15860   1.089   1.710   6.967 -1.7051 -0.5819  0.0457
  144OSM    C4F15861   1.113   1.670   7.174 -0.1059 -0.2519 -0.1550
  144OSM    H4F15862   1.059   1.766   7.187 -0.9510 -0.5779 -1.1366
  144OSM    H4G15863   1.222   1.685   7.184 -0.0392 -0.3836 -0.6583
  144OSM    C5F15864   1.061   1.570   7.277 -0.2173 -0.2449 -0.3240
  144OSM    H5F15865   1.123   1.478   7.280 -2.2989 -1.6717  0.8356
  144OSM    H5G15866   0.957   1.546   7.247 -0.6940  0.5655  0.6559
  144OSM    C6F15867   1.040   1.635   7.417 -0.3464  0.1198 -0.2258
  144OSM    H6F15868   0.956   1.583   7.469 -0.3026 -0.2715 -0.5439
  144OSM    H6G15869   0.996   1.735   7.400  0.0530  0.2818 -0.3184
  144OSM    C7F15870   1.166   1.656   7.501 -0.2206 -0.8823 -0.2258
  144OSM    H7F15871   1.249   1.677   7.431 -1.2129  1.5623 -0.7005
  144OSM    H7G15872   1.191   1.558   7.547 -0.8800  0.1338  2.4062
  144OSM    C8F15873   1.163   1.760   7.609  0.7877  0.2179 -0.2979
  144OSM    H8F15874   1.127   1.860   7.575 -0.7447 -0.1192  0.2826
  144OSM    H8G15875   1.268   1.769   7.644  1.3475 -0.9167 -1.6423
  144OSM    C9F15876   1.068   1.722   7.722 -0.3238  0.3099 -0.5026
  144OSM    H9F15877   0.960   1.732   7.700 -0.6173 -0.7163  0.4543
  144OSM   C10F15878   1.094   1.674   7.845 -0.4552 -0.0121 -0.3373
  144OSM   H10F15879   1.012   1.656   7.916  1.3240 -1.8646  1.3331
  144OSM   C11F15880   1.237   1.648   7.893 -0.2367  0.2177 -0.1302
  144OSM   H11F15881   1.316   1.690   7.828 -1.0407  0.8782 -0.6942
  144OSM   H11G15882   1.264   1.540   7.888 -1.7744 -0.2245  0.4737
  144OSM   C12F15883   1.262   1.694   8.040  0.5474 -0.7875  0.1195
  144OSM   H12F15884   1.191   1.638   8.104 -0.7509  0.9847  0.2743
  144OSM   H12G15885   1.240   1.802   8.027  0.0086 -0.8945  0.1317
  144OSM   C13F15886   1.404   1.667   8.084 -0.5251 -0.7508  0.2003
  144OSM   H13F15887   1.479   1.725   8.026 -1.0950  2.8646  2.8774
  144OSM   H13G15888   1.435   1.562   8.066 -1.0338 -0.4866 -2.4720
  144OSM   C14F15889   1.409   1.699   8.234  0.0831  0.6151  0.0801
  144OSM   H14F15890   1.326   1.648   8.287  0.9796 -0.4573  0.4689
  144OSM   H14G15891   1.387   1.808   8.237 -0.5345  0.5736 -2.2556
  144OSM   C15F15892   1.542   1.659   8.300 -0.5930  0.8459  0.1873
  144OSM   H15F15893   1.553   1.548   8.293  4.1215  1.1796  0.2924
  144OSM   H15G15894   1.547   1.675   8.410  0.9982 -0.3302  0.3173
  144OSM   C16F15895   1.662   1.716   8.234 -0.2494 -0.3144  0.4169
  144OSM   H16F15896   1.662   1.684   8.127 -2.0499  1.3673 -0.1335
  144OSM   H16G15897   1.753   1.672   8.279  0.5810  1.4891  0.5361
  144OSM   C17F15898   1.687   1.868   8.264 -0.5707  0.1010 -0.0485
  144OSM   H17F15899   1.681   1.876   8.374 -2.5707  1.4621 -0.2265
  144OSM   H17G15900   1.613   1.936   8.215 -0.8802 -1.3413 -1.6189
  144OSM   C18F15901   1.823   1.918   8.211 -0.4847  0.7551  0.1210
  144OSM   H18F15902   1.842   1.916   8.101  1.2711 -0.6584  0.4235
  144OSM   H18G15903   1.895   1.854   8.266  1.2529  1.8405 -0.8128
  144OSM   H18H15904   1.826   2.025   8.240  0.5467  0.9714 -0.7459
  145SAPE     N15905   0.354   3.351  10.832 -0.3121  0.1469  0.4236
  145SAPE   HN115906   0.337   3.353  10.730 -2.6884 -0.7871  0.7673
  145SAPE   HN215907   0.425   3.426  10.841  1.3694 -1.5030  1.2716
  145SAPE   HN315908   0.412   3.268  10.854  2.9220  2.0467 -0.6206
  145SAPE   C1215909   0.225   3.382  10.903  0.1267  0.0011 -0.1129
  145SAPE  H12A15910   0.249   3.418  11.006 -0.6497  0.0187  0.0587
  145SAPE  H12B15911   0.175   3.285  10.922 -1.2418  1.1082  2.2080
  145SAPE   C1115912   0.133   3.466  10.823  0.1427 -0.4518  0.1248
  145SAPE  H11A15913   0.177   3.565  10.799 -1.5551  0.1204 -0.6769
  145SAPE  H11B15914   0.039   3.489  10.877  0.0151  0.4123 -0.4496
  145SAPE     P15915  -0.029   3.416  10.627  0.3007  0.1772  0.3952
  145SAPE   O1315916  -0.128   3.330  10.703  0.9473 -0.3790  0.3460
  145SAPE   O1415917  -0.053   3.563  10.610 -0.2472  0.3108 -0.0676
  145SAPE   O1215918   0.113   3.403  10.699  0.3969  0.1417 -0.7959
  145SAPE   O1115919  -0.005   3.353  10.481  0.1739 -0.3131 -0.2580
  145SAPE    C115920   0.021   3.214  10.451  0.6819 -0.2758 -0.4555
  145SAPE    HA15921  -0.051   3.145  10.501 -0.0239 -1.1649 -2.6499
  145SAPE    HB15922  -0.001   3.205  10.343 -3.1851  0.2539  0.1966
  145SAPE    C215923   0.170   3.173  10.463 -0.1876  0.2948 -0.1438
  145SAPE    HS15924   0.194   3.168  10.571  1.9113 -0.8991 -0.6370
  145SAPE   O2115925   0.251   3.263  10.389 -0.2539  0.4594  0.6543
  145SAPE   C2115926   0.363   3.306  10.445 -0.3373  0.3665  0.0194
  145SAPE   O2215927   0.406   3.271  10.554 -0.3595 -0.3022  0.4064
  145SAPE   C2215928   0.425   3.415  10.359  1.0265 -0.0511 -0.4909
  145SAPE   H2R15929   0.345   3.490  10.339  1.8000  0.7633 -0.5570
  145SAPE   H2S15930   0.514   3.458  10.409 -0.2900 -0.0049  1.9154
  145SAPE    C315931   0.204   3.024  10.406 -0.2153  0.3607  0.6396
  145SAPE    HX15932   0.147   2.954  10.471 -0.1239  0.1837  0.5286
  145SAPE    HY15933   0.309   2.997  10.428  0.2625  1.1687 -0.6144
  145SAPE   O3115934   0.167   3.014  10.265  0.4233 -0.2089 -0.3794
  145SAPE   C3115935   0.046   2.985  10.238  0.3669 -0.6981 -0.1414
  145SAPE   O3215936  -0.038   2.945  10.317 -0.5209 -0.2263 -0.1984
  145SAPE   C3215937   0.013   3.014  10.088 -0.3120  0.3978  0.1874
  145SAPE   H2X15938   0.101   2.989  10.026 -0.9913 -1.7575  0.0577
  145SAPE   H2Y15939  -0.007   3.124  10.092  0.8924  0.6087  0.8400
  145SAPE   C2315940   0.490   3.361  10.230 -0.3875  0.1607 -0.1861
  145SAPE   H3R15941   0.562   3.277  10.241  0.0787  0.7248  1.2464
  145SAPE   H3S15942   0.559   3.444  10.204  0.9862 -0.7090  0.6701
  145SAPE   C2415943   0.383   3.335  10.118  0.0756  0.1856  0.7066
  145SAPE   H4R15944   0.306   3.416  10.117 -1.1773 -0.9668 -1.8827
  145SAPE   H4S15945   0.327   3.247  10.156  3.5123 -2.1508  0.5075
  145SAPE   C2515946   0.436   3.333   9.970  0.9452 -0.6413  0.3531
  145SAPE   H5R15947   0.510   3.414   9.961  3.3902 -2.8047  0.3974
  145SAPE   C2615948   0.418   3.256   9.868  0.4001  0.3977 -0.2707
  145SAPE   H6R15949   0.462   3.282   9.771 -0.3980  1.0738 -0.4547
  145SAPE   C2715950   0.331   3.136   9.893 -0.1369 -0.3631  0.4639
  145SAPE   H7R15951   0.224   3.165   9.900 -0.9614 -2.9833 -0.7384
  145SAPE   H7S15952   0.349   3.092   9.994 -0.3227  0.0335  0.6697
  145SAPE   C2815953   0.346   3.026   9.785  0.1308  0.7802  0.2995
  145SAPE   H8R15954   0.442   2.973   9.796  0.3016  1.7252  4.0961
  145SAPE   C2915955   0.261   3.001   9.686 -0.3239  0.1769  0.1540
  145SAPE   H9R15956   0.295   2.922   9.617  2.1632 -0.2082  1.7869
  145SAPE  C21015957   0.133   3.057   9.657  0.5676 -0.2350 -0.4396
  145SAPE  H10R15958   0.136   3.133   9.577  1.3059 -1.2237 -1.3686
  145SAPE  H10S15959   0.093   3.103   9.749  1.7601  0.5890 -0.3322
  145SAPE  C21115960   0.045   2.947   9.615 -0.1048 -0.1129  0.1115
  145SAPE  H11R15961   0.018   2.878   9.696 -2.0532  0.1855 -0.2546
  145SAPE  C21215962  -0.009   2.932   9.494  0.6300 -0.0116  0.1326
  145SAPE  H12R15963  -0.071   2.844   9.470 -0.2740  0.9728 -1.2058
  145SAPE  C21315964   0.006   3.024   9.371  0.1985  0.4433  0.0097
  145SAPE  H13R15965   0.116   3.035   9.357 -0.2352  1.3262 -3.0104
  145SAPE  H13S15966  -0.035   3.124   9.395 -1.4270 -0.3340  0.5479
  145SAPE  C21415967  -0.039   2.957   9.244  0.0505  0.2603 -0.0696
  145SAPE  H14R15968  -0.145   2.930   9.239  0.1317 -0.0227 -0.2822
  145SAPE  C21515969   0.033   2.931   9.128  0.4697 -0.4424  0.0087
  145SAPE  H15R15970  -0.028   2.883   9.049 -0.2384  2.7029 -1.4417
  145SAPE  C21615971   0.177   2.964   9.088 -0.4857  0.3593 -0.1575
  145SAPE  H16R15972   0.226   2.877   9.039 -0.5793 -0.0180  0.4184
  145SAPE  H16S15973   0.229   2.989   9.183 -1.7818  1.9783  0.1475
  145SAPE  C21715974   0.181   3.075   8.988 -0.2119  0.6280  0.1594
  145SAPE  H17R15975   0.117   3.164   9.008 -1.9220  0.0130 -2.2805
  145SAPE  H17S15976   0.140   3.025   8.897  0.3687 -3.3995  1.9962
  145SAPE  C21815977   0.315   3.127   8.951 -0.7020  0.4854  0.1467
  145SAPE  H18R15978   0.391   3.050   8.974 -0.3585  0.5376 -0.8006
  145SAPE  H18S15979   0.350   3.212   9.013 -2.1822 -1.6598  4.1055
  145SAPE  C21915980   0.319   3.148   8.793  0.0008 -0.1226 -0.1381
  145SAPE  H19R15981   0.267   3.063   8.743 -0.6759 -0.3357  0.9055
  145SAPE  H19S15982   0.422   3.145   8.750  0.0741  0.0522  0.0253
  145SAPE  C22015983   0.262   3.282   8.742 -0.0602 -0.6857 -0.2950
  145SAPE  H20R15984   0.266   3.293   8.632 -0.3614  1.0717 -0.1535
  145SAPE  H20S15985   0.312   3.374   8.779  1.5017 -1.3585 -0.7141
  145SAPE  H20T15986   0.159   3.289   8.783  0.5334 -2.6282  1.6365
  145SAPE   C3315987  -0.107   2.928  10.033  0.2700  0.1975 -0.0889
  145SAPE   H3X15988  -0.141   2.962   9.932 -1.2528 -0.7536  0.0760
  145SAPE   H3Y15989  -0.195   2.959  10.094 -1.2123  0.3018 -2.2274
  145SAPE   C3415990  -0.081   2.779  10.045 -0.0600  0.1357  0.3689
  145SAPE   H4X15991  -0.158   2.733  10.110 -2.2360  2.4817 -0.4541
  145SAPE   H4Y15992   0.024   2.752  10.071  0.6944  0.7874 -1.8632
  145SAPE   C3515993  -0.092   2.720   9.899 -0.1639  0.1895 -0.5775
  145SAPE   H5X15994  -0.001   2.756   9.845  1.6918 -2.5892  0.5676
  145SAPE   H5Y15995  -0.191   2.753   9.860  0.5852  0.8248 -1.9964
  145SAPE   C3615996  -0.079   2.568   9.899  0.1390 -0.3118 -0.0069
  145SAPE   H6X15997  -0.150   2.519   9.969  2.8018 -1.6336  1.8484
  145SAPE   H6Y15998   0.022   2.535   9.933  0.1975 -2.1812 -1.8977
  145SAPE   C3715999  -0.083   2.506   9.760  0.7363 -0.0596 -0.4578
  145SAPE   H7X16000   0.006   2.547   9.707  0.4365  2.1212  0.6591
  145SAPE   H7Y16001  -0.174   2.534   9.702 -0.1826 -1.0515  0.4981
  145SAPE   C3816002  -0.065   2.351   9.750  0.3444 -0.1424 -0.4496
  145SAPE   H8X16003  -0.127   2.298   9.825 -1.2383 -0.3491 -1.8719
  145SAPE   H8Y16004   0.040   2.347   9.784  0.4945  2.8109 -0.4551
  145SAPE   C3916005  -0.077   2.282   9.615 -0.0304 -0.0112  0.7222
  145SAPE   H9X16006  -0.041   2.358   9.542  2.0284 -1.5102  0.1154
  145SAPE   H9Y16007  -0.185   2.263   9.598  0.3342 -1.5933  0.0507
  145SAPE  C31016008   0.008   2.163   9.590  0.2474 -0.1491  0.8746
  145SAPE  H10X16009  -0.027   2.073   9.645 -1.4890 -0.4119 -0.5853
  145SAPE  H10Y16010   0.113   2.182   9.620  0.1699 -0.2065  1.1839
  145SAPE  C31116011   0.001   2.114   9.448  0.4597 -0.3241 -0.3907
  145SAPE  H11X16012   0.001   2.198   9.375  2.9190  1.6194  1.7392
  145SAPE  H11Y16013  -0.094   2.058   9.435  0.6910 -0.5385 -1.1966
  145SAPE  C31216014   0.097   2.001   9.406 -0.2236 -0.0352 -0.8029
  145SAPE  H12X16015   0.089   1.929   9.490  0.7530  0.7986  0.0273
  145SAPE  H12Y16016   0.203   2.035   9.405 -0.8318  1.9475 -0.5001
  145SAPE  C31316017   0.068   1.941   9.268  0.5016 -0.2219 -0.4395
  145SAPE  H13X16018  -0.035   1.900   9.262  1.0730 -1.8470  0.7022
  145SAPE  H13Y16019   0.139   1.856   9.252 -1.6947 -1.9029 -1.5275
  145SAPE  C31416020   0.089   2.038   9.154  0.1974 -0.0071  0.0606
  145SAPE  H14X16021   0.189   2.086   9.158 -0.4229  1.4144 -1.2044
  145SAPE  H14Y16022   0.019   2.123   9.165 -1.4979 -1.2961 -0.4868
  145SAPE  C31516023   0.076   1.969   9.023 -0.0295  0.2680 -0.1139
  145SAPE  H15X16024  -0.022   1.920   9.009 -0.7320  1.7309 -0.4157
  145SAPE  H15Y16025   0.142   1.880   9.013  1.6215  1.1227  2.6670
  145SAPE  C31616026   0.092   2.058   8.904  0.3094 -0.2189  0.1743
  145SAPE  H16X16027   0.096   1.988   8.817 -0.7784  0.9490 -0.8301
  145SAPE  H16Y16028   0.188   2.111   8.921  0.6696 -0.9763  0.5385
  145SAPE  C31716029  -0.027   2.149   8.881 -0.1010  0.0244 -0.0938
  145SAPE  H17X16030   0.004   2.228   8.809  1.3258  0.3057  0.8160
  145SAPE  H17Y16031  -0.047   2.207   8.974 -0.7998  0.2633 -0.3916
  145SAPE  C31816032  -0.152   2.071   8.835  0.6767  0.5054  0.5940
  145SAPE  H18X16033  -0.196   1.999   8.907 -0.2765  1.4478  0.9725
  145SAPE  H18Y16034  -0.118   2.016   8.745 -1.6197 -0.2878  0.1795
  145SAPE  H18Z16035  -0.239   2.132   8.803  0.7927  1.5102  2.1433
  146SAPE     N16036   5.291   4.310  10.871  0.0759 -0.1756 -0.0856
  146SAPE   HN116037   5.320   4.313  10.771  1.9392 -1.3002  0.4055
  146SAPE   HN216038   5.202   4.259  10.887  0.0371 -0.5339 -1.3468
  146SAPE   HN316039   5.271   4.410  10.893  0.7891 -0.1536  0.4871
  146SAPE   C1216040   5.402   4.266  10.966 -0.4233  0.7694 -0.4085
  146SAPE  H12A16041   5.379   4.258  11.074 -2.7787 -2.1438 -1.0624
  146SAPE  H12B16042   5.483   4.338  10.941  1.4985 -0.8695  0.9319
  146SAPE   C1116043   5.445   4.118  10.938  0.0185  0.4792 -0.3267
  146SAPE  H11A16044   5.358   4.059  10.971  0.7211 -0.8243 -0.7686
  146SAPE  H11B16045   5.534   4.085  10.996 -0.6285 -3.4037 -1.4118
  146SAPE     P16046   5.384   4.024  10.697 -0.0646  0.0811 -0.1802
  146SAPE   O1316047   5.381   3.879  10.721 -0.6572  0.6887 -0.2803
  146SAPE   O1416048   5.257   4.099  10.700 -0.6024  0.3519 -0.2269
  146SAPE   O1216049   5.476   4.101  10.794  0.3521  0.2858 -0.3446
  146SAPE   O1116050   5.452   4.052  10.553  0.3712  0.1420 -0.4622
  146SAPE    C116051   5.461   4.175  10.490 -0.0722 -0.6533 -0.8113
  146SAPE    HA16052   5.358   4.206  10.464 -0.1055 -0.9213 -1.0015
  146SAPE    HB16053   5.515   4.244  10.557  1.6746 -2.3472 -0.4149
  146SAPE    C216054   5.559   4.176  10.371 -0.5068  0.3778  0.5136
  146SAPE    HS16055   5.582   4.279  10.336  0.3860  0.5053  1.4374
  146SAPE   O2116056   5.511   4.100  10.262  0.2263  0.3185  0.3823
  146SAPE   C2116057   5.407   4.161  10.199 -0.8687 -0.2474  0.5403
  146SAPE   O2216058   5.378   4.277  10.218 -0.3458 -0.1547 -0.2203
  146SAPE   C2216059   5.347   4.055  10.099 -0.3281 -0.0810  0.0293
  146SAPE   H2R16060   5.344   3.968  10.168  0.1567  0.5523  0.8522
  146SAPE   H2S16061   5.244   4.094  10.082 -1.4338 -2.2699  1.3845
  146SAPE    C316062   5.700   4.113  10.405  0.5750  0.6938  0.2825
  146SAPE    HX16063   5.676   4.007  10.423 -0.5058  0.3885 -2.6419
  146SAPE    HY16064   5.727   4.155  10.504 -0.8448  0.3748  0.8190
  146SAPE   O3116065   5.798   4.119  10.300 -0.2556  0.5697  0.2841
  146SAPE   C3116066   5.904   4.035  10.308 -0.5750  0.1168 -0.2551
  146SAPE   O3216067   5.923   3.946  10.386  0.9697 -0.6325  0.2369
  146SAPE   C3216068   6.003   4.078  10.202 -0.4502 -0.0183 -0.0940
  146SAPE   H2X16069   6.104   4.100  10.242  0.3073 -0.9968 -1.4662
  146SAPE   H2Y16070   5.972   4.173  10.154  1.3238  1.0708  0.8847
  146SAPE   C2316071   5.428   4.028   9.966 -0.3245  0.3007 -0.4224
  146SAPE   H3R16072   5.365   3.952   9.916  0.4894 -1.5614  1.3161
  146SAPE   H3S16073   5.525   3.976   9.982 -1.0421 -0.1361  2.8064
  146SAPE   C2416074   5.450   4.151   9.867 -0.2963 -0.1552  0.5193
  146SAPE   H4R16075   5.477   4.239   9.928  0.2756 -0.4291  0.6706
  146SAPE   H4S16076   5.356   4.183   9.817  0.3057  1.0167  0.1431
  146SAPE   C2516077   5.551   4.119   9.764 -0.1013 -0.5674  0.8169
  146SAPE   H5R16078   5.627   4.054   9.810 -1.2569 -0.9448  2.2285
  146SAPE   C2616079   5.558   4.147   9.631  0.1501  0.3993 -0.1452
  146SAPE   H6R16080   5.651   4.129   9.576  1.3696  0.9141  1.7029
  146SAPE   C2716081   5.459   4.237   9.560 -0.1085  0.2716  0.1449
  146SAPE   H7R16082   5.507   4.335   9.540 -0.4141  0.3675 -0.1462
  146SAPE   H7S16083   5.373   4.264   9.625  1.0971  0.0547  1.8506
  146SAPE   C2816084   5.404   4.175   9.432  0.0289 -0.1972  0.0939
  146SAPE   H8R16085   5.312   4.115   9.440 -0.6035  0.7197 -0.1838
  146SAPE   C2916086   5.446   4.194   9.308 -0.2523  0.5064  0.0923
  146SAPE   H9R16087   5.393   4.147   9.224  2.2642  1.2761 -1.9834
  146SAPE  C21016088   5.564   4.279   9.257 -0.2093  0.4838  0.0698
  146SAPE  H10R16089   5.641   4.286   9.337  0.2932  0.5560 -0.4173
  146SAPE  H10S16090   5.528   4.380   9.230  2.1774  1.6912  1.2414
  146SAPE  C21116091   5.639   4.224   9.135 -0.6866 -0.3913  0.0978
  146SAPE  H11R16092   5.714   4.146   9.153  1.7807  1.5121 -1.5419
  146SAPE  C21216093   5.608   4.245   9.005 -0.0742  0.8471  0.1275
  146SAPE  H12R16094   5.684   4.205   8.935 -0.3726  1.8410 -0.7824
  146SAPE  C21316095   5.492   4.331   8.956 -0.3707 -0.4369 -0.2462
  146SAPE  H13R16096   5.453   4.400   9.034  2.0936  0.8009 -0.0493
  146SAPE  H13S16097   5.413   4.264   8.917 -1.8286  0.7288  0.6366
  146SAPE  C21416098   5.547   4.418   8.842  0.3626  0.2584 -0.0175
  146SAPE  H14R16099   5.621   4.491   8.880  1.0126 -0.9696  1.1438
  146SAPE  C21516100   5.532   4.420   8.707  0.8279  0.4451  0.2510
  146SAPE  H15R16101   5.579   4.504   8.653  0.3560  0.6918  0.2166
  146SAPE  C21616102   5.440   4.328   8.627  0.7768  0.4607  0.7681
  146SAPE  H16R16103   5.404   4.237   8.678 -0.0509 -0.1765 -0.9213
  146SAPE  H16S16104   5.499   4.290   8.541  1.1790 -1.0879  1.7195
  146SAPE  C21716105   5.308   4.395   8.581  0.4316 -0.0383 -0.3576
  146SAPE  H17R16106   5.272   4.464   8.661  1.5775 -0.2338  0.3388
  146SAPE  H17S16107   5.231   4.317   8.570  1.1023 -0.5481 -1.4209
  146SAPE  C21816108   5.320   4.461   8.443  0.4241 -0.3237  0.2591
  146SAPE  H18R16109   5.330   4.398   8.353  0.1063  0.7849 -0.5599
  146SAPE  H18S16110   5.404   4.534   8.443 -1.5182  1.9740 -0.2180
  146SAPE  C21916111   5.196   4.545   8.429  0.6851  0.5223 -1.1577
  146SAPE  H19R16112   5.186   4.627   8.504  2.1168  1.3455 -1.8448
  146SAPE  H19S16113   5.112   4.474   8.440  1.0466  0.4124  1.2501
  146SAPE  C22016114   5.190   4.625   8.292 -0.0034  0.0281 -0.7227
  146SAPE  H20R16115   5.252   4.715   8.308 -2.1281  1.6498 -1.4179
  146SAPE  H20S16116   5.089   4.661   8.262  0.7475  2.0288 -0.9186
  146SAPE  H20T16117   5.218   4.559   8.207  1.2288 -0.9690  0.4493
  146SAPE   C3316118   6.009   3.952  10.112 -0.0898  0.6892  0.6958
  146SAPE   H3X16119   5.911   3.945  10.061  0.9414  0.0829 -1.2885
  146SAPE   H3Y16120   6.010   3.861  10.175  1.8681 -0.0623 -0.3497
  146SAPE   C3416121   6.113   3.952  10.000 -0.3418 -0.1308 -0.2029
  146SAPE   H4X16122   6.115   4.053   9.953  0.8267 -0.1215 -0.1506
  146SAPE   H4Y16123   6.083   3.884   9.918 -1.0037 -0.1343  0.0446
  146SAPE   C3516124   6.254   3.912  10.044  0.2442 -0.2987 -0.1129
  146SAPE   H5X16125   6.248   3.806  10.079  0.4459 -0.7424 -1.3796
  146SAPE   H5Y16126   6.271   3.984  10.127  1.5162  1.2000 -1.6605
  146SAPE   C3616127   6.355   3.918   9.930 -0.4396 -0.1268 -0.6352
  146SAPE   H6X16128   6.350   4.018   9.881 -1.0004  0.4762  0.6445
  146SAPE   H6Y16129   6.332   3.855   9.841  2.0701  1.4162 -2.4239
  146SAPE   C3716130   6.490   3.879   9.982  0.2581 -0.3306  0.3289
  146SAPE   H7X16131   6.487   3.768   9.995  2.0707 -0.6628 -1.6709
  146SAPE   H7Y16132   6.507   3.926  10.081 -0.5416  1.2479 -0.2825
  146SAPE   C3816133   6.605   3.906   9.878 -0.4072 -0.1638 -0.1020
  146SAPE   H8X16134   6.703   3.905   9.930 -0.3671  0.4007 -0.1652
  146SAPE   H8Y16135   6.600   4.007   9.833  0.4721 -0.3303 -0.5775
  146SAPE   C3916136   6.617   3.812   9.768 -0.5913 -0.3035 -0.1565
  146SAPE   H9X16137   6.517   3.795   9.722 -1.7572  1.6827  1.5627
  146SAPE   H9Y16138   6.662   3.711   9.780  0.7297  0.3354  0.3517
  146SAPE  C31016139   6.708   3.882   9.656 -0.1433 -0.0366  0.5145
  146SAPE  H10X16140   6.809   3.882   9.701  0.4595  0.3694 -0.8438
  146SAPE  H10Y16141   6.677   3.984   9.626 -0.2175  0.4612  2.2360
  146SAPE  C31116142   6.713   3.804   9.524  0.2063 -0.2885  0.2988
  146SAPE  H11X16143   6.678   3.700   9.541 -1.0769 -0.6120 -3.8022
  146SAPE  H11Y16144   6.813   3.779   9.483  0.5307  0.6071  0.5442
  146SAPE  C31216145   6.625   3.864   9.406  0.1597 -0.3294 -0.3447
  146SAPE  H12X16146   6.524   3.884   9.446 -0.4801 -1.1179 -1.5047
  146SAPE  H12Y16147   6.616   3.786   9.326  3.3470 -2.2626  1.0817
  146SAPE  C31316148   6.698   3.987   9.333 -0.1216 -0.4199  0.2054
  146SAPE  H13X16149   6.711   4.067   9.410 -0.7305 -1.5050  1.4579
  146SAPE  H13Y16150   6.632   4.030   9.255  2.7173 -0.3300 -2.2222
  146SAPE  C31416151   6.836   3.957   9.270 -0.2935  0.2411 -0.0545
  146SAPE  H14X16152   6.828   3.868   9.204  1.9218  1.5662 -2.2100
  146SAPE  H14Y16153   6.902   3.937   9.356  0.9979 -0.2505 -1.1372
  146SAPE  C31516154   6.903   4.066   9.186 -0.4794 -0.1324 -0.0626
  146SAPE  H15X16155   7.001   4.039   9.141 -0.4843  0.2789 -0.3169
  146SAPE  H15Y16156   6.916   4.146   9.261 -0.8062  0.9722 -1.1752
  146SAPE  C31616157   6.818   4.100   9.058 -0.1980  0.6622  0.0137
  146SAPE  H16X16158   6.727   4.149   9.098  0.6452  1.0753  1.4729
  146SAPE  H16Y16159   6.796   4.014   8.992  3.1021 -0.8307  0.7625
  146SAPE  C31716160   6.899   4.203   8.969  0.4170  0.2857  0.2219
  146SAPE  H17X16161   6.994   4.150   8.948 -0.1799 -1.0334  0.7532
  146SAPE  H17Y16162   6.933   4.282   9.039  0.2373  0.1952  0.4134
  146SAPE  C31816163   6.841   4.255   8.839  0.2314 -0.3724  0.8278
  146SAPE  H18X16164   6.743   4.307   8.849  1.0904  1.5572 -0.6806
  146SAPE  H18Y16165   6.831   4.169   8.770 -0.7463  0.0436  0.4467
  146SAPE  H18Z16166   6.918   4.314   8.786  3.1327 -1.5958  3.4755
  147SAPE     N16167   6.504   0.371  10.741 -0.2758  0.0703 -0.9051
  147SAPE   HN116168   6.459   0.287  10.782  0.6865  0.9862  2.1428
  147SAPE   HN216169   6.573   0.420  10.801 -0.1493 -0.6086 -0.4842
  147SAPE   HN316170   6.430   0.442  10.726  1.4905  2.6859  1.9657
  147SAPE   C1216171   6.589   0.324  10.619  0.1067 -0.4393 -0.9594
  147SAPE  H12A16172   6.629   0.421  10.583  1.8384 -2.1315 -3.6890
  147SAPE  H12B16173   6.522   0.280  10.542 -0.3907 -0.4349 -0.5345
  147SAPE   C1116174   6.699   0.220  10.650 -0.5353  0.3592 -0.4273
  147SAPE  H11A16175   6.764   0.213  10.560 -1.7383  0.2684 -1.2973
  147SAPE  H11B16176   6.649   0.120  10.654  1.2256 -0.5841 -1.3990
  147SAPE     P16177   6.906   0.195  10.827 -0.2463 -0.2572  0.2001
  147SAPE   O1316178   7.027   0.283  10.801 -0.3715 -0.0470  0.1895
  147SAPE   O1416179   6.877   0.158  10.967  0.2271  0.2291  1.0879
  147SAPE   O1216180   6.775   0.256  10.769 -0.2312 -0.0262  0.1384
  147SAPE   O1116181   6.914   0.055  10.753 -0.3973 -0.4977  0.2415
  147SAPE    C116182   7.025  -0.036  10.775 -0.5722  0.2716  0.1390
  147SAPE    HA16183   7.112   0.003  10.831  1.2458 -0.9207 -1.7674
  147SAPE    HB16184   7.002  -0.118  10.845  1.8160  0.8426  1.6552
  147SAPE    C216185   7.078  -0.085  10.639 -0.2124 -0.0471 -0.5368
  147SAPE    HS16186   7.161  -0.157  10.660 -0.3252 -0.5165 -1.6472
  147SAPE   O2116187   7.127   0.019  10.549  0.0408 -0.4120  0.4899
  147SAPE   C2116188   7.235   0.083  10.588  0.0374  0.2039  0.2294
  147SAPE   O2216189   7.309   0.043  10.681 -1.1186 -0.8503  0.4409
  147SAPE   C2216190   7.250   0.220  10.524 -0.6035  0.2742  0.0879
  147SAPE   H2R16191   7.201   0.225  10.424  0.4088  0.9599 -0.3799
  147SAPE   H2S16192   7.186   0.285  10.587 -1.0185 -1.5527  1.5802
  147SAPE    C316193   6.972  -0.161  10.560  0.1763 -0.3191  0.7028
  147SAPE    HX16194   6.878  -0.104  10.544 -0.5945 -1.0813  2.3608
  147SAPE    HY16195   6.954  -0.251  10.622 -0.2213  2.2617  4.5085
  147SAPE   O3116196   7.017  -0.211  10.434  0.5369 -0.3540  0.4693
  147SAPE   C3116197   6.932  -0.220  10.333  0.1017  0.1936  0.7753
  147SAPE   O3216198   6.809  -0.209  10.334 -0.3222  0.0243 -0.5318
  147SAPE   C3216199   7.013  -0.267  10.210 -0.3227  0.2351 -0.0932
  147SAPE   H2X16200   7.051  -0.370  10.226  0.6151  0.5308 -0.4098
  147SAPE   H2Y16201   7.103  -0.203  10.207  0.3629 -0.6057  2.0245
  147SAPE   C2316202   7.394   0.274  10.525  0.6422  0.3490  0.4020
  147SAPE   H3R16203   7.457   0.233  10.607 -0.0687 -1.7312 -0.0583
  147SAPE   H3S16204   7.389   0.385  10.534  0.5059  0.4795 -1.1494
  147SAPE   C2416205   7.466   0.237  10.396 -0.3391  0.5185  0.1179
  147SAPE   H4R16206   7.458   0.126  10.392 -2.2178  0.5483  1.9494
  147SAPE   H4S16207   7.569   0.279  10.396  0.1952 -0.7403 -0.0973
  147SAPE   C2516208   7.413   0.304  10.272  0.1602  0.5897  0.5994
  147SAPE   H5R16209   7.419   0.414  10.279 -0.2171  0.7760 -1.4943
  147SAPE   C2616210   7.336   0.252  10.173  0.7524 -0.0526 -0.3622
  147SAPE   H6R16211   7.296   0.310  10.089 -0.4455 -1.4105 -0.7448
  147SAPE   C2716212   7.292   0.107  10.165 -0.5623 -0.4163 -0.5873
  147SAPE   H7R16213   7.291   0.056  10.264 -1.9686  1.3683  0.3565
  147SAPE   H7S16214   7.360   0.061  10.090 -0.4309 -0.2245 -0.5870
  147SAPE   C2816215   7.147   0.103  10.123  0.6147 -0.2141  0.4145
  147SAPE   H8R16216   7.080   0.085  10.208 -0.3580 -0.6126 -0.4371
  147SAPE   C2916217   7.095   0.121   9.997 -0.3811 -0.2598  0.0630
  147SAPE   H9R16218   6.986   0.112   9.984 -0.1130 -0.7770 -1.9619
  147SAPE  C21016219   7.176   0.131   9.868  0.4768 -0.8744  0.2593
  147SAPE  H10R16220   7.243   0.043   9.860 -0.2818 -1.3416 -1.0903
  147SAPE  H10S16221   7.236   0.224   9.862  1.7734 -1.7261 -0.1330
  147SAPE  C21116222   7.091   0.121   9.746  0.5224  0.6994  0.1980
  147SAPE  H11R16223   6.989   0.082   9.756 -0.2042  1.8832 -2.4472
  147SAPE  C21216224   7.129   0.158   9.624  0.2753  0.2850  0.3969
  147SAPE  H12R16225   7.064   0.124   9.543 -1.8155  1.3130  1.6002
  147SAPE  C21316226   7.276   0.196   9.587 -0.3394 -0.9055 -0.1081
  147SAPE  H13R16227   7.303   0.131   9.501 -0.8830  0.0854 -1.0492
  147SAPE  H13S16228   7.342   0.161   9.668  0.6592  1.1029 -0.0190
  147SAPE  C21416229   7.295   0.342   9.557 -0.1179  0.7399 -0.3631
  147SAPE  H14R16230   7.248   0.405   9.635  0.4981  2.6340 -1.4808
  147SAPE  C21516231   7.346   0.392   9.443  0.0520  0.5471 -0.0352
  147SAPE  H15R16232   7.348   0.502   9.441 -0.5683  0.6678  2.9702
  147SAPE  C21616233   7.397   0.321   9.321  0.4673 -0.2558 -0.1747
  147SAPE  H16R16234   7.447   0.228   9.357  0.6845  0.8315  2.4319
  147SAPE  H16S16235   7.480   0.378   9.275 -1.4315  2.4099 -0.3899
  147SAPE  C21716236   7.289   0.290   9.213 -0.4471 -0.9181 -0.1461
  147SAPE  H17R16237   7.269   0.390   9.168  1.4957 -0.1101  0.7451
  147SAPE  H17S16238   7.195   0.256   9.263  1.0992 -2.0811  2.0388
  147SAPE  C21816239   7.339   0.182   9.113 -0.3948 -0.1602  0.2554
  147SAPE  H18R16240   7.296   0.083   9.137 -1.8056 -0.0099 -1.5427
  147SAPE  H18S16241   7.450   0.174   9.114 -0.5398 -2.2621  0.4410
  147SAPE  C21916242   7.298   0.205   8.967 -0.2558  0.6409 -0.1238
  147SAPE  H19R16243   7.353   0.289   8.920 -0.7328  0.2771 -1.3481
  147SAPE  H19S16244   7.194   0.243   8.969 -0.1011  1.0662 -0.0747
  147SAPE  C22016245   7.311   0.074   8.882 -0.4385 -0.5861 -0.1948
  147SAPE  H20R16246   7.234   0.000   8.914  0.5191 -1.0423  1.1025
  147SAPE  H20S16247   7.412   0.032   8.902 -0.4229 -0.5796 -0.2599
  147SAPE  H20T16248   7.309   0.094   8.773 -0.7680 -1.1114 -0.2865
  147SAPE   C3316249   6.930  -0.261  10.076 -0.0918 -0.3296 -0.1186
  147SAPE   H3X16250   6.878  -0.163  10.073  0.9561  0.2533  0.2961
  147SAPE   H3Y16251   6.864  -0.349  10.061  0.2160 -0.7951  1.1425
  147SAPE   C3416252   7.023  -0.256   9.963  0.2158 -0.0084  0.3977
  147SAPE   H4X16253   7.087  -0.346   9.969  2.1574  1.3459  0.4679
  147SAPE   H4Y16254   7.084  -0.163   9.971  1.2011 -0.5775 -0.3961
  147SAPE   C3516255   6.962  -0.254   9.826 -0.2176 -0.1969 -0.1401
  147SAPE   H5X16256   6.878  -0.181   9.824  0.4022  0.5770  1.6114
  147SAPE   H5Y16257   6.919  -0.356   9.811  1.6643 -0.8966 -0.9666
  147SAPE   C3616258   7.052  -0.245   9.703 -0.6347 -0.2223 -0.3392
  147SAPE   H6X16259   7.104  -0.341   9.685 -3.1101 -1.1461 -2.8421
  147SAPE   H6Y16260   7.121  -0.161   9.726  0.4296 -0.5349 -2.2637
  147SAPE   C3716261   6.971  -0.221   9.576  0.5825  0.0365  0.0524
  147SAPE   H7X16262   6.910  -0.129   9.592 -0.2161 -0.2675 -1.1963
  147SAPE   H7Y16263   6.899  -0.304   9.557  0.3944  1.1484 -4.5034
  147SAPE   C3816264   7.049  -0.203   9.443  0.4376 -0.0535 -0.4362
  147SAPE   H8X16265   7.103  -0.295   9.413  0.2804 -1.2074  2.6123
  147SAPE   H8Y16266   7.115  -0.114   9.441 -0.5426  0.6766 -1.1266
  147SAPE   C3916267   6.946  -0.174   9.328  0.1866  0.4271 -0.0339
  147SAPE   H9X16268   6.895  -0.079   9.355  0.3923  0.7554 -0.7635
  147SAPE   H9Y16269   6.883  -0.265   9.322 -0.3088  0.9282 -4.0208
  147SAPE  C31016270   7.011  -0.132   9.188 -0.2204 -0.2505 -0.0473
  147SAPE  H10X16271   7.095  -0.203   9.174  0.9239  0.8203  1.3011
  147SAPE  H10Y16272   7.058  -0.033   9.207 -0.9523 -0.4274  3.0858
  147SAPE  C31116273   6.902  -0.109   9.074  0.2350  0.5826 -0.5989
  147SAPE  H11X16274   6.842  -0.017   9.095 -2.2211 -1.0486 -0.1808
  147SAPE  H11Y16275   6.832  -0.196   9.074 -0.1115  0.8422  0.9403
  147SAPE  C31216276   6.964  -0.111   8.942 -0.1240 -0.1666  0.8190
  147SAPE  H12X16277   6.915  -0.190   8.883  2.2869  0.2665 -1.8453
  147SAPE  H12Y16278   7.073  -0.129   8.940  0.7117  4.3107 -0.0148
  147SAPE  C31316279   6.954   0.021   8.868  0.8814 -0.3600 -0.3827
  147SAPE  H13X16280   7.024   0.095   8.911  1.9656 -1.5282 -0.0863
  147SAPE  H13Y16281   6.850   0.054   8.888  1.0427  1.1740 -1.9994
  147SAPE  C31416282   6.977   0.008   8.714 -0.3266  0.0947 -0.2688
  147SAPE  H14X16283   6.915  -0.076   8.676  0.2173  0.0285 -1.0373
  147SAPE  H14Y16284   7.083  -0.025   8.702 -0.4497  0.2462 -1.8969
  147SAPE  C31516285   6.937   0.125   8.631 -0.4748  0.0508  0.9827
  147SAPE  H15X16286   6.974   0.097   8.530 -0.6626 -0.8393  1.1538
  147SAPE  H15Y16287   6.997   0.216   8.651  0.3477 -0.1526 -0.4643
  147SAPE  C31616288   6.789   0.167   8.611  0.4622  1.2826 -0.1593
  147SAPE  H16X16289   6.740   0.195   8.707  0.8501 -1.7181  0.9668
  147SAPE  H16Y16290   6.737   0.075   8.577  0.7487  1.0662 -0.0156
  147SAPE  C31716291   6.772   0.275   8.501  0.4314 -0.3511  0.2053
  147SAPE  H17X16292   6.716   0.230   8.416  0.6310 -1.5133  0.6765
  147SAPE  H17Y16293   6.875   0.305   8.472  0.6256 -1.7105 -0.5569
  147SAPE  C31816294   6.700   0.402   8.545 -0.1211 -0.1194 -0.5189
  147SAPE  H18X16295   6.686   0.454   8.448  0.0604 -0.4956 -0.7488
  147SAPE  H18Y16296   6.771   0.473   8.592 -1.4679  0.7729  0.1783
  147SAPE  H18Z16297   6.612   0.388   8.610 -1.0648 -0.3118 -1.8190
  148SAPE     N16298   1.527   1.965  10.730 -1.0195 -0.4240 -0.1791
  148SAPE   HN116299   1.542   2.062  10.763  1.8982 -1.1052  0.6664
  148SAPE   HN216300   1.469   1.923  10.805 -1.4878 -3.2740 -2.0392
  148SAPE   HN316301   1.615   1.911  10.738 -0.7534 -0.2134 -1.4892
  148SAPE   C1216302   1.476   1.948  10.589  0.3638  0.1960 -0.0585
  148SAPE  H12A16303   1.396   2.023  10.570 -2.1597 -1.9451  1.8208
  148SAPE  H12B16304   1.431   1.848  10.573  0.6489  0.3667 -2.0610
  148SAPE   C1116305   1.595   1.976  10.484  0.4941  0.2490 -0.4400
  148SAPE  H11A16306   1.637   2.076  10.509  2.3013 -0.5405 -0.1943
  148SAPE  H11B16307   1.551   1.978  10.383  0.5734 -2.4759 -0.5589
  148SAPE     P16308   1.828   1.882  10.560  0.1612  0.2446  0.0520
  148SAPE   O1316309   1.792   1.890  10.706  0.1607  0.1902 -0.3469
  148SAPE   O1416310   1.922   1.778  10.511  0.4077  0.0235 -0.4767
  148SAPE   O1216311   1.687   1.870  10.486  0.6193 -0.3523  0.0196
  148SAPE   O1116312   1.894   2.007  10.507  0.0137 -0.2005  0.2111
  148SAPE    C116313   1.973   2.015  10.390 -0.2301  0.3966  0.6807
  148SAPE    HA16314   2.029   2.110  10.396 -2.4178  1.6794  1.4833
  148SAPE    HB16315   2.053   1.939  10.376 -1.9421 -1.0924 -1.5667
  148SAPE    C216316   1.905   2.008  10.247 -1.0016  0.3429 -0.0337
  148SAPE    HS16317   1.979   2.059  10.181 -1.7198 -2.2481 -2.9764
  148SAPE   O2116318   1.775   2.067  10.257 -0.2191 -0.0285 -0.4164
  148SAPE   C2116319   1.786   2.196  10.240  0.4904 -0.7202  0.2048
  148SAPE   O2216320   1.887   2.260  10.215 -0.0080  0.3988  0.5173
  148SAPE   C2216321   1.648   2.260  10.238  0.3777 -0.3062 -0.0362
  148SAPE   H2R16322   1.603   2.244  10.338 -0.2930 -0.8998 -0.4298
  148SAPE   H2S16323   1.660   2.369  10.219  0.6610  0.1545  2.6324
  148SAPE    C316324   1.888   1.864  10.190 -0.4794  0.2417 -0.0742
  148SAPE    HX16325   1.833   1.800  10.262  1.8477 -1.5861  0.1365
  148SAPE    HY16326   1.988   1.818  10.179 -0.6697 -0.1610 -0.1354
  148SAPE   O3116327   1.843   1.869  10.055  0.6485 -0.0724  0.1389
  148SAPE   C3116328   1.754   1.776  10.023  0.7181  0.5108  0.1768
  148SAPE   O3216329   1.717   1.682  10.091  0.1559  0.1748 -0.0127
  148SAPE   C3216330   1.707   1.800   9.877  0.7669  0.0546  0.7630
  148SAPE   H2X16331   1.624   1.874   9.882 -2.2125 -3.1281  0.0691
  148SAPE   H2Y16332   1.667   1.702   9.844  1.4522 -0.9398  2.8447
  148SAPE   C2316333   1.566   2.201  10.121 -0.2997  0.0580 -0.2286
  148SAPE   H3R16334   1.472   2.259  10.107  0.3997  0.8657 -1.5892
  148SAPE   H3S16335   1.547   2.095  10.146 -1.3441  0.1761 -0.4940
  148SAPE   C2416336   1.640   2.200   9.989 -1.1119  0.1460 -0.0354
  148SAPE   H4R16337   1.729   2.134  10.001 -1.3373 -0.3299 -0.9205
  148SAPE   H4S16338   1.687   2.298   9.968  0.8195 -1.0606 -1.5793
  148SAPE   C2516339   1.561   2.166   9.864  0.1507 -0.9069 -0.8073
  148SAPE   H5R16340   1.473   2.101   9.874  1.4809 -2.6374  0.0271
  148SAPE   C2616341   1.593   2.211   9.741  0.5923 -0.1444  0.1406
  148SAPE   H6R16342   1.529   2.194   9.653  0.0088 -1.3758  0.7977
  148SAPE   C2716343   1.710   2.294   9.696 -0.2161 -0.1372  0.6114
  148SAPE   H7R16344   1.789   2.226   9.658  0.8720  1.6192 -0.3382
  148SAPE   H7S16345   1.758   2.335   9.787  0.4769  0.8378 -0.1709
  148SAPE   C2816346   1.657   2.397   9.597 -0.2967  0.4582 -0.3027
  148SAPE   H8R16347   1.575   2.456   9.639 -0.1740  0.1395  0.3864
  148SAPE   C2916348   1.698   2.424   9.473  0.1317  0.2124  0.0339
  148SAPE   H9R16349   1.650   2.511   9.425 -0.0271 -1.0684 -2.2030
  148SAPE  C21016350   1.817   2.377   9.388  0.2729  0.8265 -0.1407
  148SAPE  H10R16351   1.774   2.336   9.295  0.7908 -1.1211  0.4504
  148SAPE  H10S16352   1.868   2.297   9.447 -0.6150  0.4413  0.1159
  148SAPE  C21116353   1.914   2.491   9.373  0.6024  0.3233 -0.2904
  148SAPE  H11R16354   1.970   2.520   9.463 -1.5903 -2.6170  2.1460
  148SAPE  C21216355   1.931   2.568   9.264 -0.1120 -0.4800 -0.5866
  148SAPE  H12R16356   2.007   2.646   9.275  0.4659 -0.8371 -1.9249
  148SAPE  C21316357   1.873   2.552   9.128 -0.9285 -0.2763  1.3306
  148SAPE  H13R16358   1.909   2.635   9.063  1.0755 -0.5543  2.0536
  148SAPE  H13S16359   1.766   2.579   9.139 -0.7475  0.7483  0.6083
  148SAPE  C21416360   1.893   2.422   9.055  0.7486 -0.0749 -0.5555
  148SAPE  H14R16361   1.814   2.351   9.084  0.6894  1.2362  2.7246
  148SAPE  C21516362   1.989   2.384   8.962  0.3525 -0.4945 -0.0342
  148SAPE  H15R16363   1.977   2.288   8.910 -2.0223  0.5867 -1.6109
  148SAPE  C21616364   2.101   2.467   8.914  0.5357  0.2622 -0.9765
  148SAPE  H16R16365   2.195   2.432   8.963  1.0450  2.9014 -0.0090
  148SAPE  H16S16366   2.091   2.573   8.945  0.1459  0.6703 -2.4775
  148SAPE  C21716367   2.125   2.444   8.767  0.1683  0.3917 -0.2411
  148SAPE  H17R16368   2.042   2.485   8.706 -0.5676  1.4638  1.4286
  148SAPE  H17S16369   2.143   2.339   8.738  0.7046  0.7938 -1.4033
  148SAPE  C21816370   2.264   2.503   8.720  0.3287  0.1912  0.1992
  148SAPE  H18R16371   2.352   2.454   8.766 -0.4278 -1.7394 -0.3635
  148SAPE  H18S16372   2.260   2.604   8.766 -1.3386 -0.6073  1.8815
  148SAPE  C21916373   2.292   2.523   8.568 -0.9258 -0.6496  0.0002
  148SAPE  H19R16374   2.322   2.425   8.526  2.9104 -0.1240  1.3339
  148SAPE  H19S16375   2.379   2.592   8.567 -2.5530  1.4675  0.7360
  148SAPE  C22016376   2.181   2.579   8.482  0.7251  0.0152  0.2687
  148SAPE  H20R16377   2.128   2.665   8.528  1.3879  0.4110  0.3081
  148SAPE  H20S16378   2.107   2.498   8.465  1.0494  0.3182 -2.7775
  148SAPE  H20T16379   2.223   2.608   8.383 -0.6916 -0.0984 -0.3774
  148SAPE   C3316380   1.818   1.832   9.769  0.2198 -0.3818 -0.0122
  148SAPE   H3X16381   1.910   1.772   9.785  0.4801  0.3302  1.3354
  148SAPE   H3Y16382   1.844   1.937   9.794 -0.3017  0.0439 -1.2169
  148SAPE   C3416383   1.751   1.821   9.628  0.0800 -0.1742  0.2653
  148SAPE   H4X16384   1.652   1.872   9.630 -1.4357 -2.9902 -0.1098
  148SAPE   H4Y16385   1.721   1.715   9.613  2.1974 -1.1109  2.2912
  148SAPE   C3516386   1.848   1.880   9.522 -0.0307  0.2421  0.1367
  148SAPE   H5X16387   1.935   1.811   9.525 -1.5506 -1.7064  0.3250
  148SAPE   H5Y16388   1.884   1.980   9.556  1.9116  0.3673 -2.1171
  148SAPE   C3616389   1.797   1.890   9.379  0.2863  0.0800 -0.4573
  148SAPE   H6X16390   1.712   1.961   9.371 -0.9971 -1.4866 -1.0182
  148SAPE   H6Y16391   1.741   1.797   9.355  0.7701 -0.4593  0.4426
  148SAPE   C3716392   1.903   1.924   9.274  0.5336 -0.1773 -0.0095
  148SAPE   H7X16393   1.981   1.846   9.281  2.1233  1.5449  2.7033
  148SAPE   H7Y16394   1.961   2.015   9.300 -0.5671  0.4229  0.3748
  148SAPE   C3816395   1.851   1.942   9.132  0.0105 -0.5083 -0.1887
  148SAPE   H8X16396   1.747   1.979   9.140 -0.3240 -1.4093 -0.3059
  148SAPE   H8Y16397   1.837   1.841   9.089  0.7856  0.0778 -1.8650
  148SAPE   C3916398   1.928   2.045   9.048 -0.4727 -0.6031  0.0890
  148SAPE   H9X16399   1.929   2.144   9.098  0.7824  0.1036 -1.3136
  148SAPE   H9Y16400   1.882   2.063   8.949 -1.5118 -1.2759  0.4298
  148SAPE  C31016401   2.081   2.012   9.041 -0.4624 -0.1419  0.0759
  148SAPE  H10X16402   2.116   2.000   9.145 -0.6806 -2.1872 -0.0599
  148SAPE  H10Y16403   2.142   2.095   9.001 -0.9698  1.2682  2.1810
  148SAPE  C31116404   2.122   1.878   8.972  0.1131 -0.6216  0.0895
  148SAPE  H11X16405   2.073   1.796   9.028  1.9372  0.2905  3.1595
  148SAPE  H11Y16406   2.232   1.867   8.977  0.4284  1.7840 -0.7223
  148SAPE  C31216407   2.074   1.879   8.822 -0.0383 -0.2968 -0.2475
  148SAPE  H12X16408   1.966   1.902   8.816  0.1180 -0.0026 -2.5664
  148SAPE  H12Y16409   2.086   1.771   8.801 -1.4557 -0.6477  0.7153
  148SAPE  C31316410   2.150   1.968   8.730  0.0306  0.5244  0.2929
  148SAPE  H13X16411   2.261   1.957   8.735  0.1396  1.1043 -0.7168
  148SAPE  H13Y16412   2.143   2.071   8.770  0.7001 -0.3469  2.7306
  148SAPE  C31416413   2.093   1.960   8.586  0.2868  0.3049 -0.3427
  148SAPE  H14X16414   1.987   1.992   8.579 -0.5044 -2.3981 -1.2604
  148SAPE  H14Y16415   2.105   1.862   8.534  0.6978 -0.9470  2.0261
  148SAPE  C31516416   2.165   2.062   8.490  0.6676 -0.2869 -0.1784
  148SAPE  H15X16417   2.272   2.040   8.505  0.2358 -1.7435  0.8622
  148SAPE  H15Y16418   2.144   2.162   8.533 -1.9072 -0.9251  0.1683
  148SAPE  C31616419   2.106   2.069   8.357  0.3830 -0.4347  0.7192
  148SAPE  H16X16420   1.999   2.097   8.349  0.4431 -0.8268 -1.8584
  148SAPE  H16Y16421   2.121   1.975   8.301  0.7450  0.2471 -0.3327
  148SAPE  C31716422   2.194   2.170   8.274 -0.0803 -0.0334 -0.0089
  148SAPE  H17X16423   2.300   2.137   8.259  0.0512  1.4784 -2.7875
  148SAPE  H17Y16424   2.204   2.264   8.331 -0.9174  0.7512 -1.1401
  148SAPE  C31816425   2.146   2.203   8.141  0.1128 -0.6029  0.1729
  148SAPE  H18X16426   2.136   2.109   8.083 -1.1003 -1.2250  1.3518
  148SAPE  H18Y16427   2.226   2.260   8.089  0.6293 -1.9194 -0.4980
  148SAPE  H18Z16428   2.048   2.255   8.147  0.7748  0.6724  0.2239
  149SAPE     N16429   4.217   4.001  11.414 -0.0741  0.2524 -0.0881
  149SAPE   HN116430   4.181   4.090  11.375 -1.4581 -0.7120 -1.0699
  149SAPE   HN216431   4.160   3.916  11.396  1.9587 -0.8357 -1.6192
  149SAPE   HN316432   4.249   4.017  11.512  1.1156 -2.0183 -0.0710
  149SAPE   C1216433   4.344   3.969  11.333 -0.0680  0.2653  0.1299
  149SAPE  H12A16434   4.362   3.864  11.362 -1.3947  0.0550  0.2213
  149SAPE  H12B16435   4.427   4.032  11.373 -0.2107 -0.1616  1.0886
  149SAPE   C1116436   4.328   4.001  11.184  0.1022  0.1594  0.3124
  149SAPE  H11A16437   4.257   3.927  11.142 -2.8482  2.3228  1.3890
  149SAPE  H11B16438   4.421   3.979  11.127 -0.4719  0.8393 -0.8861
  149SAPE     P16439   4.170   4.166  11.055  0.6161 -0.2972 -0.0617
  149SAPE   O1316440   4.032   4.129  11.092  0.0414 -0.3615 -0.0882
  149SAPE   O1416441   4.193   4.310  11.026 -0.3589  0.1173 -0.6536
  149SAPE   O1216442   4.267   4.131  11.174 -0.1704  0.0657  0.3605
  149SAPE   O1116443   4.224   4.086  10.937  0.9228  0.3981  0.0519
  149SAPE    C116444   4.345   4.118  10.874 -0.2151  0.1221  0.2940
  149SAPE    HA16445   4.417   4.179  10.934 -0.8261 -0.7467  1.9455
  149SAPE    HB16446   4.399   4.024  10.850 -0.6173  0.4472 -1.9414
  149SAPE    C216447   4.326   4.201  10.755  0.3689 -0.3863  0.1408
  149SAPE    HS16448   4.255   4.280  10.788  1.3528  0.7658 -0.4613
  149SAPE   O2116449   4.266   4.121  10.658  0.1497 -0.0603  0.3001
  149SAPE   C2116450   4.240   4.180  10.538  0.4662  0.3697  0.0899
  149SAPE   O2216451   4.255   4.297  10.513  0.0055 -0.1922 -0.2608
  149SAPE   C2216452   4.179   4.083  10.438  0.5256 -0.3764  0.0532
  149SAPE   H2R16453   4.244   3.998  10.407 -0.5976 -1.4562  0.5922
  149SAPE   H2S16454   4.097   4.031  10.492  0.0883 -1.6784 -1.7802
  149SAPE    C316455   4.463   4.266  10.713 -0.5068  0.0520 -0.6202
  149SAPE    HX16456   4.489   4.335  10.796  0.6550 -1.9103  0.6627
  149SAPE    HY16457   4.441   4.345  10.638 -1.2334 -0.9429 -1.4692
  149SAPE   O3116458   4.571   4.172  10.679  0.0843 -0.2704  0.0802
  149SAPE   C3116459   4.581   4.156  10.549 -0.5069  0.2990  0.3683
  149SAPE   O3216460   4.518   4.215  10.461  0.0102 -0.1345  0.6579
  149SAPE   C3216461   4.685   4.053  10.533 -0.2611 -0.5055  0.8725
  149SAPE   H2X16462   4.653   3.957  10.580  0.9216 -0.8603  0.9693
  149SAPE   H2Y16463   4.777   4.089  10.584 -0.7012  0.3003  1.0938
  149SAPE   C2316464   4.137   4.142  10.305  0.1962  0.3065  0.6090
  149SAPE   H3R16465   4.221   4.192  10.252  0.0532 -1.0591 -0.9290
  149SAPE   H3S16466   4.055   4.217  10.310  1.0310  1.5267 -2.6285
  149SAPE   C2416467   4.082   4.032  10.205 -0.3752 -0.9532  0.2359
  149SAPE   H4R16468   4.023   4.080  10.125  1.4268 -1.2136 -1.2835
  149SAPE   H4S16469   4.010   3.975  10.268 -1.5311  0.6745  0.4218
  149SAPE   C2516470   4.190   3.948  10.138  0.4251 -0.3581  0.2295
  149SAPE   H5R16471   4.266   3.904  10.204  0.5893 -0.9296 -0.3365
  149SAPE   C2616472   4.214   3.927  10.006 -0.2203  0.1198 -0.7328
  149SAPE   H6R16473   4.297   3.858   9.983 -0.7121 -0.7922  0.2027
  149SAPE   C2716474   4.146   3.986   9.884 -0.0458 -0.5757 -1.2607
  149SAPE   H7R16475   4.203   4.065   9.830 -2.5034  0.4311 -2.4944
  149SAPE   H7S16476   4.058   4.040   9.924  0.1231 -1.6380  0.5983
  149SAPE   C2816477   4.089   3.875   9.796 -0.0751 -0.0112  0.0522
  149SAPE   H8R16478   4.017   3.811   9.848  0.1011  1.1712  1.7786
  149SAPE   C2916479   4.113   3.853   9.668  0.0595  0.4132 -0.2674
  149SAPE   H9R16480   4.079   3.755   9.631  0.4691  0.1677  0.0099
  149SAPE  C21016481   4.213   3.924   9.580  0.5395 -0.5676  0.3894
  149SAPE  H10R16482   4.264   3.840   9.528 -0.4825 -0.5176 -0.7173
  149SAPE  H10S16483   4.292   3.969   9.644  0.3986  0.9319 -0.4619
  149SAPE  C21116484   4.160   4.029   9.484 -0.0967 -0.1712 -0.1206
  149SAPE  H11R16485   4.158   4.132   9.522 -1.3302  0.0178 -0.6740
  149SAPE  C21216486   4.108   4.011   9.358 -0.0211 -0.1238  0.2604
  149SAPE  H12R16487   4.072   4.097   9.300 -0.8957 -0.3619  0.4359
  149SAPE  C21316488   4.095   3.872   9.299  0.6115 -0.7036  0.4285
  149SAPE  H13R16489   3.991   3.854   9.263  0.3351  1.4015  0.0976
  149SAPE  H13S16490   4.133   3.794   9.367  1.4824 -0.5216  0.1586
  149SAPE  C21416491   4.185   3.868   9.175  0.0497 -0.0450  0.2868
  149SAPE  H14R16492   4.292   3.872   9.203 -0.4661  2.0960  2.1843
  149SAPE  C21516493   4.149   3.862   9.045  0.5673  0.2492 -0.6789
  149SAPE  H15R16494   4.225   3.858   8.965  0.9220  1.8896 -0.4427
  149SAPE  C21616495   4.011   3.861   8.997  1.2883  0.4183  0.4505
  149SAPE  H16R16496   3.945   3.793   9.055  1.4599 -1.7664 -1.7776
  149SAPE  H16S16497   4.016   3.807   8.899  0.8220  1.2923 -0.0638
  149SAPE  C21716498   3.942   4.003   8.976 -0.2618 -0.4627 -0.2901
  149SAPE  H17R16499   3.943   4.056   9.074  0.1575 -0.7853 -0.1179
  149SAPE  H17S16500   3.835   3.984   8.951 -0.9008  2.0004  0.4418
  149SAPE  C21816501   4.009   4.098   8.873 -0.1863 -0.7641  0.6152
  149SAPE  H18R16502   3.967   4.065   8.776  3.2716 -0.8866 -0.9056
  149SAPE  H18S16503   4.120   4.100   8.877 -0.1519  2.1177 -0.5740
  149SAPE  C21916504   3.956   4.245   8.893  0.3041  1.0773  0.1322
  149SAPE  H19R16505   3.984   4.261   8.999  0.8606  0.0989  0.1287
  149SAPE  H19S16506   3.846   4.253   8.874 -0.2407 -2.7923  1.3175
  149SAPE  C22016507   4.030   4.338   8.795 -0.3786 -0.5418  0.1846
  149SAPE  H20R16508   3.997   4.308   8.693  1.3897  0.3995 -0.6824
  149SAPE  H20S16509   4.141   4.336   8.802 -0.3414  2.4752  0.8720
  149SAPE  H20T16510   3.993   4.441   8.812 -0.4746 -0.6404  0.5827
  149SAPE   C3316511   4.715   4.006  10.388  0.1246  0.2044  0.4533
  149SAPE   H3X16512   4.799   3.933  10.394 -0.3745 -0.3521  0.5871
  149SAPE   H3Y16513   4.751   4.095  10.331  0.9687 -1.4406 -1.6725
  149SAPE   C3416514   4.603   3.941  10.312  0.2644  0.3937 -0.1895
  149SAPE   H4X16515   4.525   4.020  10.310  1.7007  1.8143 -2.4880
  149SAPE   H4Y16516   4.568   3.853  10.370  2.5387  0.1940  0.9629
  149SAPE   C3516517   4.629   3.897  10.167 -0.3679  0.1370  0.6608
  149SAPE   H5X16518   4.542   3.839  10.130  0.4019 -0.6675  0.1026
  149SAPE   H5Y16519   4.718   3.831  10.165 -0.3198  0.1156  2.8847
  149SAPE   C3616520   4.638   4.008  10.065 -0.7909 -0.0676 -0.0238
  149SAPE   H6X16521   4.703   4.087  10.109 -1.5744 -0.5802  2.1362
  149SAPE   H6Y16522   4.539   4.059  10.065 -1.0595 -0.5898  0.4235
  149SAPE   C3716523   4.677   3.964   9.925 -0.4218  0.1731  0.4048
  149SAPE   H7X16524   4.770   3.904   9.931 -0.0235  0.8746  1.3411
  149SAPE   H7Y16525   4.710   4.056   9.873  1.6445 -1.4515 -1.2351
  149SAPE   C3816526   4.555   3.893   9.854 -1.0904 -0.0785 -0.2282
  149SAPE   H8X16527   4.466   3.947   9.893 -1.3047 -0.7661  0.2418
  149SAPE   H8Y16528   4.541   3.788   9.888 -0.1159 -0.5055 -1.1281
  149SAPE   C3916529   4.550   3.918   9.703 -0.1184  0.6233 -0.7838
  149SAPE   H9X16530   4.536   4.025   9.676  1.1181  1.0709  0.3005
  149SAPE   H9Y16531   4.461   3.866   9.661 -1.4940  1.1455  1.4158
  149SAPE  C31016532   4.677   3.850   9.637  0.6396 -0.4804 -0.4340
  149SAPE  H10X16533   4.690   3.745   9.671  0.2635  0.3812  2.6040
  149SAPE  H10Y16534   4.763   3.910   9.672  2.0614 -2.3571 -0.6518
  149SAPE  C31116535   4.655   3.854   9.485  0.4597 -0.2335  1.0730
  149SAPE  H11X16536   4.656   3.957   9.442 -0.1877 -1.2822 -1.5298
  149SAPE  H11Y16537   4.548   3.830   9.468 -0.1990  2.6224  0.8177
  149SAPE  C31216538   4.752   3.768   9.410  0.1728  0.1452  0.1457
  149SAPE  H12X16539   4.742   3.662   9.440 -0.1172 -0.2189 -1.2150
  149SAPE  H12Y16540   4.853   3.812   9.425 -0.1823  0.7813  0.6723
  149SAPE  C31316541   4.706   3.764   9.266  0.5361 -0.3244 -0.8305
  149SAPE  H13X16542   4.720   3.869   9.231  2.6416 -0.2399  0.1813
  149SAPE  H13Y16543   4.606   3.718   9.261  0.1469  0.5822 -1.5474
  149SAPE  C31416544   4.797   3.671   9.179  0.0737  0.4339  0.0096
  149SAPE  H14X16545   4.767   3.566   9.199 -0.8077  1.0838  2.2670
  149SAPE  H14Y16546   4.898   3.682   9.224  0.0127  0.5737  0.1137
  149SAPE  C31516547   4.810   3.695   9.025 -0.4849  0.0549  0.1152
  149SAPE  H15X16548   4.848   3.800   9.025  1.6324 -0.6808 -0.6746
  149SAPE  H15Y16549   4.715   3.685   8.969 -1.7733  3.9129  1.4469
  149SAPE  C31616550   4.907   3.591   8.964  0.3740 -0.0885 -0.4184
  149SAPE  H16X16551   4.864   3.491   8.983  1.1733  0.0118  2.0498
  149SAPE  H16Y16552   5.006   3.596   9.014  0.2334 -0.8154 -0.0586
  149SAPE  C31716553   4.920   3.636   8.812 -0.3428  0.3001 -0.5644
  149SAPE  H17X16554   4.823   3.682   8.784 -0.2974 -0.3249 -1.7511
  149SAPE  H17Y16555   4.935   3.550   8.744 -0.7939 -1.6801  1.7441
  149SAPE  C31816556   5.040   3.738   8.791  0.5165 -0.0947  0.0286
  149SAPE  H18X16557   5.129   3.683   8.828  0.2026  0.0308  0.9887
  149SAPE  H18Y16558   5.019   3.835   8.841 -0.4040 -0.2059 -0.1211
  149SAPE  H18Z16559   5.058   3.746   8.682  0.0296  2.5919  0.1181
  150SAPE     N16560   5.943   3.826  10.709 -0.6878 -0.5604 -0.4838
  150SAPE   HN116561   5.980   3.800  10.802 -1.0014  2.1779  0.4466
  150SAPE   HN216562   5.999   3.906  10.672 -0.4508 -0.0523  0.9458
  150SAPE   HN316563   5.842   3.845  10.725 -0.4856  0.7926 -0.7579
  150SAPE   C1216564   5.969   3.711  10.622  0.2065 -0.2480  0.5902
  150SAPE  H12A16565   6.070   3.721  10.577  0.1440  1.3340  0.7633
  150SAPE  H12B16566   5.896   3.704  10.538  1.7765 -0.8789 -0.7438
  150SAPE   C1116567   5.978   3.584  10.700  0.3795 -0.0861 -0.4650
  150SAPE  H11A16568   5.997   3.506  10.624  0.0300 -0.2426 -0.3883
  150SAPE  H11B16569   5.877   3.558  10.739  0.4297 -0.3374 -0.5050
  150SAPE     P16570   6.176   3.489  10.840 -0.3667  0.1223  0.1614
  150SAPE   O1316571   6.275   3.540  10.940  0.4387  0.3560  0.3074
  150SAPE   O1416572   6.106   3.363  10.883 -0.0319  0.0766  0.1125
  150SAPE   O1216573   6.075   3.599  10.801  0.1092 -0.4449 -0.0627
  150SAPE   O1116574   6.239   3.455  10.699  0.0338  0.3141 -0.3417
  150SAPE    C116575   6.296   3.559  10.622  0.9800 -0.0960 -0.0490
  150SAPE    HA16576   6.239   3.655  10.617 -1.2495 -1.3838 -0.2363
  150SAPE    HB16577   6.395   3.583  10.667  0.5424  2.2234 -0.2573
  150SAPE    C216578   6.304   3.509  10.480  0.5439  0.0187  0.3227
  150SAPE    HS16579   6.364   3.580  10.419 -0.5944  2.4280  1.8825
  150SAPE   O2116580   6.173   3.488  10.426  0.1743 -0.2314 -0.0688
  150SAPE   C2116581   6.142   3.564  10.326  0.2790  0.4601  0.9251
  150SAPE   O2216582   6.211   3.652  10.280 -0.2380 -0.0490 -0.4435
  150SAPE   C2216583   6.003   3.530  10.276 -0.1963 -0.8347  0.7700
  150SAPE   H2R16584   5.935   3.604  10.323 -0.0043  0.5539 -1.0539
  150SAPE   H2S16585   5.992   3.552  10.167 -0.7286  1.2677  1.2382
  150SAPE    C316586   6.377   3.373  10.479 -0.3398 -0.2748 -0.4299
  150SAPE    HX16587   6.307   3.301  10.527 -1.7616  2.5350  1.8687
  150SAPE    HY16588   6.470   3.392  10.537 -0.7173  0.5560 -0.0812
  150SAPE   O3116589   6.413   3.342  10.351 -0.5480  0.8800  0.2968
  150SAPE   C3116590   6.346   3.243  10.280  0.5430  0.9076  0.1529
  150SAPE   O3216591   6.253   3.180  10.324  0.2252  0.3352 -0.1024
  150SAPE   C3216592   6.413   3.226  10.144 -0.2700  0.2133  0.6682
  150SAPE   H2X16593   6.378   3.126  10.109 -1.8623  1.2295 -0.6996
  150SAPE   H2Y16594   6.521   3.244  10.161  0.1258  0.2156 -1.6762
  150SAPE   C2316595   5.939   3.389  10.292  0.4520 -0.1176  0.8241
  150SAPE   H3R16596   5.928   3.366  10.400 -0.6374  0.5147  0.8517
  150SAPE   H3S16597   6.003   3.314  10.240 -1.5999 -0.7745 -0.8229
  150SAPE   C2416598   5.796   3.362  10.225  0.4471  0.2632 -0.3703
  150SAPE   H4R16599   5.818   3.403  10.124  1.0278  0.3604 -0.2102
  150SAPE   H4S16600   5.724   3.433  10.272 -0.2059 -1.3151  1.0437
  150SAPE   C2516601   5.734   3.226  10.214 -0.1703 -0.6027  0.1913
  150SAPE   H5R16602   5.674   3.200  10.302  0.7061 -0.9314  0.7105
  150SAPE   C2616603   5.756   3.123  10.125  0.1898  0.1399  0.1682
  150SAPE   H6R16604   5.695   3.032  10.133  2.0887 -1.2674 -0.9527
  150SAPE   C2716605   5.848   3.123  10.005  0.2350 -0.8696 -0.2648
  150SAPE   H7R16606   5.936   3.060  10.029  0.4459 -0.0174  1.2448
  150SAPE   H7S16607   5.901   3.218   9.986 -0.1601 -0.7516 -0.7774
  150SAPE   C2816608   5.773   3.068   9.886 -0.1625  0.2621 -0.8869
  150SAPE   H8R16609   5.671   3.032   9.902 -0.0562 -0.3045 -1.4657
  150SAPE   C2916610   5.822   3.096   9.768  0.0737  0.6260 -0.6213
  150SAPE   H9R16611   5.762   3.056   9.685 -0.1124 -1.1040  0.3136
  150SAPE  C21016612   5.949   3.165   9.721  0.2150 -0.3579 -0.4330
  150SAPE  H10R16613   6.024   3.086   9.739 -0.9905 -1.3364  0.3867
  150SAPE  H10S16614   5.977   3.251   9.786  1.2895 -2.1865  1.5713
  150SAPE  C21116615   5.937   3.205   9.579  0.3238 -0.3017  0.2854
  150SAPE  H11R16616   5.915   3.311   9.557 -2.4791 -1.3375 -2.2564
  150SAPE  C21216617   5.955   3.119   9.474 -0.2830 -1.0479 -0.2762
  150SAPE  H12R16618   5.957   3.160   9.372  0.6666 -0.5944 -0.0770
  150SAPE  C21316619   6.003   2.974   9.487 -0.1254  0.5438  0.0681
  150SAPE  H13R16620   5.974   2.940   9.589 -1.4074  1.0672 -0.1128
  150SAPE  H13S16621   6.114   2.970   9.489 -0.1903 -1.4031  0.7306
  150SAPE  C21416622   5.963   2.875   9.376 -0.3748 -0.2827 -0.2439
  150SAPE  H14R16623   6.017   2.892   9.282  2.8404 -0.9850  1.3852
  150SAPE  C21516624   5.867   2.776   9.387 -0.6360 -0.0930  0.0392
  150SAPE  H15R16625   5.851   2.710   9.301  0.3670  0.0417 -0.2581
  150SAPE  C21616626   5.797   2.747   9.514  0.9121  0.4771  0.4016
  150SAPE  H16R16627   5.697   2.702   9.497  0.7100  1.1036 -0.0554
  150SAPE  H16S16628   5.787   2.826   9.592 -0.7773  1.2777 -0.6093
  150SAPE  C21716629   5.880   2.634   9.591 -0.2848 -0.2371  0.2807
  150SAPE  H17R16630   5.962   2.685   9.645  0.0122  0.6491 -0.9705
  150SAPE  H17S16631   5.925   2.566   9.515  0.7373  0.4322  0.2883
  150SAPE  C21816632   5.801   2.549   9.693 -0.2321  0.6017  0.1841
  150SAPE  H18R16633   5.870   2.466   9.723  0.4106  0.8732 -0.5379
  150SAPE  H18S16634   5.719   2.494   9.643 -0.1985  0.1652  0.5969
  150SAPE  C21916635   5.750   2.641   9.806 -0.3621  0.2718  0.4001
  150SAPE  H19R16636   5.695   2.574   9.876  0.8437 -2.2891 -1.0245
  150SAPE  H19S16637   5.675   2.718   9.777  0.8889  1.2326 -0.3092
  150SAPE  C22016638   5.857   2.708   9.895  0.5523 -0.0264 -0.3076
  150SAPE  H20R16639   5.935   2.632   9.913 -0.4733 -1.5644 -2.1117
  150SAPE  H20S16640   5.825   2.750   9.992  3.5137  0.6596  0.3919
  150SAPE  H20T16641   5.900   2.802   9.854  0.8732  0.0640  0.2396
  150SAPE   C3316642   6.368   3.336  10.046  0.2242  0.1667 -0.7743
  150SAPE   H3X16643   6.431   3.319   9.956 -2.1506 -4.8963 -1.6590
  150SAPE   H3Y16644   6.382   3.438  10.086 -0.2011 -0.4032  0.8639
  150SAPE   C3416645   6.223   3.316   9.998 -0.4548 -0.2797 -0.0268
  150SAPE   H4X16646   6.166   3.284  10.088 -1.3736 -2.8959 -1.4705
  150SAPE   H4Y16647   6.218   3.235   9.922  1.5077 -1.6439  1.2702
  150SAPE   C3516648   6.162   3.451   9.948  0.0378  0.3962  0.0603
  150SAPE   H5X16649   6.198   3.540  10.004  1.2717  1.1699 -1.9172
  150SAPE   H5Y16650   6.054   3.439   9.971 -0.4046  0.5576 -1.8279
  150SAPE   C3616651   6.196   3.478   9.803  0.1836 -0.0258 -0.2607
  150SAPE   H6X16652   6.149   3.398   9.740  1.9662 -1.2820 -0.0259
  150SAPE   H6Y16653   6.306   3.470   9.792  0.0845 -1.5255 -0.3037
  150SAPE   C3716654   6.131   3.608   9.752  0.2084 -0.5923 -0.4772
  150SAPE   H7X16655   6.164   3.682   9.828 -0.0682  0.4320 -1.3522
  150SAPE   H7Y16656   6.020   3.604   9.762  0.1358 -0.6480 -1.3072
  150SAPE   C3816657   6.163   3.657   9.614 -1.0553 -0.8679 -0.8800
  150SAPE   H8X16658   6.272   3.641   9.599 -0.5139 -0.2235  2.1201
  150SAPE   H8Y16659   6.147   3.762   9.581  1.8798  0.0541  0.5006
  150SAPE   C3916660   6.107   3.567   9.495  0.0741  0.3640 -0.1191
  150SAPE   H9X16661   5.999   3.590   9.489  0.0945  0.4937 -0.0118
  150SAPE   H9Y16662   6.117   3.458   9.514 -1.1096  0.5059  1.4243
  150SAPE  C31016663   6.166   3.606   9.358 -0.1681 -0.0301 -0.4285
  150SAPE  H10X16664   6.172   3.716   9.357  2.6538 -0.1282  1.7892
  150SAPE  H10Y16665   6.106   3.582   9.267  0.3235 -0.5655 -0.6149
  150SAPE  C31116666   6.309   3.550   9.343 -0.1050  0.0016  0.1571
  150SAPE  H11X16667   6.332   3.450   9.386  0.4124 -0.9504 -2.2647
  150SAPE  H11Y16668   6.375   3.609   9.410 -1.1831 -0.1704  1.3830
  150SAPE  C31216669   6.358   3.553   9.197  0.3596 -0.7655  0.1872
  150SAPE  H12X16670   6.285   3.507   9.127 -1.5591 -0.2960  1.8484
  150SAPE  H12Y16671   6.455   3.503   9.176  2.7487  3.7888 -0.2898
  150SAPE  C31316672   6.365   3.699   9.156  0.7838 -0.1780 -0.1075
  150SAPE  H13X16673   6.427   3.770   9.215  0.8528  1.5646 -2.1973
  150SAPE  H13Y16674   6.269   3.754   9.167  1.3697  0.6238  1.0236
  150SAPE  C31416675   6.397   3.710   9.006  0.5131  0.2947 -0.8330
  150SAPE  H14X16676   6.327   3.654   8.941 -0.0480  2.4429 -2.1502
  150SAPE  H14Y16677   6.498   3.665   8.991  0.1296 -1.0385  0.5096
  150SAPE  C31516678   6.401   3.857   8.959  0.2226  0.4711 -0.1588
  150SAPE  H15X16679   6.440   3.934   9.029  1.6935 -1.7090  1.4749
  150SAPE  H15Y16680   6.294   3.876   8.935  0.3668  1.7367  0.1776
  150SAPE  C31616681   6.465   3.866   8.813  0.0731  0.1030 -0.6909
  150SAPE  H16X16682   6.570   3.833   8.828 -0.2464 -0.8869 -0.5514
  150SAPE  H16Y16683   6.464   3.972   8.782 -1.7448 -0.0141 -1.0817
  150SAPE  C31716684   6.383   3.799   8.698 -0.1817 -0.0415 -0.7825
  150SAPE  H17X16685   6.281   3.841   8.685 -0.6843 -1.4447 -1.6360
  150SAPE  H17Y16686   6.374   3.690   8.720 -1.8899  0.6809  2.2937
  150SAPE  C31816687   6.450   3.824   8.562  0.1754 -0.0513 -0.5685
  150SAPE  H18X16688   6.506   3.730   8.542  1.6428  0.2428  2.0260
  150SAPE  H18Y16689   6.532   3.900   8.559 -1.3006  1.6428  0.7633
  150SAPE  H18Z16690   6.378   3.848   8.481 -1.3748  1.6147  1.2559
  151SAPE     N16691   2.719   0.249  10.659  0.1495 -0.0905  0.6792
  151SAPE   HN116692   2.652   0.246  10.739 -1.2249 -1.0001 -0.4957
  151SAPE   HN216693   2.802   0.195  10.691 -0.4737  0.3662  3.2475
  151SAPE   HN316694   2.738   0.351  10.645 -0.8947 -0.0951 -0.8357
  151SAPE   C1216695   2.662   0.190  10.529  1.0082  0.6409 -0.0636
  151SAPE  H12A16696   2.566   0.244  10.524  0.3455 -0.4028  1.1207
  151SAPE  H12B16697   2.643   0.081  10.540  0.7575  0.9006  2.4587
  151SAPE   C1116698   2.752   0.225  10.412  0.6542  0.1388 -0.0596
  151SAPE  H11A16699   2.798   0.324  10.431 -0.0047  0.5713 -0.7172
  151SAPE  H11B16700   2.678   0.222  10.329 -0.3012  1.3313  0.7343
  151SAPE     P16701   2.999   0.156  10.371  0.2674 -0.0442  0.0633
  151SAPE   O1316702   3.024   0.270  10.462  0.1826  0.5927 -0.0914
  151SAPE   O1416703   3.070   0.028  10.393  0.5416 -0.4138  0.0331
  151SAPE   O1216704   2.849   0.119  10.378  0.4459 -0.0578 -0.0537
  151SAPE   O1116705   3.032   0.207  10.227  0.1552  0.4306  0.3915
  151SAPE    C116706   3.006   0.129  10.107  0.1955 -1.1241 -0.4979
  151SAPE    HA16707   3.082   0.048  10.104  1.0683 -0.2785 -1.6616
  151SAPE    HB16708   2.907   0.078  10.109  0.6732 -2.0758 -0.8754
  151SAPE    C216709   3.025   0.216   9.988  0.2230  0.4695 -0.0554
  151SAPE    HS16710   3.131   0.249   9.995  0.8688 -1.3308 -0.9664
  151SAPE   O2116711   2.930   0.322   9.980 -0.0016 -0.3241  0.1161
  151SAPE   C2116712   2.957   0.441  10.020  0.6581  1.6513  0.9490
  151SAPE   O2216713   3.071   0.475  10.058  0.1318  0.1253  0.0447
  151SAPE   C2216714   2.830   0.532  10.009 -0.1427  0.3152 -0.0982
  151SAPE   H2R16715   2.833   0.563   9.903 -0.3134 -1.6388 -0.6957
  151SAPE   H2S16716   2.743   0.468  10.034  0.0608  0.3373  0.6859
  151SAPE    C316717   3.016   0.149   9.847 -0.3034  0.6684 -1.1672
  151SAPE    HX16718   2.911   0.112   9.844 -1.0351  2.6060 -0.1769
  151SAPE    HY16719   3.084   0.061   9.845 -0.7629  0.3049 -0.8526
  151SAPE   O3116720   3.036   0.237   9.735  0.0071 -0.3658  0.5382
  151SAPE   C3116721   3.161   0.269   9.714  0.1122 -0.0663 -0.0743
  151SAPE   O3216722   3.259   0.224   9.772  0.2159  0.2118  0.4808
  151SAPE   C3216723   3.154   0.366   9.601  0.7329  0.0146 -0.1239
  151SAPE   H2X16724   3.255   0.412   9.599 -0.2822  2.2501 -2.1615
  151SAPE   H2Y16725   3.076   0.443   9.618  0.2103 -0.6489  0.5330
  151SAPE   C2316726   2.825   0.643  10.108 -0.3241 -0.6693 -0.7294
  151SAPE   H3R16727   2.920   0.701  10.108 -0.4119 -0.5017 -2.2140
  151SAPE   H3S16728   2.821   0.595  10.208 -0.2336 -1.3384 -1.0451
  151SAPE   C2416729   2.709   0.740  10.097 -0.8423 -0.6728 -0.3503
  151SAPE   H4R16730   2.711   0.814  10.179 -0.3204 -0.5637 -0.4596
  151SAPE   H4S16731   2.618   0.678  10.112 -0.5240 -1.5153 -1.7146
  151SAPE   C2516732   2.707   0.814   9.964 -0.0292  0.7921  0.2623
  151SAPE   H5R16733   2.799   0.868   9.936  0.6128 -0.7812 -0.7660
  151SAPE   C2616734   2.598   0.828   9.884  0.3054  0.2260 -1.1737
  151SAPE   H6R16735   2.615   0.896   9.800 -1.2606  1.2471 -0.6779
  151SAPE   C2716736   2.461   0.762   9.907 -0.3917 -0.0751 -0.1936
  151SAPE   H7R16737   2.383   0.824   9.957 -0.3149 -0.0232 -0.1366
  151SAPE   H7S16738   2.469   0.666   9.962 -3.3496 -0.1638  0.1144
  151SAPE   C2816739   2.424   0.731   9.761  0.6698  0.9092 -0.1747
  151SAPE   H8R16740   2.361   0.805   9.710 -0.2626 -1.1061 -2.0648
  151SAPE   C2916741   2.452   0.617   9.697  0.0478 -0.4279 -0.4092
  151SAPE   H9R16742   2.421   0.612   9.592  0.0378 -0.3585 -0.4096
  151SAPE  C21016743   2.517   0.492   9.748 -0.3778 -0.0568  0.1758
  151SAPE  H10R16744   2.429   0.427   9.765  1.4732 -2.4146  0.9514
  151SAPE  H10S16745   2.569   0.511   9.845 -0.9089  0.3951  0.3742
  151SAPE  C21116746   2.614   0.426   9.656 -0.0774 -0.2099  0.6422
  151SAPE  H11R16747   2.719   0.444   9.682  0.1279 -1.3275  0.6285
  151SAPE  C21216748   2.590   0.336   9.557 -0.0859 -0.2598 -0.0959
  151SAPE  H12R16749   2.677   0.306   9.496 -0.1328 -1.6755  0.5135
  151SAPE  C21316750   2.453   0.297   9.521 -0.3352 -0.0820  0.0529
  151SAPE  H13R16751   2.399   0.390   9.492  2.0964  0.7957 -1.8502
  151SAPE  H13S16752   2.397   0.254   9.607 -2.1839  0.0196 -1.0718
  151SAPE  C21416753   2.446   0.191   9.415  0.6721 -0.1042 -0.4062
  151SAPE  H14R16754   2.457   0.092   9.461 -1.0983 -0.1059  0.0406
  151SAPE  C21516755   2.417   0.201   9.288  0.5386  1.0044  0.0159
  151SAPE  H15R16756   2.425   0.112   9.224 -2.6367  1.9437 -1.8185
  151SAPE  C21616757   2.378   0.327   9.209  0.2657 -0.3483  0.2419
  151SAPE  H16R16758   2.401   0.413   9.275 -3.5902 -1.9456  3.9296
  151SAPE  H16S16759   2.267   0.332   9.199  0.3670  0.7696 -0.4893
  151SAPE  C21716760   2.450   0.362   9.075 -0.4235 -0.3491 -0.3123
  151SAPE  H17R16761   2.556   0.348   9.102 -0.2840 -0.0341 -0.6950
  151SAPE  H17S16762   2.436   0.468   9.043  1.5915  0.2362  0.6976
  151SAPE  C21816763   2.407   0.262   8.961 -1.1408  0.1395  0.2280
  151SAPE  H18R16764   2.298   0.259   8.937 -0.8622  2.2941 -1.4644
  151SAPE  H18S16765   2.432   0.164   9.006  1.6456  0.1203 -1.2716
  151SAPE  C21916766   2.497   0.278   8.831 -0.4970  0.6781 -0.2784
  151SAPE  H19R16767   2.457   0.205   8.758 -2.4954  1.0031  0.4658
  151SAPE  H19S16768   2.600   0.249   8.859 -0.5190  1.0521  0.1896
  151SAPE  C22016769   2.484   0.411   8.754 -0.3024  0.1224  0.1668
  151SAPE  H20R16770   2.380   0.450   8.761  0.1733  1.5000 -0.2142
  151SAPE  H20S16771   2.526   0.403   8.651  2.9007  0.1958  1.4017
  151SAPE  H20T16772   2.545   0.492   8.799  0.5270 -0.0280 -0.6517
  151SAPE   C3316773   3.138   0.300   9.464  0.4083  0.1068 -0.1405
  151SAPE   H3X16774   3.205   0.212   9.464 -1.9300 -1.7586  1.4816
  151SAPE   H3Y16775   3.169   0.361   9.376 -2.3738  2.9712  0.7868
  151SAPE   C3416776   2.997   0.267   9.428 -0.3675  0.6226 -0.1555
  151SAPE   H4X16777   2.944   0.363   9.412 -2.1665  0.4152  4.0181
  151SAPE   H4Y16778   2.941   0.225   9.514  0.8691  0.2243  0.4691
  151SAPE   C3516779   2.987   0.173   9.307 -0.3928  0.5538 -0.2151
  151SAPE   H5X16780   2.991   0.068   9.343  0.9257  1.3016  1.9776
  151SAPE   H5Y16781   3.081   0.188   9.249 -0.1607 -0.3200 -0.0765
  151SAPE   C3616782   2.860   0.205   9.225 -0.4492  0.9397  0.1138
  151SAPE   H6X16783   2.858   0.312   9.197 -2.6391  0.5805 -1.1740
  151SAPE   H6Y16784   2.772   0.177   9.287  0.0799 -2.8117 -0.6901
  151SAPE   C3716785   2.840   0.140   9.091 -0.6498  0.3164  0.0172
  151SAPE   H7X16786   2.743   0.180   9.053 -1.2413 -1.7894 -0.7370
  151SAPE   H7Y16787   2.840   0.030   9.106  0.5564  0.3442  0.3063
  151SAPE   C3816788   2.951   0.174   8.991 -0.8543  0.3751 -0.3375
  151SAPE   H8X16789   3.043   0.123   9.027 -2.3724 -1.7814  0.5980
  151SAPE   H8Y16790   2.967   0.284   8.982 -1.6120  0.4315 -1.0317
  151SAPE   C3916791   2.923   0.112   8.849 -0.1488  0.3263 -0.4179
  151SAPE   H9X16792   2.817   0.139   8.829 -0.2798  1.6923  1.8934
  151SAPE   H9Y16793   2.936   0.003   8.860 -2.1434  0.0714 -0.3803
  151SAPE  C31016794   3.017   0.168   8.747 -0.0570 -0.1623  0.1764
  151SAPE  H10X16795   3.026   0.097   8.662 -2.6931  0.2074 -0.4588
  151SAPE  H10Y16796   3.122   0.181   8.780 -0.2406 -0.5616  0.9253
  151SAPE  C31116797   2.978   0.305   8.702  0.0517 -0.3032  0.0001
  151SAPE  H11X16798   3.070   0.360   8.674  0.5657 -0.9449  0.4266
  151SAPE  H11Y16799   2.934   0.365   8.784  0.1747 -0.4497  0.1736
  151SAPE  C31216800   2.875   0.323   8.587  0.1155 -1.2830  0.3249
  151SAPE  H12X16801   2.779   0.273   8.613 -1.4172  1.7096  0.6794
  151SAPE  H12Y16802   2.912   0.286   8.489  1.4239  1.0147 -0.0829
  151SAPE  C31316803   2.839   0.468   8.574 -0.2281  0.2282  0.8072
  151SAPE  H13X16804   2.927   0.536   8.581  1.2576 -1.5215 -0.3285
  151SAPE  H13Y16805   2.787   0.489   8.669  0.7284  0.4490  1.2862
  151SAPE  C31416806   2.741   0.498   8.465  0.8095 -0.8743  0.5829
  151SAPE  H14X16807   2.739   0.608   8.453  1.3202 -0.8741  0.4817
  151SAPE  H14Y16808   2.638   0.466   8.490  0.0097  0.5320 -0.8373
  151SAPE  C31516809   2.774   0.427   8.325  0.4610 -0.0538 -0.7684
  151SAPE  H15X16810   2.753   0.321   8.352  1.7166 -0.5726 -1.7864
  151SAPE  H15Y16811   2.881   0.446   8.302  0.1319 -1.2956 -3.4333
  151SAPE  C31616812   2.682   0.469   8.221  0.7997 -0.0476  0.7532
  151SAPE  H16X16813   2.706   0.573   8.190 -0.9250  0.1760  0.1076
  151SAPE  H16Y16814   2.577   0.461   8.258  0.9576 -2.9560  0.6290
  151SAPE  C31716815   2.712   0.390   8.090 -0.0176 -0.2382  0.5040
  151SAPE  H17X16816   2.635   0.409   8.012  1.6522 -1.4363 -1.5028
  151SAPE  H17Y16817   2.702   0.280   8.101  0.7223 -0.3963 -0.3658
  151SAPE  C31816818   2.844   0.421   8.020 -0.7666 -0.3707  0.1612
  151SAPE  H18X16819   2.933   0.410   8.086 -1.2603 -0.3323  0.8356
  151SAPE  H18Y16820   2.844   0.525   7.980 -2.9390  0.1829  1.5249
  151SAPE  H18Z16821   2.853   0.350   7.935  0.3835  0.3334 -0.3093
  152SAPE     N16822   4.808   0.635  10.549 -0.2520  0.1005 -0.1780
  152SAPE   HN116823   4.888   0.575  10.522 -0.6395  0.3658 -1.9643
  152SAPE   HN216824   4.807   0.705  10.472  0.2855  0.5222  0.1942
  152SAPE   HN316825   4.828   0.686  10.638 -0.3971 -2.5429  1.4105
  152SAPE   C1216826   4.677   0.565  10.550  0.0814 -0.6475  0.0340
  152SAPE  H12A16827   4.639   0.564  10.446  3.2304 -0.4034 -1.1732
  152SAPE  H12B16828   4.612   0.623  10.618  0.2260 -0.5832  0.1189
  152SAPE   C1116829   4.703   0.417  10.588 -0.0839 -0.6053  0.6534
  152SAPE  H11A16830   4.605   0.374  10.556  0.5435  0.7114 -3.2972
  152SAPE  H11B16831   4.707   0.402  10.698 -0.7715  1.3411  0.9632
  152SAPE     P16832   4.833   0.211  10.539  0.1378 -0.2360  0.2655
  152SAPE   O1316833   4.979   0.181  10.533  0.6555  0.1273 -0.0877
  152SAPE   O1416834   4.769   0.176  10.664  0.4523  0.0142 -0.5242
  152SAPE   O1216835   4.813   0.364  10.513 -0.9355  0.3621  0.8601
  152SAPE   O1116836   4.753   0.143  10.421 -0.1855  0.2258  0.0602
  152SAPE    C116837   4.758   0.217  10.298  0.1851 -0.5300  0.4248
  152SAPE    HA16838   4.703   0.312  10.314 -0.4577 -1.0253  1.1838
  152SAPE    HB16839   4.864   0.234  10.268  0.0372 -1.3069 -0.5807
  152SAPE    C216840   4.697   0.140  10.185  0.3691 -0.0426 -0.1039
  152SAPE    HS16841   4.752   0.045  10.167  1.3437  0.3572  0.7087
  152SAPE   O2116842   4.698   0.213  10.060  0.1700  0.3822 -0.1101
  152SAPE   C2116843   4.808   0.200   9.981 -0.0959  0.3357  0.5128
  152SAPE   O2216844   4.904   0.137  10.019  0.6011 -0.3611  0.3433
  152SAPE   C2216845   4.796   0.269   9.847  0.1767  0.4883  0.3041
  152SAPE   H2R16846   4.689   0.289   9.823  0.0572 -0.5741 -0.0852
  152SAPE   H2S16847   4.847   0.366   9.860  0.6724  0.5032 -1.6612
  152SAPE    C316848   4.553   0.106  10.226  0.2928  0.5093  0.7921
  152SAPE    HX16849   4.503   0.201  10.255  1.9230  1.4848  0.4381
  152SAPE    HY16850   4.554   0.038  10.315  0.4251  0.3480  0.6664
  152SAPE   O3116851   4.479   0.049  10.116  0.6367  0.2897 -0.0860
  152SAPE   C3116852   4.521  -0.066  10.087 -0.4502  0.5635  0.0977
  152SAPE   O3216853   4.572  -0.146  10.167  0.3594 -0.0391 -0.0205
  152SAPE   C3216854   4.469  -0.089   9.942  0.0402  0.8810 -0.2300
  152SAPE   H2X16855   4.401  -0.008   9.909  0.7351  1.8474  0.6884
  152SAPE   H2Y16856   4.395  -0.172   9.937 -0.4522  1.4091 -1.9047
  152SAPE   C2316857   4.857   0.207   9.719  0.3715 -0.7807  0.1737
  152SAPE   H3R16858   4.809   0.109   9.696 -0.1395 -0.6379  0.6311
  152SAPE   H3S16859   4.967   0.202   9.735  0.6989 -1.2645 -2.1128
  152SAPE   C2416860   4.846   0.313   9.609 -0.1083  0.3246  0.0261
  152SAPE   H4R16861   4.919   0.395   9.623  1.6370 -0.8356 -2.0749
  152SAPE   H4S16862   4.741   0.349   9.617 -0.4572 -0.5871 -0.3235
  152SAPE   C2516863   4.858   0.249   9.473 -0.2403 -0.4752 -0.2358
  152SAPE   H5R16864   4.965   0.238   9.447 -0.1122 -4.0488  1.4069
  152SAPE   C2616865   4.761   0.202   9.389  1.4129  0.6047  0.9660
  152SAPE   H6R16866   4.797   0.171   9.290  0.2412  3.1757 -0.3318
  152SAPE   C2716867   4.607   0.199   9.413  0.0336 -0.2368 -0.3101
  152SAPE   H7R16868   4.566   0.291   9.367  1.4512  0.2716 -0.5858
  152SAPE   H7S16869   4.583   0.204   9.521  0.0042  1.9602 -0.4106
  152SAPE   C2816870   4.540   0.071   9.348 -0.2105 -1.0248  0.4123
  152SAPE   H8R16871   4.506  -0.004   9.422 -1.6245 -1.6462 -0.8380
  152SAPE   C2916872   4.515   0.041   9.213 -0.0872 -0.0753  0.2141
  152SAPE   H9R16873   4.472  -0.058   9.190  0.5658 -0.6486  1.3897
  152SAPE  C21016874   4.534   0.140   9.095  0.0392 -0.1870 -0.5270
  152SAPE  H10R16875   4.639   0.122   9.061  0.2505  1.5745 -0.8716
  152SAPE  H10S16876   4.521   0.246   9.126 -0.7923 -0.4062 -0.1347
  152SAPE  C21116877   4.438   0.107   8.977  0.2585  0.3261  0.3180
  152SAPE  H11R16878   4.404   0.002   8.975  2.0139 -0.2418 -0.0533
  152SAPE  C21216879   4.407   0.197   8.873 -0.5510  0.2449  0.1253
  152SAPE  H12R16880   4.353   0.157   8.786  0.7226 -2.3231  0.4804
  152SAPE  C21316881   4.473   0.336   8.864 -0.5169 -0.6186  0.1114
  152SAPE  H13R16882   4.546   0.332   8.781  0.3615 -0.9321  0.8971
  152SAPE  H13S16883   4.518   0.362   8.962 -0.1109  1.1859 -0.5309
  152SAPE  C21416884   4.376   0.443   8.833  0.4988  0.4396  0.7311
  152SAPE  H14R16885   4.316   0.480   8.917 -0.3573  0.5039  0.0974
  152SAPE  C21516886   4.369   0.506   8.715 -0.0985  0.3666 -0.6564
  152SAPE  H15R16887   4.295   0.587   8.710 -0.1041  0.3217 -1.2745
  152SAPE  C21616888   4.442   0.476   8.590 -0.0193 -0.1272  0.5529
  152SAPE  H16R16889   4.489   0.376   8.581 -2.0947 -1.1690  0.8721
  152SAPE  H16S16890   4.522   0.550   8.569  0.4171 -0.4726  0.9866
  152SAPE  C21716891   4.330   0.490   8.479 -0.3802  0.6270 -0.1222
  152SAPE  H17R16892   4.307   0.592   8.444  1.0682  0.6275 -1.1036
  152SAPE  H17S16893   4.236   0.447   8.519 -0.2875  2.2424  1.8860
  152SAPE  C21816894   4.362   0.409   8.350 -0.3533 -0.7210 -0.0716
  152SAPE  H18R16895   4.377   0.306   8.388  1.1783 -0.1495  0.8969
  152SAPE  H18S16896   4.456   0.453   8.312 -0.9634  1.9975  1.4233
  152SAPE  C21916897   4.240   0.413   8.260  0.5742 -0.0901  0.1023
  152SAPE  H19R16898   4.215   0.521   8.272 -1.2485 -0.2052 -2.2039
  152SAPE  H19S16899   4.156   0.363   8.313  1.8526  0.4749  2.7379
  152SAPE  C22016900   4.263   0.378   8.115 -0.5118  0.1401 -0.0805
  152SAPE  H20R16901   4.287   0.472   8.059 -2.7833  1.0681  0.4507
  152SAPE  H20S16902   4.167   0.352   8.064  0.8607 -3.3359 -1.0332
  152SAPE  H20T16903   4.343   0.302   8.102 -2.3754 -1.8480 -0.2516
  152SAPE   C3316904   4.578  -0.110   9.835  1.1276 -0.2832  0.5200
  152SAPE   H3X16905   4.640  -0.195   9.871  2.7607  1.8087  2.8038
  152SAPE   H3Y16906   4.646  -0.023   9.831  0.5945  0.0809 -0.8880
  152SAPE   C3416907   4.528  -0.140   9.695  0.3439 -0.2807  0.4210
  152SAPE   H4X16908   4.478  -0.049   9.656  1.5658 -0.4727 -1.6606
  152SAPE   H4Y16909   4.444  -0.213   9.702 -1.5405  2.0407  3.2440
  152SAPE   C3516910   4.626  -0.184   9.594 -0.2681  0.4315  0.2085
  152SAPE   H5X16911   4.712  -0.237   9.640  1.0393  1.6397 -0.8030
  152SAPE   H5Y16912   4.673  -0.086   9.570  1.0686 -0.3705 -0.5202
  152SAPE   C3616913   4.558  -0.258   9.473  0.5256 -0.1413 -0.0947
  152SAPE   H6X16914   4.481  -0.198   9.421 -0.4771 -1.0274  0.3556
  152SAPE   H6Y16915   4.502  -0.346   9.512 -0.3299  0.0550 -0.8773
  152SAPE   C3716916   4.667  -0.312   9.378 -0.0306 -0.2981 -0.8419
  152SAPE   H7X16917   4.728  -0.390   9.428  1.4324  0.8014 -0.8673
  152SAPE   H7Y16918   4.738  -0.229   9.359 -0.6237  0.2741 -0.5820
  152SAPE   C3816919   4.603  -0.372   9.253  0.2196  0.0807  0.4724
  152SAPE   H8X16920   4.500  -0.336   9.231 -0.4782 -2.0993  0.1343
  152SAPE   H8Y16921   4.585  -0.479   9.273  1.6683 -0.8197 -2.6697
  152SAPE   C3916922   4.682  -0.351   9.120  0.1590  0.5448  0.0233
  152SAPE   H9X16923   4.787  -0.368   9.153  0.5380 -1.5197 -2.1217
  152SAPE   H9Y16924   4.685  -0.249   9.077  2.5722 -0.4609 -2.3453
  152SAPE  C31016925   4.650  -0.463   9.013  0.0009 -0.2752 -0.4608
  152SAPE  H10X16926   4.660  -0.568   9.049  1.2431  0.2764  0.8435
  152SAPE  H10Y16927   4.736  -0.450   8.944  0.9220  2.1297  1.0713
  152SAPE  C31116928   4.519  -0.449   8.931  0.4205  0.0716 -0.8011
  152SAPE  H11X16929   4.504  -0.349   8.887  1.5473  1.1933  1.2471
  152SAPE  H11Y16930   4.441  -0.464   9.009 -0.7982  1.9668 -1.6215
  152SAPE  C31216931   4.499  -0.550   8.831 -0.4510  0.4996  0.0026
  152SAPE  H12X16932   4.389  -0.563   8.826 -0.3280 -0.0653 -1.5237
  152SAPE  H12Y16933   4.541  -0.650   8.856 -2.5214 -0.7594 -1.4019
  152SAPE  C31316934   4.553  -0.517   8.694 -0.2157  0.4403 -0.2558
  152SAPE  H13X16935   4.664  -0.513   8.706 -0.2539 -1.1214  0.6798
  152SAPE  H13Y16936   4.522  -0.416   8.659 -0.8691  0.6677  0.9476
  152SAPE  C31416937   4.518  -0.611   8.578  0.4625  0.6506  0.0238
  152SAPE  H14X16938   4.408  -0.601   8.565  0.6897  0.6674 -2.1629
  152SAPE  H14Y16939   4.554  -0.712   8.606  0.5364  0.5462 -0.4431
  152SAPE  C31516940   4.565  -0.569   8.439  0.5391 -0.0686  0.2100
  152SAPE  H15X16941   4.553  -0.461   8.414  0.4843 -0.4736 -1.6416
  152SAPE  H15Y16942   4.538  -0.621   8.344 -0.6184  1.0822 -0.1077
  152SAPE  C31616943   4.719  -0.579   8.423  0.1012  0.2990  0.3367
  152SAPE  H16X16944   4.755  -0.664   8.485 -0.2916  0.0776  0.2684
  152SAPE  H16Y16945   4.768  -0.493   8.472 -1.1259  0.2271  1.7291
  152SAPE  C31716946   4.777  -0.614   8.276 -0.1405  0.2179  0.4797
  152SAPE  H17X16947   4.865  -0.549   8.258  1.9314 -2.4386  0.6503
  152SAPE  H17Y16948   4.703  -0.572   8.205 -0.9365 -0.7082  0.7539
  152SAPE  C31816949   4.811  -0.765   8.241 -0.4707 -0.0303 -0.8454
  152SAPE  H18X16950   4.720  -0.828   8.253  0.6860 -1.5296  0.1927
  152SAPE  H18Y16951   4.893  -0.806   8.304 -1.9746 -2.2360 -0.2453
  152SAPE  H18Z16952   4.853  -0.780   8.139 -3.0220 -0.2709 -1.8930
  153SAPE     N16953   4.810   1.249  10.619  0.6122 -0.0683 -0.0377
  153SAPE   HN116954   4.884   1.284  10.555  1.2965  0.7370  1.1556
  153SAPE   HN216955   4.847   1.227  10.714 -0.5374  0.0449  0.4475
  153SAPE   HN316956   4.761   1.170  10.572 -0.5899  1.8513 -2.0923
  153SAPE   C1216957   4.704   1.353  10.626 -0.2027  1.3098  0.9801
  153SAPE  H12A16958   4.752   1.448  10.659 -2.7896  2.7369  0.8343
  153SAPE  H12B16959   4.627   1.325  10.701 -0.5721  1.2674  0.5883
  153SAPE   C1116960   4.642   1.382  10.491  0.3885 -0.9997  0.0813
  153SAPE  H11A16961   4.716   1.419  10.417  1.7217  1.2854  2.5107
  153SAPE  H11B16962   4.563   1.457  10.512  0.9672 -0.6921  1.1633
  153SAPE     P16963   4.455   1.214  10.433 -0.0341  0.3270 -0.4007
  153SAPE   O1316964   4.468   1.092  10.352  0.5061 -0.1721 -0.3495
  153SAPE   O1416965   4.405   1.216  10.577 -0.0423  0.2960  0.4876
  153SAPE   O1216966   4.601   1.258  10.443  0.4162  0.2505 -0.1156
  153SAPE   O1116967   4.388   1.330  10.354 -0.5217 -0.1097  0.5237
  153SAPE    C116968   4.247   1.324  10.325 -0.0775  0.3932 -0.8867
  153SAPE    HA16969   4.185   1.283  10.408 -1.3408  0.7336 -1.6495
  153SAPE    HB16970   4.213   1.428  10.306 -0.1377  0.6575  0.6343
  153SAPE    C216971   4.220   1.239  10.197  0.4168  0.1023 -0.0537
  153SAPE    HS16972   4.275   1.143  10.203 -0.1995 -0.1715  1.7214
  153SAPE   O2116973   4.260   1.317  10.081  0.3473  0.0018 -0.4710
  153SAPE   C2116974   4.365   1.269  10.016 -0.4002 -0.1056  0.4050
  153SAPE   O2216975   4.413   1.156  10.025  0.4724 -0.1508  0.4972
  153SAPE   C2216976   4.402   1.377   9.916  0.4552  0.3741 -0.0383
  153SAPE   H2R16977   4.373   1.476   9.958  0.1507  0.3613 -0.2206
  153SAPE   H2S16978   4.513   1.375   9.903  0.6103  0.2821  1.2102
  153SAPE    C316979   4.072   1.211  10.169  0.6222 -0.3194  0.5402
  153SAPE    HX16980   4.021   1.310  10.165 -0.9280 -1.0351  2.0104
  153SAPE    HY16981   4.023   1.154  10.251 -1.4684  0.6699  0.0051
  153SAPE   O3116982   4.050   1.136  10.040  0.0445 -0.0679 -0.9775
  153SAPE   C3116983   4.104   1.009  10.024 -0.1805  0.1707  0.3188
  153SAPE   O3216984   4.161   0.952  10.115  0.2277  0.5559  0.0263
  153SAPE   C3216985   4.077   0.963   9.885 -0.3983  0.0954 -0.0571
  153SAPE   H2X16986   4.140   1.027   9.819 -0.8706  1.3717  0.7132
  153SAPE   H2Y16987   3.968   0.974   9.866 -0.6616  0.4597  1.6106
  153SAPE   C2316988   4.324   1.360   9.781  0.4242 -0.3645 -0.1089
  153SAPE   H3R16989   4.324   1.452   9.719  0.1869 -0.7379 -0.6715
  153SAPE   H3S16990   4.217   1.341   9.804  0.6468  2.4256  3.6398
  153SAPE   C2416991   4.381   1.245   9.695  1.4262 -0.1118  0.0159
  153SAPE   H4R16992   4.397   1.152   9.752  0.0289 -0.3319  0.0700
  153SAPE   H4S16993   4.484   1.273   9.665  1.3262 -0.1873 -0.3978
  153SAPE   C2516994   4.288   1.199   9.592 -0.2321  0.0674 -0.2320
  153SAPE   H5R16995   4.192   1.161   9.630 -0.3169 -0.4000 -0.8893
  153SAPE   C2616996   4.298   1.218   9.460 -0.0019 -0.1234  0.5472
  153SAPE   H6R16997   4.234   1.164   9.389 -1.1392  3.4590 -1.2767
  153SAPE   C2716998   4.404   1.295   9.387  0.0629  0.1400 -0.1434
  153SAPE   H7R16999   4.465   1.337   9.471 -0.1443  1.2411 -0.5276
  153SAPE   H7S17000   4.367   1.385   9.332  0.8716 -0.3305 -1.4730
  153SAPE   C2817001   4.485   1.206   9.294  0.2802  0.5845  0.8341
  153SAPE   H8R17002   4.534   1.118   9.338 -0.8629 -0.0112  0.9374
  153SAPE   C2917003   4.504   1.236   9.166 -0.0374 -0.2483 -0.5606
  153SAPE   H9R17004   4.547   1.158   9.102 -2.8426 -2.2274 -0.1326
  153SAPE  C21017005   4.453   1.346   9.084 -0.2437 -0.3428 -0.3775
  153SAPE  H10R17006   4.518   1.350   8.994  0.0283 -2.2673 -0.2734
  153SAPE  H10S17007   4.478   1.438   9.141 -0.6118  0.0087 -0.7803
  153SAPE  C21117008   4.311   1.341   9.045  0.1561  0.8181 -0.1253
  153SAPE  H11R17009   4.255   1.257   9.089  1.1528 -0.1105 -0.6064
  153SAPE  C21217010   4.258   1.431   8.961  0.0272 -0.6820  0.1013
  153SAPE  H12R17011   4.152   1.418   8.933 -0.8695  4.2678  0.8543
  153SAPE  C21317012   4.333   1.543   8.891  0.3603  0.0599 -0.1221
  153SAPE  H13R17013   4.441   1.535   8.916  0.5959 -0.3079 -1.2369
  153SAPE  H13S17014   4.301   1.635   8.944 -1.3169  0.4300 -1.7407
  153SAPE  C21417015   4.301   1.567   8.741  0.4781 -0.4460 -0.1174
  153SAPE  H14R17016   4.197   1.577   8.708  0.9449 -1.3421 -1.9451
  153SAPE  C21517017   4.404   1.582   8.654  0.1226  0.9340 -0.0543
  153SAPE  H15R17018   4.387   1.593   8.546  2.0642  2.8302 -0.1944
  153SAPE  C21617019   4.550   1.580   8.698  0.1935 -0.1882  0.0662
  153SAPE  H16R17020   4.582   1.485   8.747 -0.5223 -0.4187  0.0797
  153SAPE  H16S17021   4.559   1.659   8.775  1.2786 -0.0882 -0.1514
  153SAPE  C21717022   4.659   1.594   8.589 -0.1954 -0.0971  0.2170
  153SAPE  H17R17023   4.640   1.521   8.508 -0.9117 -0.2108  0.4799
  153SAPE  H17S17024   4.760   1.593   8.634 -0.1036  1.7265  0.0889
  153SAPE  C21817025   4.648   1.734   8.523 -0.2395  0.7183  0.7120
  153SAPE  H18R17026   4.673   1.805   8.604  2.1848  2.3052 -1.3667
  153SAPE  H18S17027   4.545   1.746   8.483  0.9137  2.1327 -1.9856
  153SAPE  C21917028   4.745   1.752   8.404  0.0542  0.2030  0.7930
  153SAPE  H19R17029   4.842   1.707   8.434  1.9534  2.2365 -2.1813
  153SAPE  H19S17030   4.770   1.854   8.370  0.6609 -0.2480 -0.1369
  153SAPE  C22017031   4.702   1.681   8.275 -0.0551  0.0892  0.4994
  153SAPE  H20R17032   4.681   1.574   8.296  2.1981 -0.5238 -0.2399
  153SAPE  H20S17033   4.788   1.684   8.205 -0.0242 -0.5381  0.5062
  153SAPE  H20T17034   4.614   1.728   8.226  1.7064  0.4771 -2.3886
  153SAPE   C3317035   4.105   0.812   9.870 -0.6268 -0.2994 -0.2140
  153SAPE   H3X17036   4.050   0.759   9.951 -1.0896 -1.3433 -1.2083
  153SAPE   H3Y17037   4.212   0.787   9.863 -0.7917 -1.0629 -0.0029
  153SAPE   C3417038   4.038   0.772   9.746 -0.5333  1.0909  0.8238
  153SAPE   H4X17039   3.934   0.810   9.733 -0.3231  0.7782 -2.0612
  153SAPE   H4Y17040   4.031   0.662   9.731  1.7244  1.1181 -0.6573
  153SAPE   C3517041   4.117   0.826   9.621  1.1731 -0.1716 -0.1844
  153SAPE   H5X17042   4.225   0.812   9.637  1.2536 -0.1797 -0.7039
  153SAPE   H5Y17043   4.088   0.933   9.607 -1.7600 -1.1010 -1.8137
  153SAPE   C3617044   4.089   0.759   9.490 -0.0091  0.0063  0.6264
  153SAPE   H6X17045   4.097   0.648   9.493 -0.7506 -0.1011 -0.8734
  153SAPE   H6Y17046   4.166   0.795   9.419  0.5599  1.9074  2.1636
  153SAPE   C3717047   3.956   0.794   9.426  0.1748 -0.4422  0.1716
  153SAPE   H7X17048   3.974   0.891   9.374 -1.1067  0.6862  1.7779
  153SAPE   H7Y17049   3.879   0.808   9.505  1.6772  2.7435  1.1532
  153SAPE   C3817050   3.916   0.698   9.312  0.6166  0.7058  0.4473
  153SAPE   H8X17051   3.921   0.592   9.345  0.3745  0.6310  0.2466
  153SAPE   H8Y17052   3.999   0.714   9.240  0.5282 -1.5469 -0.2169
  153SAPE   C3917053   3.784   0.715   9.245  0.0818 -0.7421 -0.6339
  153SAPE   H9X17054   3.771   0.819   9.209  1.7215 -0.5107 -0.6057
  153SAPE   H9Y17055   3.704   0.713   9.321  2.5375  1.6744  2.1454
  153SAPE  C31017056   3.745   0.609   9.145  0.1547  0.6415  0.3580
  153SAPE  H10X17057   3.733   0.507   9.189  1.6350 -0.1545 -1.0374
  153SAPE  H10Y17058   3.829   0.609   9.072 -0.8888 -2.0279 -0.9005
  153SAPE  C31117059   3.626   0.648   9.063 -0.5118 -0.2771  0.5885
  153SAPE  H11X17060   3.541   0.644   9.134  0.1752  0.1487  1.4546
  153SAPE  H11Y17061   3.622   0.571   8.983 -0.2247 -0.8881  1.1535
  153SAPE  C31217062   3.632   0.779   8.988  0.1044  0.6433  0.3628
  153SAPE  H12X17063   3.735   0.813   8.967  0.1383 -0.0738 -0.6513
  153SAPE  H12Y17064   3.584   0.859   9.049 -2.2496 -1.2378  1.0844
  153SAPE  C31317065   3.551   0.772   8.851  0.2457 -0.8811 -0.1311
  153SAPE  H13X17066   3.545   0.878   8.819  1.5494 -1.3710 -2.0994
  153SAPE  H13Y17067   3.451   0.732   8.880 -0.8101  1.5168 -0.3707
  153SAPE  C31417068   3.630   0.688   8.746 -0.3166  0.7584  0.1257
  153SAPE  H14X17069   3.581   0.720   8.651  0.7971  0.8896 -0.4157
  153SAPE  H14Y17070   3.619   0.579   8.762  0.0699  0.7135  0.0879
  153SAPE  C31517071   3.776   0.727   8.715  0.0398  0.0746  1.0545
  153SAPE  H15X17072   3.837   0.694   8.802  1.2295 -0.2030  0.1169
  153SAPE  H15Y17073   3.775   0.838   8.712 -0.1386  0.0124 -2.3102
  153SAPE  C31617074   3.821   0.671   8.580 -0.3189  0.7913 -0.9067
  153SAPE  H16X17075   3.741   0.701   8.509 -2.2717  1.3061  1.4625
  153SAPE  H16Y17076   3.823   0.560   8.586  0.3092  0.6562 -3.2228
  153SAPE  C31717077   3.964   0.739   8.534  0.4063  0.2745 -0.2636
  153SAPE  H17X17078   3.987   0.686   8.439 -2.3569 -2.8391  0.6938
  153SAPE  H17Y17079   4.043   0.709   8.606  3.3839  1.6350 -2.8430
  153SAPE  C31817080   3.973   0.897   8.516  0.2065 -0.2827  0.3982
  153SAPE  H18X17081   3.953   0.938   8.617 -1.1365  3.6961 -1.3585
  153SAPE  H18Y17082   3.894   0.940   8.450  0.9642 -1.7173 -1.4814
  153SAPE  H18Z17083   4.072   0.929   8.479 -0.9181 -0.2560 -2.7844
  154SAPE     N17084   5.849   0.381  10.729  0.0084  0.0827  0.4169
  154SAPE   HN117085   5.928   0.332  10.775  1.3780  2.5692  0.7730
  154SAPE   HN217086   5.834   0.461  10.793 -0.5342 -0.4521  0.9607
  154SAPE   HN317087   5.761   0.326  10.738 -1.6512  2.1301 -2.2387
  154SAPE   C1217088   5.883   0.417  10.586  0.5952  0.3579 -0.9381
  154SAPE  H12A17089   5.885   0.321  10.530  0.8020 -0.6139  0.7107
  154SAPE  H12B17090   5.981   0.468  10.589  2.2261 -2.7469  0.9787
  154SAPE   C1117091   5.767   0.508  10.531  0.1993 -0.8572 -0.0905
  154SAPE  H11A17092   5.675   0.446  10.522  0.5515 -1.4728  0.5218
  154SAPE  H11B17093   5.804   0.536  10.430 -1.1255  3.8619  0.5825
  154SAPE     P17094   5.598   0.686  10.630 -0.0234  0.2089 -0.5073
  154SAPE   O1317095   5.516   0.565  10.644  0.0222  0.2805 -0.2268
  154SAPE   O1417096   5.601   0.774  10.751 -0.0743 -0.6579  0.1042
  154SAPE   O1217097   5.750   0.638  10.600  0.5883 -0.0450 -0.0471
  154SAPE   O1117098   5.569   0.768  10.498 -0.6491 -0.0499 -0.0974
  154SAPE    C117099   5.619   0.897  10.465 -0.0607  0.6326 -0.7884
  154SAPE    HA17100   5.566   0.965  10.536  0.3200 -0.5098  0.6224
  154SAPE    HB17101   5.729   0.896  10.478 -0.1257  2.4947  0.0006
  154SAPE    C217102   5.596   0.937  10.318  0.3257  0.5049 -1.0225
  154SAPE    HS17103   5.488   0.961  10.302  0.4304  1.7822  0.1074
  154SAPE   O2117104   5.631   0.830  10.236 -0.7298 -0.0207  0.0388
  154SAPE   C2117105   5.525   0.748  10.203  0.1763 -0.2770  0.1266
  154SAPE   O2217106   5.406   0.781  10.213  0.0847  0.3334 -0.2915
  154SAPE   C2217107   5.580   0.612  10.160 -0.2517 -0.5456 -0.8411
  154SAPE   H2R17108   5.687   0.616  10.129  1.0174 -0.5141  3.2339
  154SAPE   H2S17109   5.572   0.554  10.254 -0.6160 -0.0091 -0.5409
  154SAPE    C317110   5.684   1.060  10.276  0.3230  0.0922 -0.5163
  154SAPE    HX17111   5.790   1.026  10.271  0.7980  1.4776  0.1235
  154SAPE    HY17112   5.682   1.141  10.351  1.1630 -0.7138  0.3915
  154SAPE   O3117113   5.660   1.119  10.144 -0.0780 -0.0523  0.6691
  154SAPE   C3117114   5.552   1.202  10.147 -0.2123  0.0254  0.5266
  154SAPE   O3217115   5.497   1.245  10.250 -0.3982 -0.3020 -0.0962
  154SAPE   C3217116   5.524   1.244  10.001  0.0031  0.2364 -0.0676
  154SAPE   H2X17117   5.495   1.152   9.946  1.2796  0.1609 -0.6462
  154SAPE   H2Y17118   5.607   1.300   9.952 -1.0280  1.4243 -0.4689
  154SAPE   C2317119   5.491   0.538  10.059  0.3064 -0.6490  0.2321
  154SAPE   H3R17120   5.389   0.543  10.100  0.3458 -0.7569  0.3410
  154SAPE   H3S17121   5.513   0.431  10.041  1.0867 -0.6487  1.1372
  154SAPE   C2417122   5.491   0.603   9.921  1.5072  0.8004  0.0148
  154SAPE   H4R17123   5.436   0.699   9.932 -3.2257 -1.8117  0.4710
  154SAPE   H4S17124   5.434   0.537   9.852 -1.0763  1.9301  0.9874
  154SAPE   C2517125   5.633   0.637   9.874 -0.4496 -0.1020 -0.2206
  154SAPE   H5R17126   5.711   0.573   9.920  0.4134 -0.0013 -1.5101
  154SAPE   C2617127   5.663   0.722   9.768  0.0872 -0.0639  0.1450
  154SAPE   H6R17128   5.768   0.740   9.742  0.0857 -0.0406  0.1537
  154SAPE   C2717129   5.561   0.800   9.696 -0.0904  0.3575 -0.1140
  154SAPE   H7R17130   5.457   0.765   9.712 -0.3234  1.0526 -0.0575
  154SAPE   H7S17131   5.578   0.791   9.587 -1.6380 -3.2728 -0.1211
  154SAPE   C2817132   5.556   0.945   9.742  0.0727  0.6816  0.2264
  154SAPE   H8R17133   5.614   0.977   9.830 -0.3631 -2.6018  1.7934
  154SAPE   C2917134   5.479   1.040   9.683 -0.7229 -0.4058 -0.0776
  154SAPE   H9R17135   5.485   1.145   9.713 -0.4705 -0.8904  1.6520
  154SAPE  C21017136   5.396   1.018   9.565 -0.5875 -1.1372 -0.5068
  154SAPE  H10R17137   5.319   0.949   9.604 -0.9228 -1.7874 -2.2433
  154SAPE  H10S17138   5.448   0.964   9.483  0.4243 -0.1483 -0.5333
  154SAPE  C21117139   5.302   1.130   9.517 -0.5086  0.6018  0.1357
  154SAPE  H11R17140   5.274   1.201   9.597 -3.3634 -0.0717 -0.2214
  154SAPE  C21217141   5.254   1.149   9.393  0.0743 -0.5311  0.6121
  154SAPE  H12R17142   5.180   1.229   9.379 -0.3798 -0.4104  3.3424
  154SAPE  C21317143   5.285   1.079   9.270  0.5481  0.8013 -0.1635
  154SAPE  H13R17144   5.391   1.049   9.258  0.0956 -0.7971 -0.1768
  154SAPE  H13S17145   5.281   1.149   9.184 -0.7346 -0.1945 -0.9381
  154SAPE  C21417146   5.201   0.958   9.247  0.4575 -0.1516 -0.5979
  154SAPE  H14R17147   5.232   0.865   9.296 -0.3807 -0.7299 -1.1705
  154SAPE  C21517148   5.084   0.950   9.177 -0.1024  0.1450 -0.9003
  154SAPE  H15R17149   5.032   0.853   9.171  0.2263 -0.0802 -0.1411
  154SAPE  C21617150   5.030   1.070   9.106 -0.0256  0.3318 -0.4935
  154SAPE  H16R17151   5.109   1.145   9.084  0.6101  0.2890  1.5255
  154SAPE  H16S17152   4.954   1.125   9.166  1.4778  2.0709 -0.1330
  154SAPE  C21717153   4.957   1.045   8.972  0.2329 -0.1866 -0.2594
  154SAPE  H17R17154   4.900   0.953   8.999  1.2306  0.0354  2.7998
  154SAPE  H17S17155   5.042   1.024   8.904  0.3094 -0.7822  0.0159
  154SAPE  C21817156   4.860   1.152   8.924  0.2299 -0.3348 -0.5572
  154SAPE  H18R17157   4.898   1.249   8.962 -1.4511  0.8635 -1.8629
  154SAPE  H18S17158   4.766   1.139   8.983  0.0130  0.5974 -0.6979
  154SAPE  C21917159   4.833   1.160   8.776 -0.0105  0.3402 -0.0954
  154SAPE  H19R17160   4.802   1.063   8.733 -2.6117  1.3282 -0.5179
  154SAPE  H19S17161   4.915   1.193   8.709  0.8350  0.8278  1.1606
  154SAPE  C22017162   4.720   1.250   8.747  0.5468 -0.1355 -0.1132
  154SAPE  H20R17163   4.757   1.351   8.775 -0.3658 -0.4006  2.1082
  154SAPE  H20S17164   4.631   1.220   8.807  0.3600 -1.6694 -1.1326
  154SAPE  H20T17165   4.699   1.249   8.638  0.8170  0.9097 -0.1829
  154SAPE   C3317166   5.404   1.341   9.997 -0.4877  0.2702  0.4069
  154SAPE   H3X17167   5.444   1.442  10.023 -1.1663  0.8038 -0.5571
  154SAPE   H3Y17168   5.326   1.319  10.074 -1.2683  1.5276 -0.0075
  154SAPE   C3417169   5.340   1.348   9.849 -0.2370 -0.1850  1.2261
  154SAPE   H4X17170   5.291   1.250   9.830  0.1577 -0.0773 -0.4988
  154SAPE   H4Y17171   5.424   1.366   9.779 -1.3283 -0.1631 -0.1112
  154SAPE   C3517172   5.217   1.445   9.843  0.5643  0.2071 -0.1077
  154SAPE   H5X17173   5.250   1.523   9.914  1.7706 -0.5953  0.2383
  154SAPE   H5Y17174   5.135   1.386   9.889  1.6302 -0.4556  0.9828
  154SAPE   C3617175   5.181   1.499   9.702 -0.0744 -0.0516 -0.5762
  154SAPE   H6X17176   5.089   1.561   9.706  0.1716  0.2801 -0.0961
  154SAPE   H6Y17177   5.156   1.412   9.637  0.5451 -0.2934 -0.4918
  154SAPE   C3717178   5.297   1.579   9.643 -0.7713 -0.1563  0.2249
  154SAPE   H7X17179   5.379   1.506   9.623  0.1239  0.5792  1.1359
  154SAPE   H7Y17180   5.329   1.661   9.711 -0.7732 -0.1471  0.2144
  154SAPE   C3817181   5.270   1.634   9.499  0.2358  0.8282 -0.1822
  154SAPE   H8X17182   5.356   1.693   9.461  0.3579  0.9432  0.2625
  154SAPE   H8Y17183   5.173   1.687   9.505 -0.4924 -0.4889 -0.0008
  154SAPE   C3917184   5.250   1.523   9.394  0.4914 -0.7161  0.3960
  154SAPE   H9X17185   5.174   1.448   9.424 -0.5137  0.3040  0.4408
  154SAPE   H9Y17186   5.336   1.454   9.385 -0.2116 -1.3844 -1.3780
  154SAPE  C31017187   5.205   1.575   9.258  0.0014  0.0504  0.5728
  154SAPE  H10X17188   5.127   1.653   9.266  1.5410  1.6343  0.3514
  154SAPE  H10Y17189   5.178   1.488   9.195  0.0909  1.5055 -1.5241
  154SAPE  C31117190   5.311   1.663   9.194  0.1931 -0.2443  0.1247
  154SAPE  H11X17191   5.394   1.589   9.202  0.4001  0.1815  2.0789
  154SAPE  H11Y17192   5.342   1.751   9.253  1.7814 -0.9887  0.4104
  154SAPE  C31217193   5.276   1.710   9.057 -0.0961  0.4261  0.3798
  154SAPE  H12X17194   5.219   1.805   9.065  0.7669  0.9244  0.7093
  154SAPE  H12Y17195   5.215   1.636   9.001 -1.4457  0.6445  1.5040
  154SAPE  C31317196   5.395   1.762   8.977 -0.2752 -0.2669 -0.4268
  154SAPE  H13X17197   5.455   1.837   9.032 -1.9549  0.8215 -0.0118
  154SAPE  H13Y17198   5.360   1.823   8.890  2.0518  0.0076 -1.2003
  154SAPE  C31417199   5.481   1.644   8.935  0.1240 -0.8207 -0.2322
  154SAPE  H14X17200   5.426   1.579   8.862 -1.4681 -1.1407  1.2133
  154SAPE  H14Y17201   5.507   1.580   9.022  1.1081 -0.8903 -0.5713
  154SAPE  C31517202   5.602   1.695   8.864  0.4322 -0.1719  0.5555
  154SAPE  H15X17203   5.673   1.754   8.925  1.2655  2.4879 -2.7950
  154SAPE  H15Y17204   5.560   1.757   8.782 -1.8797 -0.2320  1.6557
  154SAPE  C31617205   5.679   1.579   8.804  0.3332  0.6720 -0.2289
  154SAPE  H16X17206   5.618   1.507   8.745  0.9725  1.3972 -1.7821
  154SAPE  H16Y17207   5.714   1.522   8.894  0.9498 -1.8202 -1.9880
  154SAPE  C31717208   5.798   1.623   8.721 -0.0050  0.5752 -0.6160
  154SAPE  H17X17209   5.862   1.689   8.783  0.4854 -0.4911  0.0387
  154SAPE  H17Y17210   5.768   1.682   8.632  3.1696 -1.1827 -2.9866
  154SAPE  C31817211   5.885   1.506   8.679 -0.1413 -0.0120 -0.0350
  154SAPE  H18X17212   5.839   1.410   8.648 -0.3228  1.2694 -3.9608
  154SAPE  H18Y17213   5.952   1.473   8.762 -0.1492 -0.3576 -0.1665
  154SAPE  H18Z17214   5.947   1.534   8.592 -0.2329  0.0709 -0.0735
  155SAPE     N17215   6.026   1.934  10.929  0.2775  0.3612 -0.2894
  155SAPE   HN117216   6.021   1.938  10.825  0.2754 -0.8921 -0.3469
  155SAPE   HN217217   6.041   1.832  10.945 -1.9724  0.2443  1.4471
  155SAPE   HN317218   5.937   1.957  10.979  1.3437 -1.3357  2.4918
  155SAPE   C1217219   6.145   2.017  10.974  0.0236  0.7602  0.0102
  155SAPE  H12A17220   6.128   2.052  11.078 -0.8051  2.6088 -0.7256
  155SAPE  H12B17221   6.146   2.107  10.909 -0.8391  0.8027  0.0500
  155SAPE   C1117222   6.279   1.943  10.951  0.0698 -0.5747  0.1127
  155SAPE  H11A17223   6.350   1.980  11.027  0.4145 -0.7881 -0.1061
  155SAPE  H11B17224   6.328   1.967  10.854  0.3461 -1.4847  0.0231
  155SAPE     P17225   6.369   1.703  10.899  0.0996 -0.0740  0.3725
  155SAPE   O1317226   6.482   1.708  10.990 -0.2911  0.0637 -0.1501
  155SAPE   O1417227   6.296   1.575  10.895 -0.1987 -0.2164  0.6054
  155SAPE   O1217228   6.265   1.801  10.954  0.4451 -0.0142 -0.0756
  155SAPE   O1117229   6.406   1.752  10.750 -0.4024 -0.2183  0.2041
  155SAPE    C117230   6.295   1.762  10.657 -0.0173  0.9658 -0.5138
  155SAPE    HA17231   6.211   1.695  10.686  1.7693 -0.0320  2.5308
  155SAPE    HB17232   6.258   1.866  10.657 -0.7817  0.6957 -0.2119
  155SAPE    C217233   6.354   1.740  10.516 -0.9073 -1.1710 -0.1881
  155SAPE    HS17234   6.395   1.638  10.504  1.1486 -0.4045  0.2136
  155SAPE   O2117235   6.447   1.844  10.493 -0.1151 -0.3358 -0.1969
  155SAPE   C2117236   6.553   1.825  10.409 -0.1318 -0.5153 -0.3453
  155SAPE   O2217237   6.587   1.723  10.358  0.1445 -0.2424  0.6949
  155SAPE   C2217238   6.622   1.966  10.382  0.3727  0.1676  0.0296
  155SAPE   H2R17239   6.554   2.049  10.409 -2.3350 -1.9602  0.0566
  155SAPE   H2S17240   6.715   1.958  10.442  0.1243 -2.6743  0.1241
  155SAPE    C317241   6.232   1.754  10.419 -0.3212  0.4308 -1.3751
  155SAPE    HX17242   6.196   1.855  10.448  1.1194  1.0413 -1.6719
  155SAPE    HY17243   6.147   1.685  10.437  1.7023 -1.1254  2.7803
  155SAPE   O3117244   6.279   1.742  10.282  0.0519  0.3702  0.0629
  155SAPE   C3117245   6.306   1.619  10.241  0.5815 -0.2305 -0.3895
  155SAPE   O3217246   6.292   1.522  10.319  1.0082  0.6216 -0.1243
  155SAPE   C3217247   6.357   1.606  10.100 -0.8953  0.1392  0.3490
  155SAPE   H2X17248   6.438   1.529  10.101 -0.3016  0.7566  0.5639
  155SAPE   H2Y17249   6.405   1.700  10.067 -1.0188  0.0235 -0.1511
  155SAPE   C2317250   6.659   1.981  10.229 -0.1958 -0.6523 -0.1487
  155SAPE   H3R17251   6.723   1.894  10.201  0.2836 -1.1375  2.3436
  155SAPE   H3S17252   6.734   2.064  10.229  0.4399 -1.2190  1.0213
  155SAPE   C2417253   6.542   2.008  10.137 -0.2966  0.5235  0.0263
  155SAPE   H4R17254   6.486   2.101  10.160 -1.3110 -0.5505  1.9433
  155SAPE   H4S17255   6.469   1.925  10.133 -2.2398  2.1529  1.0879
  155SAPE   C2517256   6.597   2.039  10.008 -0.0462  0.0965  1.0504
  155SAPE   H5R17257   6.707   2.043  10.004 -0.0797 -0.8913 -1.6442
  155SAPE   C2617258   6.517   2.054   9.901 -0.1851  0.5916 -0.6900
  155SAPE   H6R17259   6.560   2.084   9.804  1.5800  0.2958 -0.0146
  155SAPE   C2717260   6.364   2.049   9.896  0.1936  0.2562 -0.0309
  155SAPE   H7R17261   6.336   2.135   9.831  0.9064  0.7408  0.2963
  155SAPE   H7S17262   6.318   2.069   9.996 -0.8368 -0.3783 -0.3743
  155SAPE   C2817263   6.328   1.917   9.836 -0.5768  0.6010  0.1385
  155SAPE   H8R17264   6.310   1.837   9.910 -0.3368 -1.0167 -1.5406
  155SAPE   C2917265   6.331   1.888   9.702  0.4677 -0.6519  0.5666
  155SAPE   H9R17266   6.301   1.786   9.673  1.0223 -0.2917 -1.3685
  155SAPE  C21017267   6.350   1.999   9.594 -0.1251  0.5031 -0.7875
  155SAPE  H10R17268   6.458   2.007   9.566 -0.0518  2.0028 -0.0994
  155SAPE  H10S17269   6.316   2.095   9.639 -1.3001 -0.5030  0.5023
  155SAPE  C21117270   6.271   1.965   9.468  0.0157 -0.0326  0.1489
  155SAPE  H11R17271   6.187   1.895   9.483  0.6360 -1.0156 -0.9222
  155SAPE  C21217272   6.272   2.022   9.349 -0.2871 -0.8322 -0.8125
  155SAPE  H12R17273   6.193   1.978   9.286 -2.3697  0.7425  0.6159
  155SAPE  C21317274   6.362   2.138   9.301  0.5514  0.9718 -0.0500
  155SAPE  H13R17275   6.416   2.110   9.207 -0.1397 -2.0847  0.4116
  155SAPE  H13S17276   6.431   2.174   9.380  1.2737  0.4087 -0.4061
  155SAPE  C21417277   6.261   2.248   9.258 -0.4209  0.3238 -0.1757
  155SAPE  H14R17278   6.169   2.246   9.318 -0.6763  0.7735 -0.5490
  155SAPE  C21517279   6.271   2.342   9.163 -0.1328 -0.2059  0.4184
  155SAPE  H15R17280   6.177   2.396   9.147  0.1481  1.3000  3.4300
  155SAPE  C21617281   6.387   2.360   9.071 -0.6947  0.1965 -0.0120
  155SAPE  H16R17282   6.480   2.313   9.109 -0.3543  0.7970 -0.1023
  155SAPE  H16S17283   6.392   2.469   9.053 -2.2871  0.1113 -1.1352
  155SAPE  C21717284   6.360   2.291   8.934 -0.5715  0.7154 -0.4431
  155SAPE  H17R17285   6.359   2.181   8.942  0.1568  0.6945 -0.6186
  155SAPE  H17S17286   6.451   2.310   8.873 -3.0012 -1.0922 -4.8394
  155SAPE  C21817287   6.261   2.361   8.848  0.1283 -0.3913 -0.4840
  155SAPE  H18R17288   6.278   2.469   8.866 -2.3029 -0.3740  2.2330
  155SAPE  H18S17289   6.157   2.343   8.885  0.0712  0.0147 -0.4479
  155SAPE  C21917290   6.267   2.332   8.693  0.5731 -0.1375 -1.0310
  155SAPE  H19R17291   6.375   2.340   8.665  0.7187 -0.2388 -0.5126
  155SAPE  H19S17292   6.208   2.419   8.659 -1.7056 -0.5443  1.7411
  155SAPE  C22017293   6.211   2.205   8.639 -0.2135 -0.1103  0.1919
  155SAPE  H20R17294   6.109   2.178   8.671 -1.0293  1.4879 -0.9572
  155SAPE  H20S17295   6.268   2.120   8.682  0.5314 -0.8348 -2.1405
  155SAPE  H20T17296   6.223   2.198   8.528 -1.8836  1.0430 -0.0827
  155SAPE   C3317297   6.241   1.563   9.998 -0.1177 -0.2431  0.0018
  155SAPE   H3X17298   6.162   1.641   9.997 -0.0981 -0.2287 -0.5661
  155SAPE   H3Y17299   6.202   1.465  10.033 -1.5539  0.9616  1.8325
  155SAPE   C3417300   6.298   1.529   9.866  0.1573  0.3472 -0.5079
  155SAPE   H4X17301   6.382   1.457   9.877  0.2518  0.3335 -1.2512
  155SAPE   H4Y17302   6.349   1.615   9.817 -0.3488  1.3792  0.7649
  155SAPE   C3517303   6.199   1.475   9.764  0.3696  0.0557 -0.1647
  155SAPE   H5X17304   6.104   1.532   9.766  0.9125  1.0771 -2.5417
  155SAPE   H5Y17305   6.174   1.375   9.807 -1.6674  0.4549 -0.3855
  155SAPE   C3617306   6.262   1.466   9.626  0.3301  0.0120  0.4712
  155SAPE   H6X17307   6.366   1.428   9.627  0.8544  1.4075  0.3175
  155SAPE   H6Y17308   6.266   1.564   9.574  0.6558 -0.2868 -0.0700
  155SAPE   C3717309   6.176   1.375   9.539  0.1002  0.5799  0.8562
  155SAPE   H7X17310   6.070   1.406   9.534 -1.0438 -3.4689 -3.7623
  155SAPE   H7Y17311   6.187   1.270   9.573  0.2593 -0.2009 -1.5029
  155SAPE   C3817312   6.219   1.371   9.389 -0.0569 -0.5056 -0.3252
  155SAPE   H8X17313   6.168   1.285   9.341  1.4350 -1.5506 -0.0730
  155SAPE   H8Y17314   6.327   1.351   9.372  0.1349  0.8727 -0.8286
  155SAPE   C3917315   6.183   1.492   9.308 -0.1155  0.5751 -0.0585
  155SAPE   H9X17316   6.208   1.578   9.375 -1.8648  0.2646  1.0148
  155SAPE   H9Y17317   6.073   1.492   9.293 -0.1758 -0.4411  0.4002
  155SAPE  C31017318   6.271   1.504   9.182 -0.2716  0.0348  0.2849
  155SAPE  H10X17319   6.257   1.422   9.108 -0.3753 -1.1423  1.5834
  155SAPE  H10Y17320   6.380   1.507   9.203 -0.3246  0.9733  0.4184
  155SAPE  C31117321   6.248   1.641   9.123 -0.2277  0.7095 -0.0173
  155SAPE  H11X17322   6.297   1.711   9.194  2.5943 -1.7551  0.5573
  155SAPE  H11Y17323   6.139   1.665   9.131  0.0154  1.1579  2.2342
  155SAPE  C31217324   6.301   1.647   8.983  0.2704  0.1752  0.6253
  155SAPE  H12X17325   6.239   1.587   8.914  3.0763  1.1474 -2.9329
  155SAPE  H12Y17326   6.402   1.602   8.991  0.3736  0.0924 -0.9495
  155SAPE  C31317327   6.319   1.787   8.936  0.7294  0.0575  0.3373
  155SAPE  H13X17328   6.394   1.847   8.993  0.6992  0.9102 -0.4903
  155SAPE  H13Y17329   6.230   1.850   8.959 -0.8986 -0.4614 -3.9985
  155SAPE  C31417330   6.359   1.793   8.785  0.2306 -0.0575 -0.0909
  155SAPE  H14X17331   6.422   1.708   8.752  0.2614  0.7002 -2.0542
  155SAPE  H14Y17332   6.396   1.892   8.753  1.2479 -0.5414 -0.4279
  155SAPE  C31517333   6.223   1.758   8.707 -0.3048 -0.1400 -0.6444
  155SAPE  H15X17334   6.137   1.804   8.761 -0.7471 -2.6639  0.9101
  155SAPE  H15Y17335   6.210   1.648   8.718  1.1910 -0.3513 -0.8169
  155SAPE  C31617336   6.229   1.813   8.565  0.2458 -0.3462  0.5013
  155SAPE  H16X17337   6.330   1.776   8.535  0.7952  1.6730 -0.1982
  155SAPE  H16Y17338   6.240   1.923   8.568 -2.4782 -0.0815  3.1108
  155SAPE  C31717339   6.112   1.765   8.477 -1.2125  0.1424 -0.7447
  155SAPE  H17X17340   6.016   1.808   8.512 -0.1576  0.4406  1.8885
  155SAPE  H17Y17341   6.115   1.654   8.474  0.1192  0.1945 -1.9970
  155SAPE  C31817342   6.131   1.822   8.338 -0.5535 -0.2877  0.3567
  155SAPE  H18X17343   6.123   1.933   8.343 -1.1781 -0.3383  0.5674
  155SAPE  H18Y17344   6.055   1.780   8.269 -2.6374  0.7902  1.9171
  155SAPE  H18Z17345   6.233   1.795   8.304  0.4286 -0.7763  3.5659
  156SAPE     N17346   3.891   0.180  11.006 -0.4158  0.2269  0.5990
  156SAPE   HN117347   3.878   0.259  11.073  0.1250 -1.0951  2.2902
  156SAPE   HN217348   3.796   0.143  10.988 -0.1889  0.4248 -1.1706
  156SAPE   HN317349   3.951   0.104  11.044 -1.7186 -0.8080  0.6157
  156SAPE   C1217350   3.953   0.212  10.870 -0.3679  0.1068  0.1033
  156SAPE  H12A17351   4.061   0.234  10.885  0.6015 -2.4389 -2.6692
  156SAPE  H12B17352   3.897   0.297  10.826  1.5473  1.1741 -0.3529
  156SAPE   C1117353   3.943   0.099  10.767 -0.1945 -0.6805 -0.3369
  156SAPE  H11A17354   4.023   0.032  10.806 -0.3343 -0.5659  0.1455
  156SAPE  H11B17355   3.968   0.143  10.668  0.0307  1.3028  0.5832
  156SAPE     P17356   3.783  -0.096  10.692  0.2262 -0.2958  0.1103
  156SAPE   O1317357   3.876  -0.193  10.743 -0.3447 -0.6087 -0.3535
  156SAPE   O1417358   3.643  -0.133  10.704 -0.2268  0.0432  0.0104
  156SAPE   O1217359   3.814   0.038  10.769  0.5173 -0.4258 -0.0840
  156SAPE   O1117360   3.828  -0.069  10.541 -0.0059  0.4824  0.1371
  156SAPE    C117361   3.964  -0.101  10.499  0.7386  0.7379  0.2679
  156SAPE    HA17362   4.034  -0.015  10.510  1.3891  0.5342 -2.0008
  156SAPE    HB17363   4.006  -0.182  10.563 -1.2605  0.8943  1.8465
  156SAPE    C217364   3.975  -0.152  10.356  0.3852  0.0810 -1.5093
  156SAPE    HS17365   4.072  -0.205  10.350 -0.2189 -1.0479 -1.4647
  156SAPE   O2117366   3.982  -0.031  10.274 -0.4150 -0.1192  0.4067
  156SAPE   C2117367   4.083  -0.031  10.185 -0.1568 -0.0665 -0.5485
  156SAPE   O2217368   4.168  -0.118  10.169  0.3904 -0.1278 -0.1247
  156SAPE   C2217369   4.070   0.085  10.093  0.5254 -0.1144 -0.7059
  156SAPE   H2R17370   4.103   0.171  10.155 -0.6089 -0.6864  0.7446
  156SAPE   H2S17371   4.149   0.069  10.016 -1.0446 -2.1118 -1.9776
  156SAPE    C317372   3.854  -0.240  10.329 -0.2190  0.1898  0.8362
  156SAPE    HX17373   3.761  -0.181  10.339  0.0870  0.7625  0.3225
  156SAPE    HY17374   3.837  -0.326  10.398 -1.9298 -0.2270 -0.0927
  156SAPE   O3117375   3.862  -0.290  10.196 -0.5095  0.1163  0.3627
  156SAPE   C3117376   3.953  -0.388  10.174  0.1389 -0.0411  0.2642
  156SAPE   O3217377   4.022  -0.438  10.263 -0.0601  0.8084 -0.7455
  156SAPE   C3217378   3.949  -0.436  10.036  0.4215 -0.5642 -0.1653
  156SAPE   H2X17379   3.856  -0.410   9.982  0.3722  0.2373  0.3024
  156SAPE   H2Y17380   3.983  -0.542  10.041  0.0918 -0.6655 -0.0598
  156SAPE   C2317381   3.933   0.126  10.034 -0.5706  1.1416 -0.3210
  156SAPE   H3R17382   3.966   0.190   9.949  1.9797  0.2563 -0.0221
  156SAPE   H3S17383   3.878   0.184  10.111  2.8108 -0.8369  3.7763
  156SAPE   C2417384   3.862  -0.006   9.987  0.3151  0.5297 -0.6091
  156SAPE   H4R17385   3.811  -0.046  10.077  3.4320 -1.6933  0.2343
  156SAPE   H4S17386   3.924  -0.096   9.966 -1.2739 -0.3470 -1.6640
  156SAPE   C2517387   3.754   0.029   9.882 -0.0200 -0.5075  0.3080
  156SAPE   H5R17388   3.684   0.109   9.912  1.3822  0.9866 -0.3662
  156SAPE   C2617389   3.743  -0.017   9.754  0.4679 -0.0442  0.3438
  156SAPE   H6R17390   3.667   0.033   9.691 -0.6752 -0.2004  1.5662
  156SAPE   C2717391   3.833  -0.117   9.688 -0.3017  1.0087 -0.1629
  156SAPE   H7R17392   3.919  -0.132   9.755  0.1288 -1.0035 -1.1403
  156SAPE   H7S17393   3.878  -0.077   9.595  0.4164  1.4146  0.3565
  156SAPE   C2817394   3.764  -0.239   9.666  0.1883  0.3551 -0.1103
  156SAPE   H8R17395   3.725  -0.287   9.757  0.4792 -1.4071 -0.8946
  156SAPE   C2917396   3.726  -0.299   9.549  0.5454  0.2725  0.3416
  156SAPE   H9R17397   3.671  -0.394   9.553 -2.9420  2.1876  0.1086
  156SAPE  C21017398   3.757  -0.229   9.417  0.0862 -0.5691  0.0252
  156SAPE  H10R17399   3.858  -0.264   9.386 -0.3144 -1.2088 -0.5838
  156SAPE  H10S17400   3.750  -0.118   9.420  1.1824 -0.4697 -0.8756
  156SAPE  C21117401   3.663  -0.289   9.313 -0.3538  0.4863 -0.3291
  156SAPE  H11R17402   3.582  -0.362   9.331 -0.6048  0.9323  0.3792
  156SAPE  C21217403   3.672  -0.254   9.182 -0.2159  0.6049 -0.4746
  156SAPE  H12R17404   3.616  -0.316   9.110 -1.5238 -2.2232  2.8440
  156SAPE  C21317405   3.767  -0.143   9.126 -0.0353 -0.1384  0.2985
  156SAPE  H13R17406   3.851  -0.114   9.193  1.2083 -0.9044 -0.9108
  156SAPE  H13S17407   3.715  -0.046   9.113 -1.4288 -0.6824  1.5964
  156SAPE  C21417408   3.833  -0.197   9.003 -0.1176 -0.4628  0.3119
  156SAPE  H14R17409   3.897  -0.283   9.028 -0.1009 -0.2806  0.9035
  156SAPE  C21517410   3.824  -0.159   8.879 -0.1756  0.6038 -0.2241
  156SAPE  H15R17411   3.879  -0.218   8.805 -0.9315  0.6100 -0.8001
  156SAPE  C21617412   3.753  -0.039   8.814 -0.2185  0.2739  0.2533
  156SAPE  H16R17413   3.838   0.013   8.764  1.3538 -0.3436  2.2443
  156SAPE  H16S17414   3.712   0.033   8.887 -2.0956  1.4206 -1.8438
  156SAPE  C21717415   3.643  -0.073   8.715  0.4708  0.1189  0.0747
  156SAPE  H17R17416   3.564  -0.124   8.775  0.9219 -1.4421 -0.6334
  156SAPE  H17S17417   3.682  -0.149   8.645 -1.0932 -0.6105 -0.0362
  156SAPE  C21817418   3.583   0.043   8.643  0.0506  0.8815 -0.1430
  156SAPE  H18R17419   3.522   0.003   8.559 -1.5180 -0.3323  1.5258
  156SAPE  H18S17420   3.667   0.108   8.610  0.1750 -0.5323 -2.7514
  156SAPE  C21917421   3.478   0.121   8.724  0.3960  0.4625 -0.1514
  156SAPE  H19R17422   3.512   0.143   8.827 -0.6863 -0.8280  0.4927
  156SAPE  H19S17423   3.384   0.062   8.726  0.8397 -0.2566 -0.5206
  156SAPE  C22017424   3.451   0.251   8.659 -0.4720  0.2182 -0.5333
  156SAPE  H20R17425   3.370   0.311   8.706 -0.0651 -0.6396  1.2978
  156SAPE  H20S17426   3.435   0.236   8.550  1.8478  1.2767 -1.0416
  156SAPE  H20T17427   3.546   0.307   8.667 -1.3444  1.3934  2.3289
  156SAPE   C3317428   4.075  -0.390   9.955 -0.1035 -0.2884 -0.8070
  156SAPE   H3X17429   4.179  -0.417   9.982 -0.5347 -0.3231  0.9245
  156SAPE   H3Y17430   4.079  -0.279   9.950 -0.5101 -0.2892 -1.1469
  156SAPE   C3417431   4.055  -0.427   9.806 -0.6016 -0.0909  0.0348
  156SAPE   H4X17432   3.945  -0.429   9.789 -1.0887  0.8985  2.8458
  156SAPE   H4Y17433   4.082  -0.535   9.802  1.3879  0.2132  3.0792
  156SAPE   C3517434   4.140  -0.349   9.703  0.0090 -0.6093 -0.3822
  156SAPE   H5X17435   4.243  -0.330   9.738 -0.2969 -0.1408  0.2910
  156SAPE   H5Y17436   4.085  -0.253   9.718 -0.3341 -0.8267 -0.2404
  156SAPE   C3617437   4.129  -0.404   9.562 -0.5431 -0.3282 -0.4499
  156SAPE   H6X17438   4.026  -0.429   9.528 -0.8427  1.5012 -0.9485
  156SAPE   H6Y17439   4.190  -0.497   9.557 -1.0053 -0.5592 -2.2345
  156SAPE   C3717440   4.191  -0.298   9.466  0.7449  0.3451  0.4799
  156SAPE   H7X17441   4.278  -0.253   9.519  0.7982 -1.0686  1.6249
  156SAPE   H7Y17442   4.117  -0.218   9.442  0.8777  0.1314 -0.6751
  156SAPE   C3817443   4.240  -0.362   9.336  0.4875 -0.5266 -0.6968
  156SAPE   H8X17444   4.302  -0.446   9.372 -1.1239 -1.2434  0.4521
  156SAPE   H8Y17445   4.314  -0.296   9.286 -0.0195  0.8817  0.3819
  156SAPE   C3917446   4.126  -0.394   9.232  0.7117 -0.5305 -0.0654
  156SAPE   H9X17447   4.052  -0.311   9.226  2.0224  0.6240 -0.5537
  156SAPE   H9Y17448   4.074  -0.485   9.266 -0.4975 -0.3503 -1.3594
  156SAPE  C31017449   4.178  -0.407   9.082 -0.3964  0.5349 -0.5584
  156SAPE  H10X17450   4.105  -0.472   9.028  0.6822 -0.1723 -1.1728
  156SAPE  H10Y17451   4.272  -0.463   9.100 -0.5009  0.1940 -1.0781
  156SAPE  C31117452   4.193  -0.275   9.007 -0.1272  0.1204  0.2750
  156SAPE  H11X17453   4.279  -0.214   9.044 -0.3246 -0.7458  2.2275
  156SAPE  H11Y17454   4.102  -0.213   9.023  1.3505  1.9346  2.0158
  156SAPE  C31217455   4.205  -0.311   8.861  0.0570 -0.2600 -0.3762
  156SAPE  H12X17456   4.120  -0.379   8.836  0.4302 -0.7841 -0.2381
  156SAPE  H12Y17457   4.300  -0.365   8.838  0.5475  1.1914 -1.8461
  156SAPE  C31317458   4.196  -0.195   8.760  0.5451 -0.5572  0.0105
  156SAPE  H13X17459   4.282  -0.125   8.770  0.5888 -0.8586  2.0395
  156SAPE  H13Y17460   4.108  -0.134   8.789  1.5922  0.6182  0.8036
  156SAPE  C31417461   4.196  -0.244   8.616 -0.2757 -0.1839 -0.1289
  156SAPE  H14X17462   4.104  -0.305   8.604 -0.2666  0.1539 -2.0850
  156SAPE  H14Y17463   4.285  -0.305   8.591 -0.6927 -0.6758 -0.4395
  156SAPE  C31517464   4.189  -0.117   8.526  0.6569  0.0834 -0.2972
  156SAPE  H15X17465   4.279  -0.051   8.533  1.1846 -0.2537 -3.1745
  156SAPE  H15Y17466   4.096  -0.065   8.557  1.6954  1.3731  0.7672
  156SAPE  C31617467   4.183  -0.157   8.376  0.3626 -0.2795  0.1967
  156SAPE  H16X17468   4.099  -0.229   8.373 -0.8917  1.1514  0.2782
  156SAPE  H16Y17469   4.282  -0.197   8.345 -0.1968 -1.3844 -0.1835
  156SAPE  C31717470   4.176  -0.035   8.279  0.7302  0.0769 -0.5802
  156SAPE  H17X17471   4.243   0.046   8.313  0.3918  1.1853 -2.4878
  156SAPE  H17Y17472   4.071   0.003   8.284  0.8234  0.1296  1.7364
  156SAPE  C31817473   4.211  -0.081   8.142 -0.5204 -0.4179 -0.0659
  156SAPE  H18X17474   4.219  -0.004   8.063 -0.4421 -0.4070 -0.0486
  156SAPE  H18Y17475   4.138  -0.158   8.112  1.4435 -1.9883 -0.9110
  156SAPE  H18Z17476   4.309  -0.131   8.155  0.0983  0.4705 -1.2750
  157SAPE     N17477   3.180   6.712  10.627  0.3836 -0.1125 -0.3438
  157SAPE   HN117478   3.149   6.756  10.716  1.4381  0.9445 -0.4812
  157SAPE   HN217479   3.280   6.727  10.601  0.1727 -1.4375 -2.0121
  157SAPE   HN317480   3.126   6.752  10.548 -1.1662 -1.5558 -0.0398
  157SAPE   C1217481   3.139   6.563  10.636  0.1705 -0.4470 -0.0027
  157SAPE  H12A17482   3.188   6.520  10.726  1.7168 -0.0552 -0.6372
  157SAPE  H12B17483   3.182   6.511  10.548  0.2403 -2.2590  1.0833
  157SAPE   C1117484   2.988   6.542  10.645  0.1192  0.8396  0.0726
  157SAPE  H11A17485   2.953   6.437  10.631 -3.2383  1.8676  0.4927
  157SAPE  H11B17486   2.953   6.601  10.558 -1.5451 -0.1450  0.0553
  157SAPE     P17487   2.860   6.717  10.788  0.4570  0.3195 -0.1977
  157SAPE   O1317488   2.826   6.722  10.932 -0.1084  0.0243  0.2159
  157SAPE   O1417489   2.943   6.829  10.736 -0.3669  0.7410 -0.3507
  157SAPE   O1217490   2.939   6.580  10.775  0.1954 -0.3741  0.0041
  157SAPE   O1117491   2.733   6.699  10.697  0.4339  0.0385 -0.2636
  157SAPE    C117492   2.659   6.575  10.694  0.9286 -0.2457 -0.5619
  157SAPE    HA17493   2.720   6.492  10.653  2.5902 -0.0863  1.5080
  157SAPE    HB17494   2.633   6.549  10.799 -3.6186 -1.2238 -1.8122
  157SAPE    C217495   2.537   6.580  10.598 -0.4476  0.0823  0.8444
  157SAPE    HS17496   2.501   6.477  10.582  0.8749 -0.2797  0.1313
  157SAPE   O2117497   2.574   6.647  10.474 -0.3242 -0.0537 -0.0605
  157SAPE   C2117498   2.643   6.575  10.393  0.3048 -0.1747 -0.6833
  157SAPE   O2217499   2.697   6.466  10.417 -0.4289  0.2916 -0.4410
  157SAPE   C2217500   2.652   6.657  10.254 -0.0153  0.3983  0.3097
  157SAPE   H2R17501   2.610   6.757  10.279  1.1129  0.7747  0.7544
  157SAPE   H2S17502   2.759   6.646  10.228 -0.6449 -0.6920 -1.9740
  157SAPE    C317503   2.418   6.658  10.664 -0.0120  0.2753  0.2560
  157SAPE    HX17504   2.445   6.763  10.687 -0.7303  0.3165  0.9427
  157SAPE    HY17505   2.398   6.598  10.756  0.5219 -0.3292 -0.0200
  157SAPE   O3117506   2.305   6.635  10.577  0.8591 -0.7893 -0.4288
  157SAPE   C3117507   2.202   6.721  10.601 -0.1673  0.1210  0.0566
  157SAPE   O3217508   2.191   6.790  10.696  0.2498  0.2379 -0.2553
  157SAPE   C3217509   2.097   6.703  10.491 -0.5651 -0.4327 -0.0415
  157SAPE   H2X17510   2.059   6.803  10.460 -1.7797 -0.9522 -0.2407
  157SAPE   H2Y17511   2.019   6.648  10.547  0.1698  3.0962  4.7352
  157SAPE   C2317512   2.563   6.605  10.137 -0.3221  0.9786  0.2489
  157SAPE   H3R17513   2.455   6.612  10.164 -0.8651  2.8651 -2.1982
  157SAPE   H3S17514   2.583   6.496  10.130 -1.0502  0.7815  1.0879
  157SAPE   C2417515   2.584   6.685  10.011 -0.0259 -0.2817 -0.3360
  157SAPE   H4R17516   2.601   6.793  10.032 -4.5889  0.1035  1.9840
  157SAPE   H4S17517   2.492   6.679   9.950  0.9203 -2.1216 -1.6194
  157SAPE   C2517518   2.699   6.624   9.931  0.0844  0.0078 -0.2355
  157SAPE   H5R17519   2.765   6.558   9.990 -0.2953  0.1858  0.3976
  157SAPE   C2617520   2.725   6.636   9.797  0.1649 -0.2631  0.4851
  157SAPE   H6R17521   2.820   6.593   9.761 -1.6524 -3.9083 -0.2143
  157SAPE   C2717522   2.640   6.719   9.702  0.3972 -0.0879  0.0754
  157SAPE   H7R17523   2.609   6.811   9.757 -0.3204 -0.5769  0.4982
  157SAPE   H7S17524   2.550   6.656   9.685 -2.1434  3.2286  0.7882
  157SAPE   C2817525   2.699   6.765   9.578  0.4068 -0.1228  0.7115
  157SAPE   H8R17526   2.734   6.869   9.574  1.4664 -0.4377  1.5882
  157SAPE   C2917527   2.705   6.700   9.455  0.0307  0.3836 -0.3042
  157SAPE   H9R17528   2.762   6.741   9.371 -1.2919 -2.7190 -2.8479
  157SAPE  C21017529   2.648   6.562   9.423  0.0791 -0.0215 -0.5138
  157SAPE  H10R17530   2.614   6.513   9.517  1.9910 -2.1501 -0.9009
  157SAPE  H10S17531   2.716   6.491   9.371  1.8080  0.8525  0.5036
  157SAPE  C21117532   2.527   6.577   9.339 -0.2038 -0.2145 -1.4033
  157SAPE  H11R17533   2.435   6.590   9.399 -0.2946  0.9697 -1.7731
  157SAPE  C21217534   2.523   6.611   9.205  0.7000 -0.1007  0.1640
  157SAPE  H12R17535   2.427   6.631   9.153  1.7948  1.9314 -1.1439
  157SAPE  C21317536   2.636   6.620   9.109  0.0042  0.0577  0.1420
  157SAPE  H13R17537   2.737   6.634   9.154 -0.0650 -0.2734  0.4072
  157SAPE  H13S17538   2.621   6.717   9.057  0.8996 -0.3604 -0.9121
  157SAPE  C21417539   2.624   6.500   9.010  0.5001  0.1602 -0.0699
  157SAPE  H14R17540   2.665   6.405   9.046 -0.7510 -1.3023 -2.3534
  157SAPE  C21517541   2.580   6.493   8.882 -0.0596  0.0268 -0.1016
  157SAPE  H15R17542   2.594   6.399   8.827  0.4922 -0.8420  1.5088
  157SAPE  C21617543   2.525   6.605   8.796 -1.2340  0.2032 -0.2577
  157SAPE  H16R17544   2.526   6.703   8.849  0.0212  0.9291 -1.5707
  157SAPE  H16S17545   2.421   6.575   8.773 -1.3882  2.7103 -3.0157
  157SAPE  C21717546   2.618   6.619   8.676  0.4285  0.2864  0.2324
  157SAPE  H17R17547   2.651   6.531   8.617 -0.4260 -0.5635  1.0159
  157SAPE  H17S17548   2.709   6.663   8.723  0.0035  0.3079  1.0378
  157SAPE  C21817549   2.554   6.713   8.567  0.1878 -0.2135  0.9380
  157SAPE  H18R17550   2.523   6.809   8.614  1.8557  0.1510  1.3540
  157SAPE  H18S17551   2.462   6.664   8.530  1.6302 -0.9144 -1.8627
  157SAPE  C21917552   2.653   6.743   8.456 -0.8610 -0.1792 -0.9932
  157SAPE  H19R17553   2.699   6.652   8.411  2.4593  1.2746 -0.7170
  157SAPE  H19S17554   2.737   6.791   8.510 -0.2686 -1.9916 -0.2713
  157SAPE  C22017555   2.598   6.834   8.339 -0.0672 -0.1592 -0.6998
  157SAPE  H20R17556   2.691   6.870   8.291  0.2850 -1.2770 -0.8579
  157SAPE  H20S17557   2.540   6.920   8.379  0.6293  0.0794 -0.1885
  157SAPE  H20T17558   2.541   6.782   8.258  0.4984 -1.1719 -0.4553
  157SAPE   C3317559   2.145   6.604  10.374 -0.3264  0.2414  0.0270
  157SAPE   H3X17560   2.158   6.503  10.418  0.3279  0.5751  0.6084
  157SAPE   H3Y17561   2.242   6.652  10.347 -1.0260  2.1284  0.7951
  157SAPE   C3417562   2.051   6.613  10.255  0.1519  0.4435 -0.2827
  157SAPE   H4X17563   2.054   6.721  10.230  0.4283  0.6180  0.5051
  157SAPE   H4Y17564   1.951   6.590  10.298  0.5212  1.2103  0.9826
  157SAPE   C3517565   2.079   6.539  10.128 -0.4046 -0.2766  0.1845
  157SAPE   H5X17566   2.078   6.437  10.173 -0.0533  0.1574  1.2030
  157SAPE   H5Y17567   2.180   6.546  10.082  0.0585  2.3587  1.5306
  157SAPE   C3617568   1.965   6.563  10.026  0.3410  0.2580  0.1009
  157SAPE   H6X17569   1.948   6.672  10.012 -1.4508 -0.3940 -3.3537
  157SAPE   H6Y17570   1.877   6.512  10.072 -1.1286  0.3004 -2.5758
  157SAPE   C3717571   1.976   6.477   9.897 -0.3203 -0.1931 -0.8530
  157SAPE   H7X17572   1.972   6.369   9.921  1.2221  0.1428  1.0861
  157SAPE   H7Y17573   2.080   6.491   9.860  0.6505 -0.3108  1.7445
  157SAPE   C3817574   1.875   6.530   9.794 -0.0431 -0.1451  0.7022
  157SAPE   H8X17575   1.897   6.634   9.761 -1.2173 -0.7912 -2.2711
  157SAPE   H8Y17576   1.781   6.537   9.853  0.2850  0.6250  1.1403
  157SAPE   C3917577   1.872   6.428   9.681  0.1360 -0.1126  0.0015
  157SAPE   H9X17578   1.847   6.326   9.717 -1.9931  0.5370  0.4350
  157SAPE   H9Y17579   1.972   6.423   9.632  0.2996  0.0102  0.3203
  157SAPE  C31017580   1.762   6.461   9.589  0.3781 -0.5508 -0.6272
  157SAPE  H10X17581   1.739   6.569   9.582 -1.6196 -0.8955  0.2552
  157SAPE  H10Y17582   1.672   6.404   9.621  0.0213  1.7593  2.6502
  157SAPE  C31117583   1.791   6.399   9.446  0.1705  0.3471 -0.0720
  157SAPE  H11X17584   1.824   6.296   9.470 -1.1122  0.7404  3.5537
  157SAPE  H11Y17585   1.875   6.461   9.407  0.6816 -0.7034 -0.6790
  157SAPE  C31217586   1.656   6.383   9.372 -0.1754 -0.0110  0.1997
  157SAPE  H12X17587   1.574   6.451   9.403  1.6133  1.7219  1.2340
  157SAPE  H12Y17588   1.620   6.280   9.389  0.9788 -0.9695 -2.8014
  157SAPE  C31317589   1.680   6.386   9.227  0.7683  0.0335  0.0316
  157SAPE  H13X17590   1.749   6.308   9.191  1.1150  0.2696  0.1853
  157SAPE  H13Y17591   1.726   6.486   9.214 -0.3424  0.8130  1.7371
  157SAPE  C31417592   1.552   6.366   9.141 -0.4795  0.1301  0.0029
  157SAPE  H14X17593   1.491   6.457   9.161 -0.5071  0.4336 -1.3894
  157SAPE  H14Y17594   1.504   6.273   9.177  1.5041 -1.3776 -1.1136
  157SAPE  C31517595   1.559   6.377   8.991 -1.4341  0.5619  0.1597
  157SAPE  H15X17596   1.634   6.308   8.948  1.1223  2.0419  2.1652
  157SAPE  H15Y17597   1.600   6.475   8.958  2.3439  0.3376  3.7597
  157SAPE  C31617598   1.430   6.348   8.919  0.0123  0.4252 -0.0719
  157SAPE  H16X17599   1.444   6.381   8.814 -0.2568 -1.7864 -0.8251
  157SAPE  H16Y17600   1.345   6.402   8.965 -0.6426 -1.2279  0.6939
  157SAPE  C31717601   1.403   6.197   8.917  0.4039  0.3559 -0.2125
  157SAPE  H17X17602   1.476   6.143   8.982  0.5553  3.3827  2.2680
  157SAPE  H17Y17603   1.429   6.152   8.819 -1.4620  1.2897 -1.1653
  157SAPE  C31817604   1.266   6.164   8.972  0.4116 -0.4192 -0.0500
  157SAPE  H18X17605   1.192   6.223   8.915  1.2630 -1.4860 -2.3207
  157SAPE  H18Y17606   1.272   6.206   9.075 -3.1621  1.5573 -0.5751
  157SAPE  H18Z17607   1.245   6.055   8.980  0.4732 -0.3238  1.7873
  158SAPE     N17608   3.540   0.654  10.764 -0.1349  0.3106 -0.3668
  158SAPE   HN117609   3.486   0.724  10.818  0.6172  0.2429  0.4755
  158SAPE   HN217610   3.554   0.685  10.666 -1.4324 -1.5579 -1.1892
  158SAPE   HN317611   3.484   0.566  10.764 -1.7717  1.3145 -2.4684
  158SAPE   C1217612   3.673   0.639  10.828  0.7334 -0.1133  0.3063
  158SAPE  H12A17613   3.657   0.611  10.934  2.4038  3.3342  1.5261
  158SAPE  H12B17614   3.726   0.736  10.829 -0.1405  0.3796 -0.1801
  158SAPE   C1117615   3.749   0.523  10.754 -0.6193 -0.0185  0.2715
  158SAPE  H11A17616   3.713   0.424  10.791 -0.1895 -0.1803  0.2537
  158SAPE  H11B17617   3.851   0.518  10.796 -0.3939 -0.0666 -0.2711
  158SAPE     P17618   3.787   0.405  10.535 -0.3629 -0.0593 -0.6101
  158SAPE   O1317619   3.931   0.378  10.566 -0.4069 -0.0575 -0.1805
  158SAPE   O1417620   3.687   0.298  10.552  0.0703  0.4666 -0.1511
  158SAPE   O1217621   3.746   0.534  10.615 -0.2823 -0.3955 -0.2711
  158SAPE   O1117622   3.772   0.467  10.392 -0.0076  0.2212 -0.0976
  158SAPE    C117623   3.852   0.588  10.372 -0.5539  0.2380 -0.4060
  158SAPE    HA17624   3.774   0.665  10.355 -1.8226 -0.5931  1.4797
  158SAPE    HB17625   3.927   0.615  10.450 -0.3021 -0.0576 -0.5458
  158SAPE    C217626   3.951   0.570  10.250  0.2990 -0.0425 -0.5814
  158SAPE    HS17627   4.001   0.665  10.220  1.1894 -0.3007  0.0775
  158SAPE   O2117628   3.881   0.511  10.142  0.0495  0.1034  0.1861
  158SAPE   C2117629   3.788   0.588  10.077 -0.4665  0.0443  0.0295
  158SAPE   O2217630   3.783   0.708  10.097 -0.4638 -0.3600 -0.1993
  158SAPE   C2217631   3.712   0.507   9.980  0.7074  0.0401  0.2396
  158SAPE   H2R17632   3.672   0.421  10.038 -1.4772  1.3499  0.7158
  158SAPE   H2S17633   3.635   0.575   9.936  1.4106 -0.6155 -2.0975
  158SAPE    C317634   4.068   0.477  10.281 -0.4817  0.2940 -0.4542
  158SAPE    HX17635   4.040   0.372  10.258  2.4883 -0.4640 -0.7433
  158SAPE    HY17636   4.091   0.496  10.388  2.1371  1.4074 -1.1957
  158SAPE   O3117637   4.186   0.511  10.197  0.1478 -0.4460 -0.3251
  158SAPE   C3117638   4.278   0.424  10.223 -0.6110 -0.5573 -0.7467
  158SAPE   O3217639   4.270   0.326  10.291 -0.4815  0.0141 -0.0508
  158SAPE   C3217640   4.410   0.460  10.157  0.3055 -0.1238  0.1032
  158SAPE   H2X17641   4.491   0.425  10.224  1.0720  1.6273  0.1207
  158SAPE   H2Y17642   4.398   0.571  10.166  0.6861 -0.1402  0.8159
  158SAPE   C2317643   3.815   0.448   9.877 -0.0172 -0.0450  0.5279
  158SAPE   H3R17644   3.873   0.371   9.932  1.7580  0.3241 -0.7804
  158SAPE   H3S17645   3.905   0.501   9.839  0.7730 -1.3902  0.4732
  158SAPE   C2417646   3.743   0.375   9.762  0.2885  0.0373  0.1413
  158SAPE   H4R17647   3.664   0.314   9.811  0.2779  0.1610  0.2807
  158SAPE   H4S17648   3.822   0.306   9.726 -1.6123 -2.7113  1.1203
  158SAPE   C2517649   3.686   0.461   9.661 -0.1454  0.2398  0.1663
  158SAPE   H5R17650   3.723   0.565   9.662 -0.2834  0.2854  0.5079
  158SAPE   C2617651   3.600   0.428   9.567 -0.2352 -0.3153 -0.7210
  158SAPE   H6R17652   3.565   0.501   9.492  0.5139  1.4561  0.6182
  158SAPE   C2717653   3.544   0.288   9.548  0.1295 -0.2420  0.0289
  158SAPE   H7R17654   3.453   0.296   9.485 -0.0805  0.0874  0.3700
  158SAPE   H7S17655   3.509   0.248   9.645 -0.4681 -0.9804 -0.4835
  158SAPE   C2817656   3.643   0.193   9.482  0.2191  0.7154 -0.3853
  158SAPE   H8R17657   3.745   0.183   9.522 -0.5593 -0.9077  1.2521
  158SAPE   C2917658   3.613   0.114   9.374 -0.4124 -0.7548 -0.0757
  158SAPE   H9R17659   3.695   0.053   9.334  0.0781  0.3364 -0.7599
  158SAPE  C21017660   3.484   0.099   9.302  0.1761  0.5809  0.1985
  158SAPE  H10R17661   3.488   0.104   9.191  2.0184  2.5118  0.3222
  158SAPE  H10S17662   3.421   0.188   9.324  1.6142  1.9612 -1.1986
  158SAPE  C21117663   3.418  -0.026   9.347 -0.7990 -0.4934 -0.5783
  158SAPE  H11R17664   3.424  -0.037   9.456  1.0225 -1.1337 -0.7151
  158SAPE  C21217665   3.363  -0.117   9.263 -0.0480  0.0441  0.1752
  158SAPE  H12R17666   3.315  -0.207   9.303 -1.0710  1.5245  2.4405
  158SAPE  C21317667   3.347  -0.107   9.108 -0.5273 -0.2715  0.6502
  158SAPE  H13R17668   3.413  -0.186   9.065 -2.5169 -1.2259 -0.6928
  158SAPE  H13S17669   3.397  -0.021   9.058 -1.8826  0.8034  1.1256
  158SAPE  C21417670   3.208  -0.110   9.048 -0.7489 -0.1284 -0.4517
  158SAPE  H14R17671   3.128  -0.097   9.123  1.7221 -0.9149  2.4333
  158SAPE  C21517672   3.182  -0.159   8.924 -0.8938  0.4449  0.4686
  158SAPE  H15R17673   3.078  -0.163   8.890 -1.2287  0.0107  1.5460
  158SAPE  C21617674   3.281  -0.212   8.821  0.4251  0.1675 -0.3896
  158SAPE  H16R17675   3.381  -0.230   8.866  0.3178  0.6824  0.0531
  158SAPE  H16S17676   3.292  -0.145   8.733 -2.0497  1.4754  0.2683
  158SAPE  C21717677   3.237  -0.352   8.756  0.2494  0.3949  0.8824
  158SAPE  H17R17678   3.318  -0.390   8.690 -1.3872 -1.0691 -0.3354
  158SAPE  H17S17679   3.155  -0.316   8.689  0.0595 -1.2270  0.2331
  158SAPE  C21817680   3.171  -0.457   8.847 -0.1983  0.0805 -0.0482
  158SAPE  H18R17681   3.060  -0.444   8.853 -0.8275 -3.3906 -2.5401
  158SAPE  H18S17682   3.222  -0.439   8.943 -0.1674  0.7477 -0.1873
  158SAPE  C21917683   3.205  -0.601   8.796 -0.1282  0.7637 -0.4400
  158SAPE  H19R17684   3.163  -0.618   8.694 -1.3069 -3.8088  0.7091
  158SAPE  H19S17685   3.137  -0.662   8.859  2.1636 -0.9400  0.4369
  158SAPE  C22017686   3.347  -0.650   8.817 -0.3393 -0.1743 -0.3454
  158SAPE  H20R17687   3.361  -0.758   8.794  2.4973  0.2185 -0.7303
  158SAPE  H20S17688   3.370  -0.631   8.924  0.2692 -1.5855 -0.2174
  158SAPE  H20T17689   3.413  -0.589   8.752 -2.4033  2.5977  0.0889
  158SAPE   C3317690   4.429   0.421  10.007 -0.4469 -0.4395  0.2935
  158SAPE   H3X17691   4.395   0.315  10.003 -1.4351 -0.1190  0.0868
  158SAPE   H3Y17692   4.535   0.438   9.981 -0.7864  1.2066 -0.0523
  158SAPE   C3417693   4.335   0.511   9.923  0.0598  0.4232  0.4305
  158SAPE   H4X17694   4.338   0.618   9.954  0.0085  0.5192  0.1128
  158SAPE   H4Y17695   4.229   0.487   9.945 -0.2566  3.7030  2.9044
  158SAPE   C3517696   4.362   0.511   9.777  0.3335  0.2670  0.0891
  158SAPE   H5X17697   4.463   0.556   9.766  0.8583 -1.3616 -2.0419
  158SAPE   H5Y17698   4.294   0.582   9.726  0.2445  0.1101 -0.0115
  158SAPE   C3617699   4.351   0.372   9.706  0.0696  0.0019  0.2432
  158SAPE   H6X17700   4.439   0.308   9.730  1.4121  3.3636  4.8806
  158SAPE   H6Y17701   4.353   0.401   9.599 -2.0668 -0.7736 -0.0284
  158SAPE   C3717702   4.222   0.294   9.752  0.7360 -0.1940  0.4627
  158SAPE   H7X17703   4.147   0.372   9.726  1.2623  0.8975  2.0789
  158SAPE   H7Y17704   4.230   0.291   9.863 -2.9174  2.3689  0.8979
  158SAPE   C3817705   4.214   0.166   9.671  0.2289  0.4325 -0.4172
  158SAPE   H8X17706   4.137   0.109   9.728  0.0898 -0.3605 -1.3913
  158SAPE   H8Y17707   4.315   0.121   9.676 -1.2262 -2.9815 -0.1093
  158SAPE   C3917708   4.161   0.184   9.529 -0.2076 -0.9017  0.2335
  158SAPE   H9X17709   4.239   0.244   9.479  2.0866 -2.4586  1.8518
  158SAPE   H9Y17710   4.071   0.249   9.531  0.6644  0.3141  1.7664
  158SAPE  C31017711   4.136   0.050   9.457  0.6138  0.2526 -0.0545
  158SAPE  H10X17712   4.072  -0.000   9.533 -0.7178  2.8209  0.5856
  158SAPE  H10Y17713   4.222  -0.019   9.439  0.4086  0.1503 -0.6453
  158SAPE  C31117714   4.054   0.066   9.326  0.0090  0.3216  0.2922
  158SAPE  H11X17715   3.979   0.147   9.344  0.2673  0.5852  0.1831
  158SAPE  H11Y17716   3.996  -0.025   9.299 -1.6006  1.1324  0.9234
  158SAPE  C31217717   4.147   0.092   9.207  0.3269 -0.1681 -0.4724
  158SAPE  H12X17718   4.214   0.004   9.193  1.6197  0.8680 -0.9405
  158SAPE  H12Y17719   4.210   0.178   9.239  1.6627 -0.0059 -3.4363
  158SAPE  C31317720   4.075   0.102   9.076 -0.5025 -0.5641  0.3312
  158SAPE  H13X17721   4.005   0.019   9.053 -1.0552  0.4534 -1.7346
  158SAPE  H13Y17722   4.157   0.099   9.002  1.1619  0.1617  2.0890
  158SAPE  C31417723   3.986   0.228   9.068  0.5711 -0.1624  0.5569
  158SAPE  H14X17724   4.033   0.321   9.108  2.4764 -1.4838  1.4534
  158SAPE  H14Y17725   3.898   0.214   9.133  0.1150  0.8096  0.1687
  158SAPE  C31517726   3.924   0.255   8.930 -0.8631  0.1085 -0.5684
  158SAPE  H15X17727   3.823   0.301   8.927 -0.2155  1.7797  1.5062
  158SAPE  H15Y17728   3.923   0.152   8.888 -2.5371 -1.5101  3.1172
  158SAPE  C31617729   4.011   0.336   8.838  0.3332 -0.2279  0.4303
  158SAPE  H16X17730   4.120   0.327   8.852  0.6412  0.6799 -1.2325
  158SAPE  H16Y17731   3.986   0.443   8.853  1.4532  0.1847 -0.5456
  158SAPE  C31717732   3.976   0.314   8.687 -0.4624 -0.4868  0.1525
  158SAPE  H17X17733   4.001   0.402   8.624  0.5729 -1.5564 -0.9526
  158SAPE  H17Y17734   3.869   0.290   8.671 -0.0189 -0.9175 -2.3627
  158SAPE  C31817735   4.050   0.206   8.617 -0.3258  0.6466  0.3407
  158SAPE  H18X17736   4.159   0.227   8.611 -0.2982  0.5084  0.3641
  158SAPE  H18Y17737   4.013   0.188   8.514 -2.7797  0.2213  1.2671
  158SAPE  H18Z17738   4.032   0.110   8.670 -0.5399 -0.3778 -1.5529
  159SAPE     N17739   4.102   4.571   6.192  0.1879 -0.4076  0.1502
  159SAPE   HN117740   4.169   4.526   6.257  1.3978 -1.0318 -1.5079
  159SAPE   HN217741   4.163   4.584   6.109 -0.6930 -1.2189 -0.6253
  159SAPE   HN317742   4.082   4.663   6.238  0.3231  0.0323 -0.6714
  159SAPE   C1217743   3.977   4.483   6.186 -0.9962  0.0312 -0.0178
  159SAPE  H12A17744   4.000   4.383   6.142 -1.1010  0.3082 -0.7094
  159SAPE  H12B17745   3.916   4.540   6.113 -0.2653  0.5818 -0.2006
  159SAPE   C1117746   3.902   4.477   6.319 -0.2060  0.1029  0.0947
  159SAPE  H11A17747   3.855   4.577   6.327  1.7456  1.1223 -0.6338
  159SAPE  H11B17748   3.978   4.468   6.400  0.1332  2.5100  0.0756
  159SAPE     P17749   3.821   4.226   6.347 -0.1430 -0.0692  0.0739
  159SAPE   O1317750   3.700   4.151   6.308  0.6729 -0.1543  0.1421
  159SAPE   O1417751   3.943   4.186   6.274 -0.1055 -0.4531  0.0884
  159SAPE   O1217752   3.796   4.380   6.326 -0.2205  0.0894 -0.5431
  159SAPE   O1117753   3.842   4.203   6.498  0.5779  0.3186  0.5279
  159SAPE    C117754   3.797   4.281   6.601 -0.3476 -0.5855 -0.4311
  159SAPE    HA17755   3.878   4.298   6.675  0.9070  2.1493 -2.3314
  159SAPE    HB17756   3.774   4.382   6.559 -1.6701 -1.6066 -2.2247
  159SAPE    C217757   3.673   4.212   6.671 -0.0852  0.1364  0.0125
  159SAPE    HS17758   3.590   4.206   6.598  0.4739 -0.9450 -0.5566
  159SAPE   O2117759   3.646   4.302   6.781 -0.0831  0.2040  0.0648
  159SAPE   C2117760   3.525   4.299   6.842  0.1015  0.7614  0.2783
  159SAPE   O2217761   3.429   4.241   6.799  0.1887 -0.6193 -0.5414
  159SAPE   C2217762   3.522   4.375   6.973 -0.1996  0.6865 -0.4671
  159SAPE   H2R17763   3.533   4.484   6.955 -0.1072  0.9317  1.0430
  159SAPE   H2S17764   3.419   4.363   7.013  0.8936 -1.8238  1.7635
  159SAPE    C317765   3.694   4.065   6.718  0.0279 -0.0712 -0.1720
  159SAPE    HX17766   3.789   4.051   6.773  0.0808  1.0817  0.0492
  159SAPE    HY17767   3.711   4.012   6.622  2.2772 -0.5951  0.4897
  159SAPE   O3117768   3.577   4.004   6.786  0.0251  0.1742 -0.4386
  159SAPE   C3117769   3.585   3.876   6.805  0.9757 -0.2691  0.2224
  159SAPE   O3217770   3.659   3.801   6.745 -0.2612  0.6835 -0.1048
  159SAPE   C3217771   3.467   3.828   6.890  0.1838 -0.0362 -0.1065
  159SAPE   H2X17772   3.401   3.771   6.821  0.1820  0.1497 -0.2602
  159SAPE   H2Y17773   3.418   3.918   6.932 -0.7582 -1.9672  3.0751
  159SAPE   C2317774   3.627   4.310   7.068  0.4567 -0.5984 -0.4284
  159SAPE   H3R17775   3.669   4.390   7.133  3.1171 -0.1735 -2.5639
  159SAPE   H3S17776   3.717   4.275   7.012  0.5989 -0.9336  0.0089
  159SAPE   C2417777   3.571   4.199   7.155  1.0074 -0.2114  0.8504
  159SAPE   H4R17778   3.528   4.122   7.088 -1.2957  0.0627  1.9491
  159SAPE   H4S17779   3.485   4.230   7.219 -0.5345 -3.7350  0.5768
  159SAPE   C2517780   3.687   4.135   7.229  0.5633 -0.2202 -0.2191
  159SAPE   H5R17781   3.765   4.100   7.160  1.1012  1.8539 -0.6963
  159SAPE   C2617782   3.702   4.131   7.367  0.6243 -0.1777 -0.3308
  159SAPE   H6R17783   3.795   4.094   7.413  0.0117  0.4834  1.5048
  159SAPE   C2717784   3.614   4.194   7.467 -0.4758  0.1327 -0.4357
  159SAPE   H7R17785   3.534   4.258   7.425 -0.8943  0.1208  0.3258
  159SAPE   H7S17786   3.671   4.264   7.532  0.1723  0.7420 -1.6572
  159SAPE   C2817787   3.549   4.074   7.536 -0.5138  0.8051 -1.0161
  159SAPE   H8R17788   3.510   3.989   7.478  0.0144  1.6941 -2.7076
  159SAPE   C2917789   3.527   4.063   7.665  0.1780 -0.1770  0.0573
  159SAPE   H9R17790   3.463   3.980   7.698  1.1706 -1.5346 -1.3946
  159SAPE  C21017791   3.555   4.153   7.785 -0.4808  0.4953 -0.7497
  159SAPE  H10R17792   3.475   4.224   7.813  0.7539  1.9869 -0.9423
  159SAPE  H10S17793   3.637   4.221   7.754 -1.6368  2.7531  1.0619
  159SAPE  C21117794   3.605   4.072   7.908  0.2463  0.2194 -0.4009
  159SAPE  H11R17795   3.611   3.964   7.890 -0.8411  0.1589 -0.4190
  159SAPE  C21217796   3.622   4.125   8.029  0.3622 -0.3389  0.5392
  159SAPE  H12R17797   3.666   4.061   8.106 -0.7616  0.8240  2.1765
  159SAPE  C21317798   3.594   4.263   8.086  0.8556 -0.0176  0.6571
  159SAPE  H13R17799   3.491   4.270   8.127  0.8634 -1.7848  1.0426
  159SAPE  H13S17800   3.597   4.328   7.997  1.1051  0.3045  0.8985
  159SAPE  C21417801   3.701   4.325   8.177 -0.2798  0.3069  0.4222
  159SAPE  H14R17802   3.802   4.315   8.136 -0.2710 -0.6519  0.6506
  159SAPE  C21517803   3.674   4.411   8.278 -0.3444 -0.0022  0.1868
  159SAPE  H15R17804   3.762   4.455   8.328 -0.4999 -2.0076  2.3248
  159SAPE  C21617805   3.543   4.470   8.325  0.1114  0.2292 -0.3854
  159SAPE  H16R17806   3.466   4.418   8.263 -0.6802 -1.0644  1.6541
  159SAPE  H16S17807   3.540   4.580   8.315 -1.5795  0.1070 -1.5373
  159SAPE  C21717808   3.508   4.430   8.472 -0.2303 -0.0907  0.1982
  159SAPE  H17R17809   3.562   4.502   8.538  2.5010 -0.9142 -1.0540
  159SAPE  H17S17810   3.552   4.334   8.505 -0.5913  0.2863  1.8596
  159SAPE  C21817811   3.360   4.453   8.504 -0.1867  0.0772  0.3804
  159SAPE  H18R17812   3.298   4.411   8.422 -0.0080 -0.4274  0.5012
  159SAPE  H18S17813   3.330   4.559   8.513 -2.4566 -0.7094  2.5537
  159SAPE  C21917814   3.305   4.413   8.648  0.7646 -0.1007  0.1330
  159SAPE  H19R17815   3.327   4.305   8.660  0.4750 -0.1186  0.5265
  159SAPE  H19S17816   3.195   4.426   8.646  0.9579  2.2770  2.2716
  159SAPE  C22017817   3.370   4.500   8.763  0.1549 -0.3134  0.7744
  159SAPE  H20R17818   3.369   4.608   8.737  0.5437 -1.2715 -3.5054
  159SAPE  H20S17819   3.473   4.459   8.770  0.0282 -1.1854 -1.8541
  159SAPE  H20T17820   3.315   4.485   8.859 -2.0024  0.6910 -0.2748
  159SAPE   C3317821   3.501   3.732   7.002 -0.1741 -0.4643 -0.7566
  159SAPE   H3X17822   3.554   3.643   6.963 -0.2402 -0.8368 -0.0022
  159SAPE   H3Y17823   3.400   3.702   7.037  0.0806  0.9178  1.2865
  159SAPE   C3417824   3.570   3.791   7.119 -0.1743 -0.6826  0.2547
  159SAPE   H4X17825   3.509   3.877   7.152 -0.8032 -0.7187 -0.7852
  159SAPE   H4Y17826   3.678   3.816   7.107 -0.5639  0.0092 -2.1162
  159SAPE   C3517827   3.577   3.684   7.229  0.2271 -0.0886 -0.0477
  159SAPE   H5X17828   3.657   3.610   7.208  0.3383 -1.3203  4.1366
  159SAPE   H5Y17829   3.482   3.628   7.214  0.5535 -0.7613  0.3361
  159SAPE   C3617830   3.608   3.734   7.371 -1.3060 -0.3723  0.1718
  159SAPE   H6X17831   3.524   3.803   7.395 -0.1442  1.0668  0.2053
  159SAPE   H6Y17832   3.696   3.802   7.359 -0.7658 -0.9565  0.7521
  159SAPE   C3717833   3.630   3.620   7.471 -0.7507 -0.2308 -0.3261
  159SAPE   H7X17834   3.615   3.524   7.417  0.3749 -0.6331  0.0625
  159SAPE   H7Y17835   3.538   3.618   7.534 -0.0194 -0.4048  0.7474
  159SAPE   C3817836   3.767   3.612   7.526  0.5448 -0.1432 -0.2288
  159SAPE   H8X17837   3.844   3.629   7.448  1.4660  0.9382  0.8915
  159SAPE   H8Y17838   3.778   3.513   7.575 -1.1097  0.4110  1.3226
  159SAPE   C3917839   3.795   3.720   7.625 -0.2329  0.1128  0.4169
  159SAPE   H9X17840   3.743   3.694   7.720 -1.5332 -0.2912 -0.4012
  159SAPE   H9Y17841   3.759   3.816   7.583  2.2693  0.2341 -1.5966
  159SAPE  C31017842   3.948   3.723   7.645 -0.0840  0.1880 -0.7562
  159SAPE  H10X17843   3.997   3.767   7.555  3.6947  1.7109  1.8926
  159SAPE  H10Y17844   3.981   3.618   7.661 -2.0289 -0.2241  0.6949
  159SAPE  C31117845   3.981   3.820   7.769 -0.1533  0.3516  0.3728
  159SAPE  H11X17846   3.921   3.913   7.755  0.4735  0.6322 -0.5394
  159SAPE  H11Y17847   4.090   3.835   7.758 -0.0394 -0.7125  0.0291
  159SAPE  C31217848   3.939   3.768   7.906  0.2443 -0.3202 -0.5785
  159SAPE  H12X17849   3.987   3.671   7.928 -2.3767 -1.8777 -1.5894
  159SAPE  H12Y17850   3.830   3.769   7.923  0.2764  0.2956 -0.3868
  159SAPE  C31317851   4.011   3.854   8.013 -0.1432  0.5502 -0.0564
  159SAPE  H13X17852   3.978   3.960   8.016 -0.7778  0.3633 -0.2910
  159SAPE  H13Y17853   4.117   3.851   7.983 -0.9080  0.3955 -2.8554
  159SAPE  C31417854   3.986   3.805   8.158  0.0665  0.1517  0.1919
  159SAPE  H14X17855   4.006   3.696   8.161  1.2952  0.3369 -0.8266
  159SAPE  H14Y17856   3.879   3.830   8.173 -0.0980  0.1299 -0.9353
  159SAPE  C31517857   4.071   3.882   8.257 -1.1065 -0.2624 -0.1572
  159SAPE  H15X17858   4.077   3.990   8.231 -0.6815  0.0592  1.2541
  159SAPE  H15Y17859   4.172   3.841   8.232 -1.7721 -0.4693 -2.6533
  159SAPE  C31617860   4.022   3.847   8.401  0.0937 -1.0340 -0.0084
  159SAPE  H16X17861   4.019   3.736   8.411 -2.7876 -1.1107 -1.2456
  159SAPE  H16Y17862   3.919   3.886   8.417  0.0331 -0.8743 -0.7709
  159SAPE  C31717863   4.108   3.902   8.506  0.1728  0.7052 -0.2938
  159SAPE  H17X17864   4.210   3.857   8.509  0.8887  2.4015  2.3974
  159SAPE  H17Y17865   4.061   3.875   8.602  2.0143 -3.7296 -0.5418
  159SAPE  C31817866   4.123   4.052   8.499 -0.2608  0.6811 -0.2279
  159SAPE  H18X17867   4.030   4.103   8.466 -0.2886 -0.2422 -1.6483
  159SAPE  H18Y17868   4.199   4.075   8.421  0.9177  1.5379  1.1685
  159SAPE  H18Z17869   4.163   4.089   8.595 -1.3452  0.0683  0.4722
  160SAPE     N17870   1.819   4.998   6.413  0.1527  0.1754  0.4320
  160SAPE   HN117871   1.737   5.061   6.398 -0.2316 -0.5952 -0.7946
  160SAPE   HN217872   1.850   4.976   6.316 -2.4537  0.7812 -0.5868
  160SAPE   HN317873   1.778   4.914   6.459  1.0123 -0.6302 -0.2686
  160SAPE   C1217874   1.925   5.055   6.494  0.6087 -0.3414  0.4341
  160SAPE  H12A17875   1.876   5.116   6.573 -0.0404 -0.2862 -0.0064
  160SAPE  H12B17876   1.984   5.130   6.437 -0.8682 -0.7211 -1.6496
  160SAPE   C1117877   2.006   4.945   6.558  0.2341  1.0361 -0.0345
  160SAPE  H11A17878   1.933   4.875   6.604 -0.1997 -0.1104 -2.3743
  160SAPE  H11B17879   2.073   4.992   6.634 -0.4682  1.0248  0.5938
  160SAPE     P17880   2.229   4.931   6.404 -0.4123 -0.0979 -0.6588
  160SAPE   O1317881   2.318   4.819   6.362  0.0359 -0.1122 -0.5979
  160SAPE   O1417882   2.198   5.034   6.300 -0.3211  0.1610  0.1016
  160SAPE   O1217883   2.091   4.876   6.461  0.5750 -0.1698 -0.0328
  160SAPE   O1117884   2.291   4.995   6.534  0.0207 -0.1345  0.4094
  160SAPE    C117885   2.347   4.906   6.638  1.1355 -0.1740  0.3162
  160SAPE    HA17886   2.259   4.861   6.689  0.0617  1.1231 -0.3363
  160SAPE    HB17887   2.413   4.824   6.602  2.9839 -0.0142  3.2042
  160SAPE    C217888   2.444   4.975   6.732 -0.1906  0.4054  0.6361
  160SAPE    HS17889   2.492   4.898   6.797  1.7486 -1.3403 -2.7602
  160SAPE   O2117890   2.373   5.075   6.814  0.7501  0.1376 -0.5090
  160SAPE   C2117891   2.304   5.016   6.915 -0.3634 -0.7994 -0.5848
  160SAPE   O2217892   2.307   4.901   6.945  0.3665 -0.0894 -0.0431
  160SAPE   C2217893   2.253   5.135   6.996  0.6090  0.3430 -0.7262
  160SAPE   H2R17894   2.335   5.208   7.010 -0.1501  1.3138 -1.2426
  160SAPE   H2S17895   2.173   5.190   6.941  1.2249 -0.7605 -2.7759
  160SAPE    C317896   2.549   5.063   6.659  0.2906 -0.5780 -0.6389
  160SAPE    HX17897   2.500   5.153   6.615 -0.0948 -1.5146 -2.1454
  160SAPE    HY17898   2.580   5.013   6.565  0.4928 -2.3612  0.3477
  160SAPE   O3117899   2.656   5.101   6.744  0.1533 -0.0505 -0.5261
  160SAPE   C3117900   2.774   5.031   6.746  0.1806 -0.3206  0.7502
  160SAPE   O3217901   2.801   4.932   6.680 -0.0195  0.1283 -0.1875
  160SAPE   C3217902   2.860   5.082   6.855  0.4165  0.7776 -0.1301
  160SAPE   H2X17903   2.908   4.995   6.905 -0.6138  0.5296  0.4417
  160SAPE   H2Y17904   2.791   5.123   6.932  0.9428 -1.2085  1.4244
  160SAPE   C2317905   2.198   5.100   7.137 -0.4903  0.9454  0.2652
  160SAPE   H3R17906   2.279   5.097   7.212  0.1040  1.4828 -0.3492
  160SAPE   H3S17907   2.150   5.001   7.151 -0.7077  0.9663 -0.3263
  160SAPE   C2417908   2.107   5.194   7.208 -0.3294 -0.0182 -0.1733
  160SAPE   H4R17909   2.061   5.146   7.297  0.5382 -0.2550  0.1538
  160SAPE   H4S17910   2.026   5.214   7.135  1.6080  2.4511 -1.7263
  160SAPE   C2517911   2.166   5.337   7.246 -0.5137  0.0185  0.0927
  160SAPE   H5R17912   2.221   5.385   7.164 -0.2663 -3.2882 -1.7668
  160SAPE   C2617913   2.146   5.403   7.359 -0.0219 -0.3340  0.5917
  160SAPE   H6R17914   2.197   5.500   7.358 -0.9933  0.1711 -1.0315
  160SAPE   C2717915   2.069   5.342   7.473 -0.6618 -0.2901  0.2162
  160SAPE   H7R17916   2.088   5.233   7.480 -0.2703 -0.2794 -0.5591
  160SAPE   H7S17917   1.962   5.360   7.448 -1.6874 -1.1603  3.7066
  160SAPE   C2817918   2.102   5.393   7.607  0.3854  0.2209  0.5250
  160SAPE   H8R17919   2.176   5.474   7.613 -0.7488  1.3908 -0.9686
  160SAPE   C2917920   2.036   5.366   7.727 -0.7320  0.6249  0.1344
  160SAPE   H9R17921   2.066   5.408   7.824  3.9564 -0.5703 -0.6451
  160SAPE  C21017922   1.920   5.273   7.740  0.4022  0.2115  0.6474
  160SAPE  H10R17923   1.950   5.188   7.804  2.1745 -0.3314 -0.8544
  160SAPE  H10S17924   1.909   5.226   7.640 -0.6653  0.4348  0.6559
  160SAPE  C21117925   1.788   5.330   7.786  0.7154 -0.7942 -0.2660
  160SAPE  H11R17926   1.752   5.423   7.739  1.9511  0.8593  1.9694
  160SAPE  C21217927   1.710   5.275   7.880 -0.4845 -0.2417 -1.0389
  160SAPE  H12R17928   1.625   5.333   7.920 -1.1297 -2.4002  0.8757
  160SAPE  C21317929   1.742   5.151   7.960 -0.1161  0.3112 -0.2114
  160SAPE  H13R17930   1.785   5.190   8.055  2.2702 -1.3858 -0.5369
  160SAPE  H13S17931   1.827   5.084   7.931 -0.1056 -0.1136  0.7955
  160SAPE  C21417932   1.619   5.065   7.988  0.5211 -0.3336  0.3153
  160SAPE  H14R17933   1.582   5.025   7.892 -0.7327  1.6050 -0.0255
  160SAPE  C21517934   1.559   5.031   8.100 -0.2881  0.4008 -0.4801
  160SAPE  H15R17935   1.472   4.963   8.095  0.7583 -0.8313 -2.4260
  160SAPE  C21617936   1.598   5.069   8.242 -0.4631  0.3638 -0.2295
  160SAPE  H16R17937   1.677   5.147   8.246  1.3014 -1.2784 -1.9080
  160SAPE  H16S17938   1.622   4.984   8.309 -1.5557  1.5650  1.7238
  160SAPE  C21717939   1.475   5.118   8.312 -0.8163  0.4738 -0.1487
  160SAPE  H17R17940   1.386   5.053   8.308 -0.5620  0.0998  0.2888
  160SAPE  H17S17941   1.439   5.214   8.268 -1.3572  0.0384 -0.6650
  160SAPE  C21817942   1.504   5.144   8.460  0.2314 -0.4436 -0.3386
  160SAPE  H18R17943   1.605   5.187   8.477 -0.1193  0.2999 -0.0762
  160SAPE  H18S17944   1.509   5.041   8.501  1.1925 -0.2971 -0.0792
  160SAPE  C21917945   1.407   5.227   8.539 -0.3970  0.1296  0.3792
  160SAPE  H19R17946   1.309   5.176   8.545  0.1726 -0.7476  2.8795
  160SAPE  H19S17947   1.387   5.323   8.487  0.2270  0.0812  0.0434
  160SAPE  C22017948   1.459   5.252   8.680  0.2984 -0.3109 -0.3735
  160SAPE  H20R17949   1.370   5.305   8.721 -2.1843 -2.7252 -2.4194
  160SAPE  H20S17950   1.534   5.334   8.675  0.2172 -0.3235 -2.1780
  160SAPE  H20T17951   1.500   5.175   8.748  0.6239 -0.1620 -0.4018
  160SAPE   C3317952   2.972   5.183   6.818 -0.4258  0.3253 -0.5239
  160SAPE   H3X17953   2.991   5.234   6.915 -1.0171  1.7288 -1.1359
  160SAPE   H3Y17954   2.938   5.258   6.744 -2.4388 -1.4326 -1.4423
  160SAPE   C3417955   3.106   5.131   6.763 -0.5278 -0.0428  0.1803
  160SAPE   H4X17956   3.176   5.216   6.759 -0.4223 -0.0884  0.9783
  160SAPE   H4Y17957   3.098   5.098   6.657  0.9799  0.7798 -0.1953
  160SAPE   C3517958   3.172   5.018   6.848  0.3781  0.3718 -0.7179
  160SAPE   H5X17959   3.263   4.990   6.790  1.8381  0.9766  1.2015
  160SAPE   H5Y17960   3.108   4.928   6.861  0.5279  0.5602  1.6721
  160SAPE   C3617961   3.226   5.063   6.981 -0.9148  0.7109  0.0281
  160SAPE   H6X17962   3.263   5.167   6.967 -1.7249  0.8950 -0.7754
  160SAPE   H6Y17963   3.314   5.003   7.012 -0.7465  0.8858 -0.1065
  160SAPE   C3717964   3.123   5.051   7.093  0.6765  0.2279  0.2030
  160SAPE   H7X17965   3.085   4.947   7.092 -1.0691  0.8606 -0.9929
  160SAPE   H7Y17966   3.034   5.108   7.060  0.7354  1.0704  1.4554
  160SAPE   C3817967   3.177   5.113   7.217  0.0846  0.2685 -0.3806
  160SAPE   H8X17968   3.202   5.220   7.204 -1.1139  0.8303  1.6604
  160SAPE   H8Y17969   3.256   5.051   7.264  0.1942  1.0678  0.4797
  160SAPE   C3917970   3.070   5.118   7.332  0.0978 -0.5504 -0.8015
  160SAPE   H9X17971   3.020   5.020   7.348  0.1148 -0.3201  0.6822
  160SAPE   H9Y17972   2.985   5.179   7.296 -0.7250 -0.7826  0.7218
  160SAPE  C31017973   3.124   5.162   7.468 -0.1130 -0.1664 -0.1044
  160SAPE  H10X17974   3.168   5.264   7.474 -2.7734  1.0840 -0.9325
  160SAPE  H10Y17975   3.207   5.099   7.505  1.1056  1.2418 -0.3558
  160SAPE  C31117976   3.013   5.174   7.568  0.6838  0.9664 -0.5895
  160SAPE  H11X17977   2.950   5.084   7.553  0.4722  1.0807 -0.3938
  160SAPE  H11Y17978   2.947   5.257   7.535  0.0422  1.3741  1.6262
  160SAPE  C31217979   3.064   5.181   7.711  0.6826  0.9526 -0.4196
  160SAPE  H12X17980   3.125   5.271   7.734  1.5560 -0.5793  3.7750
  160SAPE  H12Y17981   3.132   5.096   7.735  0.1461  0.1576 -1.6965
  160SAPE  C31317982   2.952   5.157   7.815  0.6634  0.3256  0.1635
  160SAPE  H13X17983   2.899   5.059   7.816  0.0928  0.6229  2.9342
  160SAPE  H13Y17984   2.881   5.241   7.800  1.0285  0.4651 -0.8286
  160SAPE  C31417985   3.015   5.173   7.957  0.2869  0.3831  0.0961
  160SAPE  H14X17986   3.083   5.261   7.949  1.1505 -0.3959 -1.5089
  160SAPE  H14Y17987   3.078   5.083   7.976 -1.5991 -1.1850 -0.9193
  160SAPE  C31517988   2.913   5.175   8.072  0.2395 -0.1071 -0.3475
  160SAPE  H15X17989   2.861   5.077   8.078  1.4237 -0.6913  0.9751
  160SAPE  H15Y17990   2.835   5.250   8.047  1.9706  1.7946 -0.1877
  160SAPE  C31617991   2.981   5.188   8.213  0.6296  0.2765  1.1409
  160SAPE  H16X17992   3.024   5.290   8.199 -1.1977  0.7453 -1.4775
  160SAPE  H16Y17993   3.060   5.110   8.223  0.7188 -0.0375 -1.4901
  160SAPE  C31717994   2.879   5.198   8.333  0.4100  0.2095  0.9747
  160SAPE  H17X17995   2.841   5.096   8.355  0.1893  0.4737  1.8351
  160SAPE  H17Y17996   2.794   5.264   8.308  0.1064 -0.2538  0.7864
  160SAPE  C31817997   2.948   5.255   8.451 -0.0477 -0.0569 -0.4420
  160SAPE  H18X17998   2.876   5.278   8.532  1.6607 -0.4912  1.2298
  160SAPE  H18Y17999   2.994   5.355   8.436  1.1384 -0.4962  0.2381
  160SAPE  H18Z18000   3.029   5.187   8.487  0.4842 -1.8541 -4.7086
  161SAPE     N18001   4.361   3.201   6.110  0.3108 -0.0424 -0.0133
  161SAPE   HN118002   4.321   3.172   6.019  0.8761  1.9233 -0.9234
  161SAPE   HN218003   4.384   3.302   6.098 -0.6244 -0.2143 -3.9193
  161SAPE   HN318004   4.455   3.155   6.114  1.3916  1.5918 -3.8792
  161SAPE   C1218005   4.279   3.164   6.219  0.2203  0.2274  0.0905
  161SAPE  H12A18006   4.176   3.201   6.197  0.8894  2.1151  0.0590
  161SAPE  H12B18007   4.310   3.224   6.307 -3.3094  2.4718 -0.0965
  161SAPE   C1118008   4.277   3.013   6.224 -0.4997 -0.0941  0.4077
  161SAPE  H11A18009   4.227   2.969   6.135  1.2993 -2.8670  0.7052
  161SAPE  H11B18010   4.215   2.967   6.304 -0.9968  0.3092  0.2510
  161SAPE     P18011   4.496   2.949   6.369  0.6324  0.6110 -0.5402
  161SAPE   O1318012   4.495   2.801   6.397 -0.6508 -0.4439  0.4703
  161SAPE   O1418013   4.626   3.013   6.350 -0.3519  1.2640 -0.4303
  161SAPE   O1218014   4.410   2.966   6.231 -0.2642  0.4771  0.1750
  161SAPE   O1118015   4.408   3.019   6.481 -0.2174 -0.2642 -0.2758
  161SAPE    C118016   4.457   3.138   6.543  0.1911 -0.5126  0.4725
  161SAPE    HA18017   4.516   3.205   6.477 -1.2883 -1.1868 -1.5724
  161SAPE    HB18018   4.362   3.188   6.575 -0.6367 -1.0656 -1.0887
  161SAPE    C218019   4.534   3.106   6.672  0.3972  0.3786 -0.1074
  161SAPE    HS18020   4.610   3.030   6.642 -1.3727 -1.0413 -1.1227
  161SAPE   O2118021   4.443   3.049   6.768 -0.4810  0.5709  0.2504
  161SAPE   C2118022   4.505   2.953   6.844  0.4034  0.1313 -0.0142
  161SAPE   O2218023   4.601   2.886   6.805  0.1287  0.4338 -0.0570
  161SAPE   C2218024   4.418   2.920   6.965  0.0137  1.0006 -0.3190
  161SAPE   H2R18025   4.481   2.885   7.050 -0.8735 -2.6035 -1.0663
  161SAPE   H2S18026   4.360   3.011   6.991 -5.4654 -1.6801 -2.4537
  161SAPE    C318027   4.610   3.228   6.731 -0.3196  0.1321 -0.0299
  161SAPE    HX18028   4.530   3.298   6.765 -1.2441 -0.4896 -0.8800
  161SAPE    HY18029   4.671   3.291   6.663 -1.4695  0.4148 -0.8089
  161SAPE   O3118030   4.687   3.212   6.852 -0.4209 -0.3973 -0.0250
  161SAPE   C3118031   4.792   3.127   6.847 -0.7051  0.2692  0.3074
  161SAPE   O3218032   4.828   3.060   6.753  0.1418  0.4513 -0.0346
  161SAPE   C3218033   4.854   3.112   6.982 -0.8629 -0.1586  0.5247
  161SAPE   H2X18034   4.902   3.210   7.005  1.2342 -1.1275  0.3838
  161SAPE   H2Y18035   4.941   3.043   6.986 -1.6753 -1.1977  0.6007
  161SAPE   C2318036   4.325   2.796   6.945  0.7083  0.4893 -0.1640
  161SAPE   H3R18037   4.389   2.713   6.908  0.3175  0.3630 -0.5592
  161SAPE   H3S18038   4.247   2.807   6.867  0.3944  0.2481  0.1145
  161SAPE   C2418039   4.257   2.750   7.070  0.7297 -0.1530  0.5074
  161SAPE   H4R18040   4.336   2.733   7.146 -1.1358 -1.4158  2.2044
  161SAPE   H4S18041   4.208   2.650   7.061 -1.1101  0.8585 -1.2437
  161SAPE   C2518042   4.158   2.855   7.107  0.7552 -1.0366 -0.5401
  161SAPE   H5R18043   4.082   2.887   7.035 -0.3201 -0.8116  0.6744
  161SAPE   C2618044   4.163   2.922   7.228 -0.2616 -0.2576 -0.4961
  161SAPE   H6R18045   4.086   2.996   7.255  1.0922  1.3413 -0.9923
  161SAPE   C2718046   4.253   2.893   7.346 -1.0257 -0.4683  0.1259
  161SAPE   H7R18047   4.278   2.785   7.355  1.7016 -0.0639 -1.8434
  161SAPE   H7S18048   4.190   2.914   7.435 -1.0607 -0.2761  0.0565
  161SAPE   C2818049   4.378   2.969   7.356 -0.4922  0.1072  0.4993
  161SAPE   H8R18050   4.443   2.976   7.268 -0.1846 -0.9680  0.6291
  161SAPE   C2918051   4.414   3.036   7.464 -0.5577 -0.3374 -0.0213
  161SAPE   H9R18052   4.510   3.088   7.455 -0.8191  0.0708 -0.5111
  161SAPE  C21018053   4.349   3.041   7.595 -0.3146  0.0847  1.2382
  161SAPE  H10R18054   4.351   2.938   7.637  1.7233 -0.0753  0.8026
  161SAPE  H10S18055   4.244   3.076   7.594 -0.0039  1.0951 -1.4647
  161SAPE  C21118056   4.433   3.119   7.701  0.5241 -0.1046  0.0188
  161SAPE  H11R18057   4.493   3.060   7.772  0.4348  2.5867  2.4181
  161SAPE  C21218058   4.431   3.251   7.721 -0.7720 -0.3351 -0.1600
  161SAPE  H12R18059   4.499   3.302   7.790 -1.4883  0.4504 -0.0241
  161SAPE  C21318060   4.341   3.345   7.650  0.5330 -0.1159 -0.2551
  161SAPE  H13R18061   4.278   3.296   7.573  0.0329 -2.0479  1.3132
  161SAPE  H13S18062   4.411   3.410   7.593  0.8174 -0.7054 -0.5877
  161SAPE  C21418063   4.255   3.433   7.739 -0.9446  0.1510  0.1852
  161SAPE  H14R18064   4.147   3.417   7.729 -0.8027 -0.7398  0.0175
  161SAPE  C21518065   4.297   3.527   7.827 -0.3024  0.7391 -0.1941
  161SAPE  H15R18066   4.218   3.596   7.859  0.4371  0.4396  2.4117
  161SAPE  C21618067   4.440   3.575   7.861 -0.7244  1.1703 -0.0164
  161SAPE  H16R18068   4.451   3.668   7.802  2.2975  2.3696  2.2942
  161SAPE  H16S18069   4.526   3.516   7.822 -1.7068 -1.2005  1.3314
  161SAPE  C21718070   4.466   3.596   8.017  0.0705 -0.1521  0.4575
  161SAPE  H17R18071   4.401   3.683   8.039 -1.2179 -1.0179  0.1504
  161SAPE  H17S18072   4.571   3.618   8.047  1.0782 -3.7278 -0.2085
  161SAPE  C21818073   4.404   3.486   8.102 -0.5074  0.4865  0.3533
  161SAPE  H18R18074   4.454   3.391   8.071  0.0595  1.2307 -1.0727
  161SAPE  H18S18075   4.295   3.476   8.082 -0.3708  0.9469 -0.6777
  161SAPE  C21918076   4.435   3.498   8.254  0.3775  0.6076 -0.7280
  161SAPE  H19R18077   4.542   3.527   8.261  1.1095 -2.0195 -0.3843
  161SAPE  H19S18078   4.420   3.402   8.308  0.1901  1.9182  1.6232
  161SAPE  C22018079   4.340   3.604   8.324 -0.2217  0.1698  0.5254
  161SAPE  H20R18080   4.325   3.697   8.265 -0.3261  0.0926  0.4289
  161SAPE  H20S18081   4.379   3.610   8.428 -2.1198  0.5651  1.2362
  161SAPE  H20T18082   4.240   3.556   8.329 -0.3690  0.1718 -1.6671
  161SAPE   C3318083   4.758   3.088   7.093 -0.5534  0.4314 -0.6365
  161SAPE   H3X18084   4.682   3.008   7.083 -0.7839  0.3438  1.5865
  161SAPE   H3Y18085   4.698   3.180   7.108 -0.2578  0.5344 -0.0942
  161SAPE   C3418086   4.840   3.075   7.229  0.7685  0.3767  0.3987
  161SAPE   H4X18087   4.917   3.155   7.231  2.4381 -1.2312  2.3304
  161SAPE   H4Y18088   4.908   2.988   7.223 -2.5030 -2.3125  0.7294
  161SAPE   C3518089   4.761   3.067   7.355  0.1125 -0.1019 -1.6403
  161SAPE   H5X18090   4.724   2.965   7.379 -3.2843  1.3938 -0.1396
  161SAPE   H5Y18091   4.679   3.142   7.354  0.0481 -0.1018  1.2555
  161SAPE   C3618092   4.849   3.107   7.480  0.0730  0.4626  0.8685
  161SAPE   H6X18093   4.940   3.162   7.450 -0.3147 -0.3541 -2.0185
  161SAPE   H6Y18094   4.891   3.016   7.527 -1.1830 -0.6588 -0.1361
  161SAPE   C3718095   4.763   3.176   7.590 -0.5247 -0.4329 -0.5079
  161SAPE   H7X18096   4.675   3.110   7.608 -0.3243 -0.5839 -0.0769
  161SAPE   H7Y18097   4.732   3.272   7.545  0.3951  0.2184  0.2302
  161SAPE   C3818098   4.816   3.217   7.730  0.2783  0.2925  0.4227
  161SAPE   H8X18099   4.739   3.272   7.789 -0.5805 -0.2630 -0.1787
  161SAPE   H8Y18100   4.906   3.283   7.727  1.5160 -1.1938  2.7476
  161SAPE   C3918101   4.864   3.097   7.804 -0.5700  0.2439  0.2603
  161SAPE   H9X18102   4.965   3.070   7.765 -1.6288 -2.8491 -0.5129
  161SAPE   H9Y18103   4.794   3.011   7.792 -1.6451  1.0173  0.9025
  161SAPE  C31018104   4.878   3.126   7.957 -0.2876 -0.3364  0.2674
  161SAPE  H10X18105   4.775   3.125   7.998 -0.6364  1.7753 -0.5049
  161SAPE  H10Y18106   4.920   3.226   7.981  2.2039 -1.2158 -0.2522
  161SAPE  C31118107   4.979   3.034   8.032  0.3403 -0.0895  0.9739
  161SAPE  H11X18108   5.081   3.066   8.001 -0.3724 -2.4348 -4.4806
  161SAPE  H11Y18109   4.960   2.928   8.005  0.6524 -0.6418  2.8823
  161SAPE  C31218110   4.975   3.056   8.186 -1.0100 -0.3941 -0.4877
  161SAPE  H12X18111   5.001   2.960   8.236 -1.5665  0.4824  1.5371
  161SAPE  H12Y18112   4.878   3.094   8.224 -1.0180  1.0396 -1.8890
  161SAPE  C31318113   5.077   3.159   8.237 -0.1696 -0.1130 -0.0289
  161SAPE  H13X18114   5.066   3.261   8.197  0.4464 -0.2785 -0.6347
  161SAPE  H13Y18115   5.183   3.136   8.211 -0.1369  0.3691 -0.3215
  161SAPE  C31418116   5.079   3.165   8.392  0.1545  0.8866  0.3237
  161SAPE  H14X18117   5.123   3.072   8.434  0.3544  0.8255 -0.0210
  161SAPE  H14Y18118   4.979   3.169   8.440  0.3497  1.1711  0.7125
  161SAPE  C31518119   5.152   3.288   8.446  0.1999 -0.6931 -0.4786
  161SAPE  H15X18120   5.083   3.374   8.437 -2.0341 -2.2473  1.2614
  161SAPE  H15Y18121   5.242   3.310   8.383 -0.0106  0.3775 -0.4028
  161SAPE  C31618122   5.202   3.290   8.594  0.2263 -0.0234  0.0655
  161SAPE  H16X18123   5.115   3.263   8.657  0.9170 -0.3808  0.8714
  161SAPE  H16Y18124   5.240   3.388   8.627 -0.5167  0.1001  0.5618
  161SAPE  C31718125   5.300   3.181   8.625  0.0100  0.4100  0.2421
  161SAPE  H17X18126   5.379   3.193   8.547 -0.2004 -1.0873 -0.2242
  161SAPE  H17Y18127   5.243   3.086   8.625 -2.3157  1.7598  2.2881
  161SAPE  C31818128   5.376   3.188   8.757  0.0558 -0.0059  0.5118
  161SAPE  H18X18129   5.404   3.290   8.791 -2.0143  0.7368  0.0329
  161SAPE  H18Y18130   5.468   3.126   8.759 -1.0493 -1.6798  0.4529
  161SAPE  H18Z18131   5.305   3.153   8.835  1.9771  1.8755  3.1887
  162SAPE     N18132   3.152   6.336   5.912 -0.0687  0.3104 -0.0806
  162SAPE   HN118133   3.200   6.310   6.000 -0.1856 -1.2261 -0.4470
  162SAPE   HN218134   3.212   6.317   5.828 -1.8276  0.4404 -1.3978
  162SAPE   HN318135   3.140   6.439   5.916 -2.3898 -0.0181  2.4361
  162SAPE   C1218136   3.025   6.260   5.892  0.3728  0.0872  0.2255
  162SAPE  H12A18137   3.047   6.163   5.844 -0.4525  0.2762 -0.5328
  162SAPE  H12B18138   2.965   6.319   5.820 -0.2006  0.0102  0.6453
  162SAPE   C1118139   2.950   6.231   6.023 -0.0119 -0.3378 -0.3406
  162SAPE  H11A18140   2.859   6.172   6.000 -0.7874  0.2219  1.2421
  162SAPE  H11B18141   2.922   6.329   6.066  1.8991  0.4920 -0.9064
  162SAPE     P18142   3.007   6.020   6.167 -0.8362 -0.1474 -0.1878
  162SAPE   O1318143   2.961   5.934   6.050  0.2467  0.3058 -0.4180
  162SAPE   O1418144   3.123   5.961   6.239  0.2143  0.6127 -0.0726
  162SAPE   O1218145   3.034   6.169   6.119  0.5987 -0.6972 -0.1132
  162SAPE   O1118146   2.894   6.033   6.275  0.4404 -0.5382  0.0750
  162SAPE    C118147   2.895   6.152   6.359  0.7084 -0.4962  0.2027
  162SAPE    HA18148   2.987   6.215   6.358 -1.2828  2.5102  1.0652
  162SAPE    HB18149   2.816   6.220   6.319  1.3206  0.8013  1.1446
  162SAPE    C218150   2.859   6.111   6.505 -0.3986  0.0710  0.5432
  162SAPE    HS18151   2.845   6.196   6.575 -0.0604 -0.1873  0.9291
  162SAPE   O2118152   2.953   6.019   6.557  0.0346 -0.0274  0.6063
  162SAPE   C2118153   3.065   6.076   6.603  0.4299  0.0953  0.4059
  162SAPE   O2218154   3.079   6.196   6.632  0.0886  0.3682  0.0290
  162SAPE   C2218155   3.173   5.973   6.628 -0.5087  0.7415 -0.0768
  162SAPE   H2R18156   3.116   5.887   6.669 -1.0819 -0.3786 -3.0672
  162SAPE   H2S18157   3.199   5.953   6.522  1.2637 -0.4982  0.5921
  162SAPE    C318158   2.725   6.033   6.514 -0.4676 -0.4597  0.0565
  162SAPE    HX18159   2.748   5.932   6.475 -0.1102 -0.0307 -0.8780
  162SAPE    HY18160   2.646   6.088   6.459 -1.2933 -1.2156  0.4719
  162SAPE   O3118161   2.684   6.030   6.656 -0.4425 -0.5463  0.3926
  162SAPE   C3118162   2.718   5.925   6.728  0.7337  0.2831  0.2290
  162SAPE   O3218163   2.788   5.831   6.689  0.1061  0.4347 -0.1377
  162SAPE   C3218164   2.642   5.950   6.861 -1.0451 -0.6190 -0.1265
  162SAPE   H2X18165   2.556   5.881   6.864 -1.4821 -0.2558 -3.3399
  162SAPE   H2Y18166   2.605   6.053   6.878 -0.9838 -0.6134 -0.0209
  162SAPE   C2318167   3.298   6.009   6.709  0.7849  0.1703 -0.4357
  162SAPE   H3R18168   3.328   6.111   6.678  0.1357  0.7396  0.8172
  162SAPE   H3S18169   3.376   5.937   6.674 -0.8046 -1.1538 -1.3327
  162SAPE   C2418170   3.268   6.014   6.859  0.3268  0.3822 -0.7072
  162SAPE   H4R18171   3.260   5.908   6.889 -1.6907  0.8499  0.4659
  162SAPE   H4S18172   3.166   6.056   6.867 -0.2253 -0.9215 -0.8399
  162SAPE   C2518173   3.372   6.092   6.939 -0.4062  0.3153  0.0177
  162SAPE   H5R18174   3.374   6.199   6.916  3.1612  0.2448 -0.2603
  162SAPE   C2618175   3.445   6.038   7.030 -0.3270  0.1197 -0.0897
  162SAPE   H6R18176   3.513   6.102   7.088  1.4434 -1.2419 -0.5967
  162SAPE   C2718177   3.449   5.891   7.067  0.2793  0.0900 -0.6199
  162SAPE   H7R18178   3.538   5.863   7.128 -0.2666 -0.0562  0.1224
  162SAPE   H7S18179   3.448   5.826   6.977 -0.3254  0.2016 -0.6978
  162SAPE   C2818180   3.334   5.844   7.149  0.0532 -0.6190 -0.1485
  162SAPE   H8R18181   3.265   5.781   7.090 -0.3146 -1.2836  0.9775
  162SAPE   C2918182   3.311   5.861   7.282  0.2677  0.4883 -0.4538
  162SAPE   H9R18183   3.208   5.839   7.315  0.5935  0.9044  0.8381
  162SAPE  C21018184   3.408   5.934   7.367  0.6412 -0.2874 -0.0433
  162SAPE  H10R18185   3.361   6.017   7.424  2.8535  1.2315 -0.3698
  162SAPE  H10S18186   3.481   5.990   7.305 -0.1375  1.2904  0.4521
  162SAPE  C21118187   3.503   5.852   7.457  0.2005  0.2965  0.6591
  162SAPE  H11R18188   3.556   5.781   7.392  0.7548 -0.4764  1.9497
  162SAPE  C21218189   3.525   5.860   7.589 -0.1913 -0.1443 -0.3448
  162SAPE  H12R18190   3.585   5.775   7.627  1.7300  1.4921  0.4207
  162SAPE  C21318191   3.458   5.939   7.699 -0.4871  0.4958  0.0600
  162SAPE  H13R18192   3.372   5.891   7.749  0.2687  0.3279  1.2129
  162SAPE  H13S18193   3.414   6.031   7.655 -1.1232  0.2829  0.2579
  162SAPE  C21418194   3.562   5.991   7.799  0.1642  0.1191 -0.3715
  162SAPE  H14R18195   3.628   6.072   7.765  0.8244  0.5398  1.8457
  162SAPE  C21518196   3.569   5.959   7.925  0.2165 -0.2054  0.3726
  162SAPE  H15R18197   3.655   5.998   7.982  2.4287 -2.6074 -1.1934
  162SAPE  C21618198   3.483   5.866   8.006  0.9865  0.3248 -1.1568
  162SAPE  H16R18199   3.547   5.807   8.075 -0.5018  0.3872  0.3190
  162SAPE  H16S18200   3.447   5.792   7.930  1.1484 -0.5121 -0.4221
  162SAPE  C21718201   3.356   5.918   8.081  0.6763  0.5736  0.4791
  162SAPE  H17R18202   3.308   5.822   8.111  1.6574  0.0619  0.4497
  162SAPE  H17S18203   3.291   5.973   8.009  0.3502 -1.0693 -0.5091
  162SAPE  C21818204   3.393   5.995   8.206  0.1274  0.3423 -0.0297
  162SAPE  H18R18205   3.448   6.088   8.177 -0.8224  0.9430  0.0727
  162SAPE  H18S18206   3.455   5.917   8.256  0.7077  0.9350  0.1864
  162SAPE  C21918207   3.273   6.020   8.293 -0.2808  0.4042 -0.7581
  162SAPE  H19R18208   3.216   5.925   8.302  0.6888  0.0094  1.4083
  162SAPE  H19S18209   3.203   6.092   8.243 -0.7910 -0.4462 -1.2780
  162SAPE  C22018210   3.301   6.076   8.428 -0.3012  0.8156 -0.3005
  162SAPE  H20R18211   3.362   6.165   8.404 -0.6482  1.1504  0.0423
  162SAPE  H20S18212   3.357   6.005   8.492 -0.0563  1.3710  0.1071
  162SAPE  H20T18213   3.206   6.108   8.477 -0.1088  0.5220  0.2731
  162SAPE   C3318214   2.718   5.919   6.990 -0.3552  0.2901  0.4944
  162SAPE   H3X18215   2.756   5.814   6.992 -1.2450 -0.0507 -0.0959
  162SAPE   H3Y18216   2.657   5.939   7.080  1.8389  1.1599  1.8415
  162SAPE   C3418217   2.841   6.012   7.000 -0.1532  0.5858  0.5367
  162SAPE   H4X18218   2.800   6.115   6.986  0.7464  0.8063 -0.5254
  162SAPE   H4Y18219   2.914   5.991   6.919 -1.8444  0.9820 -1.1133
  162SAPE   C3518220   2.915   6.013   7.136 -0.0672 -0.6900 -0.4904
  162SAPE   H5X18221   2.953   5.910   7.151 -0.1003 -0.3588  2.1060
  162SAPE   H5Y18222   2.841   6.026   7.218  1.1161 -0.3769  0.5371
  162SAPE   C3618223   3.025   6.116   7.162  0.0732  0.2507  0.0133
  162SAPE   H6X18224   2.987   6.219   7.150  0.1100 -0.0156 -2.7472
  162SAPE   H6Y18225   3.112   6.096   7.095  1.2351  0.6928  1.3602
  162SAPE   C3718226   3.076   6.123   7.309 -0.1600 -0.2118 -0.2472
  162SAPE   H7X18227   3.161   6.194   7.307  0.8862 -1.4385 -0.1466
  162SAPE   H7Y18228   3.124   6.027   7.337 -0.0363 -0.1098 -0.1123
  162SAPE   C3818229   2.967   6.167   7.410 -0.3172 -0.7760 -0.5404
  162SAPE   H8X18230   2.883   6.097   7.392  0.6441 -2.5357  1.5487
  162SAPE   H8Y18231   2.933   6.262   7.364  1.1612  0.8035  1.5102
  162SAPE   C3918232   3.026   6.170   7.553 -0.1060 -0.0424 -0.9578
  162SAPE   H9X18233   3.114   6.237   7.551 -1.3490  1.7676  1.5341
  162SAPE   H9Y18234   3.062   6.071   7.587 -1.8113 -0.1446  0.6515
  162SAPE  C31018235   2.924   6.223   7.651  0.0998  0.5135 -1.1264
  162SAPE  H10X18236   2.848   6.143   7.666  3.0137 -1.9805  1.1572
  162SAPE  H10Y18237   2.876   6.317   7.616  0.0761  0.1795 -1.9878
  162SAPE  C31118238   2.993   6.256   7.787  0.4377  0.3748 -0.5334
  162SAPE  H11X18239   3.064   6.340   7.771  1.0864  0.2484  1.5191
  162SAPE  H11Y18240   3.050   6.165   7.817  0.9057  0.9743  0.4269
  162SAPE  C31218241   2.883   6.290   7.887 -0.4197  0.3322  1.0240
  162SAPE  H12X18242   2.826   6.197   7.912  1.6832 -1.3797 -0.3582
  162SAPE  H12Y18243   2.812   6.358   7.836 -0.7087 -1.5601 -1.2093
  162SAPE  C31318244   2.950   6.339   8.023  0.1566  0.5586  0.1899
  162SAPE  H13X18245   3.020   6.423   8.000 -1.6614  2.8522  2.6326
  162SAPE  H13Y18246   3.015   6.253   8.049  1.6610  1.1271 -1.5739
  162SAPE  C31418247   2.848   6.379   8.133  0.1119 -0.7469  0.4426
  162SAPE  H14X18248   2.750   6.326   8.127 -1.0650  1.3956  0.1937
  162SAPE  H14Y18249   2.832   6.488   8.120  1.6426 -0.6281 -0.5853
  162SAPE  C31518250   2.899   6.362   8.270 -0.3703  0.1520 -0.4594
  162SAPE  H15X18251   2.859   6.427   8.350  0.7404 -0.3567  0.5290
  162SAPE  H15Y18252   3.004   6.397   8.258 -0.1268 -0.3682  0.1128
  162SAPE  C31618253   2.871   6.226   8.328 -0.0483  0.3332  0.1608
  162SAPE  H16X18254   2.962   6.164   8.345 -0.2858 -0.3011 -0.8314
  162SAPE  H16Y18255   2.814   6.162   8.257 -1.1246  2.1622 -0.6362
  162SAPE  C31718256   2.796   6.220   8.463 -0.7563  0.1083  0.0202
  162SAPE  H17X18257   2.733   6.130   8.480 -1.7225  0.8919  0.6272
  162SAPE  H17Y18258   2.718   6.297   8.445 -1.1567 -0.6536 -1.5915
  162SAPE  C31818259   2.892   6.244   8.575 -0.1176 -0.4863  0.0220
  162SAPE  H18X18260   2.960   6.330   8.555  0.1061  0.5557  4.5921
  162SAPE  H18Y18261   2.951   6.153   8.598  2.4880  0.8154 -1.2998
  162SAPE  H18Z18262   2.839   6.272   8.669  0.5063  1.1298 -0.0794
  163SAPE     N18263   2.363   4.562   6.496  0.5259  0.2870 -0.1284
  163SAPE   HN118264   2.423   4.585   6.578  2.2032  0.1851 -1.3064
  163SAPE   HN218265   2.397   4.477   6.448 -0.4376 -0.3186  0.2427
  163SAPE   HN318266   2.378   4.636   6.425  0.3409 -2.0185 -2.6447
  163SAPE   C1218267   2.216   4.550   6.522  1.0017 -0.6216 -0.6642
  163SAPE  H12A18268   2.171   4.507   6.430 -0.8295 -1.2867  0.5200
  163SAPE  H12B18269   2.178   4.654   6.531 -1.9763 -1.6400 -0.7188
  163SAPE   C1118270   2.170   4.459   6.639 -0.2260  0.3456  0.1395
  163SAPE  H11A18271   2.060   4.475   6.642 -0.3235 -0.2451 -0.2616
  163SAPE  H11B18272   2.206   4.491   6.739 -0.0218  0.0142  0.1721
  163SAPE     P18273   2.110   4.228   6.533  0.0152 -0.3520 -0.4263
  163SAPE   O1318274   2.116   4.276   6.394  0.1638  0.2606  0.5751
  163SAPE   O1418275   2.141   4.086   6.546 -0.3419 -0.4216 -0.4631
  163SAPE   O1218276   2.204   4.317   6.625 -0.1547 -0.1790  0.4642
  163SAPE   O1118277   1.967   4.253   6.609 -0.7427 -0.1007  0.0173
  163SAPE    C118278   1.916   4.163   6.708 -0.3640  0.2311  0.6109
  163SAPE    HA18279   1.811   4.197   6.721 -0.2152  1.3252 -0.8414
  163SAPE    HB18280   1.920   4.056   6.679 -1.6983 -0.3248  2.3595
  163SAPE    C218281   1.980   4.189   6.849  0.7262 -0.6940 -0.1980
  163SAPE    HS18282   1.984   4.299   6.858 -3.2670 -0.4157 -1.2680
  163SAPE   O2118283   2.104   4.126   6.848  0.3230  0.2354  0.4048
  163SAPE   C2118284   2.199   4.168   6.925 -0.2404  0.1049  0.4050
  163SAPE   O2218285   2.188   4.244   7.021  0.4099  0.7940 -0.2436
  163SAPE   C2218286   2.331   4.108   6.878 -0.2825  0.4182  0.0477
  163SAPE   H2R18287   2.340   4.015   6.937 -0.8483  0.7059  0.5916
  163SAPE   H2S18288   2.311   4.081   6.772 -1.5658 -0.4849  0.5135
  163SAPE    C318289   1.884   4.136   6.965 -0.4703  0.0741 -0.5368
  163SAPE    HX18290   1.870   4.027   6.952  0.5271 -0.4203  2.1868
  163SAPE    HY18291   1.784   4.183   6.954 -0.0431  0.9714 -0.6233
  163SAPE   O3118292   1.933   4.142   7.101  0.3973 -0.5737 -0.7300
  163SAPE   C3118293   1.879   4.238   7.174  0.5506 -0.1403 -0.3367
  163SAPE   O3218294   1.810   4.331   7.133 -0.0731  0.3806  0.7176
  163SAPE   C3218295   1.927   4.229   7.314 -0.0112 -0.0336  0.8185
  163SAPE   H2X18296   2.037   4.244   7.312  0.0976 -0.9718 -1.5668
  163SAPE   H2Y18297   1.920   4.124   7.350 -0.1538  0.3693  1.9798
  163SAPE   C2318298   2.456   4.204   6.905 -0.1158 -0.6936  0.0036
  163SAPE   H3R18299   2.439   4.260   7.000 -1.0280 -1.0371  0.0483
  163SAPE   H3S18300   2.484   4.274   6.824  3.2371 -1.3773  0.5063
  163SAPE   C2418301   2.568   4.107   6.947  0.7177 -0.1240 -0.5316
  163SAPE   H4R18302   2.574   4.016   6.883  0.9150 -0.4315 -0.0796
  163SAPE   H4S18303   2.539   4.065   7.046 -0.1359 -2.0479 -1.5711
  163SAPE   C2518304   2.704   4.177   6.945 -0.1028 -0.3048 -0.6732
  163SAPE   H5R18305   2.758   4.188   6.849  2.0477 -0.5497  0.4826
  163SAPE   C2618306   2.757   4.232   7.061 -0.0201 -0.0279  0.3244
  163SAPE   H6R18307   2.853   4.284   7.049  0.1032 -0.6772 -1.6552
  163SAPE   C2718308   2.683   4.228   7.197 -0.5473  0.2981  0.1608
  163SAPE   H7R18309   2.677   4.128   7.246  1.6639 -0.8502 -1.8096
  163SAPE   H7S18310   2.581   4.270   7.182 -0.9602 -0.6168  0.3824
  163SAPE   C2818311   2.759   4.327   7.285 -0.4330  0.0904  0.0932
  163SAPE   H8R18312   2.751   4.426   7.238 -1.4269  0.9370  1.9712
  163SAPE   C2918313   2.818   4.307   7.408  0.2950 -0.0086  0.0751
  163SAPE   H9R18314   2.855   4.394   7.465  0.1732  0.7618 -1.0061
  163SAPE  C21018315   2.813   4.183   7.491  0.3348 -0.3219 -0.1688
  163SAPE  H10R18316   2.913   4.168   7.539  0.6660 -0.1558 -0.8042
  163SAPE  H10S18317   2.811   4.095   7.423  0.3990  1.8710 -3.0616
  163SAPE  C21118318   2.695   4.183   7.578 -0.3520  0.3530  0.3825
  163SAPE  H11R18319   2.603   4.184   7.518  1.3405  1.8185 -2.3541
  163SAPE  C21218320   2.688   4.167   7.708  0.4776 -0.7481 -0.1657
  163SAPE  H12R18321   2.591   4.188   7.754  0.3457  2.0441 -1.6436
  163SAPE  C21318322   2.806   4.154   7.799 -0.7189  0.5266 -0.1254
  163SAPE  H13R18323   2.822   4.256   7.839  1.5330 -0.2497  1.0714
  163SAPE  H13S18324   2.894   4.127   7.736 -1.6740  0.1207 -1.3051
  163SAPE  C21418325   2.795   4.054   7.913  0.2687 -0.1916  0.1935
  163SAPE  H14R18326   2.829   3.953   7.889  2.5949  0.2550  1.5387
  163SAPE  C21518327   2.763   4.084   8.037  0.2673 -0.1359  0.4672
  163SAPE  H15R18328   2.758   4.006   8.115 -0.5911 -0.6571 -0.1007
  163SAPE  C21618329   2.720   4.217   8.089  0.2528  0.1375  0.1392
  163SAPE  H16R18330   2.636   4.194   8.159  2.2699  0.8385  2.8859
  163SAPE  H16S18331   2.673   4.272   8.005  1.2421 -0.6024 -0.8995
  163SAPE  C21718332   2.832   4.301   8.165 -0.3106 -0.1285 -0.5117
  163SAPE  H17R18333   2.777   4.385   8.211 -0.8503 -0.1524 -1.0956
  163SAPE  H17S18334   2.913   4.345   8.103  1.4496  0.2045  1.9467
  163SAPE  C21818335   2.889   4.229   8.289 -0.0524  0.1235 -0.2696
  163SAPE  H18R18336   2.979   4.177   8.251  1.3703  2.2200  0.1618
  163SAPE  H18S18337   2.827   4.148   8.333  1.7944 -1.1607  0.0336
  163SAPE  C21918338   2.936   4.314   8.407  0.1955 -0.5622  0.7797
  163SAPE  H19R18339   3.019   4.381   8.373  1.4579 -2.8877 -0.8675
  163SAPE  H19S18340   2.973   4.246   8.486  2.6252 -0.0969  0.0953
  163SAPE  C22018341   2.833   4.391   8.495  0.8197 -0.3026 -0.4151
  163SAPE  H20R18342   2.764   4.317   8.540 -0.7664  0.5133 -1.4731
  163SAPE  H20S18343   2.766   4.463   8.445 -0.5043 -0.9686  0.3667
  163SAPE  H20T18344   2.886   4.433   8.583 -2.4185  2.2661  0.4042
  163SAPE   C3318345   1.856   4.320   7.414  0.1563 -0.0742  0.0507
  163SAPE   H3X18346   1.820   4.417   7.374  2.8993  0.9618 -0.0232
  163SAPE   H3Y18347   1.930   4.345   7.493  0.3999  1.7833 -0.7445
  163SAPE   C3418348   1.729   4.261   7.472  0.6076 -0.2451  0.3220
  163SAPE   H4X18349   1.745   4.158   7.510 -2.6120 -0.6933  0.6130
  163SAPE   H4Y18350   1.651   4.241   7.395  1.2483 -0.5479 -0.2494
  163SAPE   C3518351   1.669   4.344   7.576  0.0811 -0.7253  0.2547
  163SAPE   H5X18352   1.583   4.279   7.602 -1.0768  0.3323 -0.9091
  163SAPE   H5Y18353   1.630   4.440   7.538  0.9418  0.3331  1.9526
  163SAPE   C3618354   1.754   4.367   7.701  0.1820 -0.8369  0.4482
  163SAPE   H6X18355   1.834   4.438   7.670 -1.5874  0.4416 -1.3181
  163SAPE   H6Y18356   1.800   4.274   7.741 -1.8388 -1.2890  1.7805
  163SAPE   C3718357   1.652   4.436   7.798  0.0614  0.1382 -0.4233
  163SAPE   H7X18358   1.556   4.379   7.799 -0.4697  0.8833 -3.3656
  163SAPE   H7Y18359   1.621   4.537   7.763  1.4871  1.1486  1.1396
  163SAPE   C3818360   1.705   4.442   7.945 -0.1434  0.3359  0.4710
  163SAPE   H8X18361   1.794   4.508   7.957  0.2517  0.1360 -1.3425
  163SAPE   H8Y18362   1.728   4.334   7.955  1.4020  0.6584  0.6469
  163SAPE   C3918363   1.607   4.500   8.052 -0.1137 -0.1724 -0.3482
  163SAPE   H9X18364   1.576   4.601   8.018 -3.5380 -0.5157  1.5296
  163SAPE   H9Y18365   1.668   4.515   8.143  2.3339 -1.8513 -1.6446
  163SAPE  C31018366   1.476   4.423   8.067  0.2085 -0.4350 -0.1190
  163SAPE  H10X18367   1.496   4.315   8.085 -1.4794 -0.7432  0.0447
  163SAPE  H10Y18368   1.420   4.425   7.971 -0.6447 -2.8977  0.2861
  163SAPE  C31118369   1.381   4.487   8.177  0.1794  0.4542 -0.3420
  163SAPE  H11X18370   1.352   4.590   8.148 -2.8282 -0.6389 -1.5491
  163SAPE  H11Y18371   1.433   4.486   8.274 -1.4459 -0.5102  0.5487
  163SAPE  C31218372   1.253   4.401   8.203 -0.2251 -0.5802  0.4834
  163SAPE  H12X18373   1.276   4.298   8.238 -1.4951  0.0580  3.3292
  163SAPE  H12Y18374   1.203   4.396   8.104 -2.8648 -1.0233  1.8024
  163SAPE  C31318375   1.157   4.465   8.309  0.2484 -0.3796  1.2610
  163SAPE  H13X18376   1.065   4.497   8.257  1.1471 -0.7665 -0.6068
  163SAPE  H13Y18377   1.216   4.553   8.342  0.7576  0.0176 -0.6297
  163SAPE  C31418378   1.128   4.365   8.419  0.0577 -0.4331  0.4686
  163SAPE  H14X18379   1.215   4.316   8.468  0.0406  1.0042  1.9918
  163SAPE  H14Y18380   1.076   4.277   8.376 -1.5178  1.0307 -0.6884
  163SAPE  C31518381   1.041   4.427   8.537  0.9268  0.2610  0.0604
  163SAPE  H15X18382   1.093   4.515   8.578  0.0859  1.9346 -2.3711
  163SAPE  H15Y18383   1.029   4.350   8.617 -1.7603  1.3802  0.7992
  163SAPE  C31618384   0.898   4.467   8.496 -0.4550 -0.0639 -0.3015
  163SAPE  H16X18385   0.850   4.370   8.472  1.4915 -0.7192 -1.6743
  163SAPE  H16Y18386   0.907   4.536   8.409  0.0040  1.0770  0.6263
  163SAPE  C31718387   0.819   4.519   8.613  0.3490  0.3990  0.1668
  163SAPE  H17X18388   0.781   4.438   8.679  0.8989 -1.3134 -1.5746
  163SAPE  H17Y18389   0.728   4.558   8.563  0.3533 -0.8483 -0.8308
  163SAPE  C31818390   0.877   4.638   8.695 -0.1180 -0.1985 -0.4008
  163SAPE  H18X18391   0.801   4.684   8.760 -0.9779  0.0726 -1.5842
  163SAPE  H18Y18392   0.906   4.711   8.616  0.7859  1.8012  1.7059
  163SAPE  H18Z18393   0.967   4.620   8.759 -1.0999  2.3004  1.7760
  164SAPE     N18394   5.049   1.714   6.186  0.5277 -0.4567  1.1050
  164SAPE   HN118395   5.001   1.691   6.276  0.3739  0.0355  1.1519
  164SAPE   HN218396   5.140   1.670   6.208  1.1194 -1.2329 -2.5457
  164SAPE   HN318397   5.063   1.817   6.188  0.4691 -0.4686  2.9073
  164SAPE   C1218398   5.001   1.656   6.065  0.7702 -0.0624  0.2977
  164SAPE  H12A18399   5.081   1.672   5.989  1.5073 -2.4243  0.5304
  164SAPE  H12B18400   4.916   1.715   6.024 -1.2163 -2.7476  0.4505
  164SAPE   C1118401   4.976   1.507   6.079  0.7063 -0.2355 -0.2090
  164SAPE  H11A18402   5.011   1.458   6.173 -1.1325  1.5438  1.4413
  164SAPE  H11B18403   5.034   1.450   6.002  1.1128 -1.9274  1.3071
  164SAPE     P18404   4.767   1.325   6.046  0.3180  0.1129 -0.1524
  164SAPE   O1318405   4.660   1.348   5.946  0.1851  0.0536  0.2341
  164SAPE   O1418406   4.861   1.221   6.027 -0.2059  0.3408  0.2211
  164SAPE   O1218407   4.841   1.461   6.066  0.5100 -0.6722 -0.2155
  164SAPE   O1118408   4.694   1.305   6.181 -0.7580 -0.4676  0.2361
  164SAPE    C118409   4.670   1.409   6.280 -0.3580 -0.2542  0.1656
  164SAPE    HA18410   4.667   1.508   6.230 -0.8187  0.1043  0.8895
  164SAPE    HB18411   4.565   1.410   6.315  0.4642  1.2117  2.7820
  164SAPE    C218412   4.762   1.396   6.400  0.3947  0.2577  0.2048
  164SAPE    HS18413   4.866   1.379   6.363  0.6248  3.8094 -0.9830
  164SAPE   O2118414   4.715   1.284   6.473  0.1735  0.8167 -0.3640
  164SAPE   C2118415   4.807   1.224   6.542 -0.1374  0.8382  0.3666
  164SAPE   O2218416   4.923   1.257   6.551  0.0402 -0.5530  0.2055
  164SAPE   C2218417   4.746   1.109   6.624 -0.5040  0.2494  0.5265
  164SAPE   H2R18418   4.668   1.053   6.568  0.8181  0.0917 -1.1969
  164SAPE   H2S18419   4.836   1.045   6.633 -0.8092 -0.0774  1.3124
  164SAPE    C318420   4.758   1.515   6.499 -0.0450  0.3802 -0.0089
  164SAPE    HX18421   4.819   1.596   6.453 -1.9905  2.4088  0.8842
  164SAPE    HY18422   4.814   1.492   6.593  1.0388 -0.9487 -0.9634
  164SAPE   O3118423   4.622   1.560   6.531  0.0353 -0.1128 -0.3142
  164SAPE   C3118424   4.577   1.669   6.474  0.4929 -0.1996 -0.1105
  164SAPE   O3218425   4.638   1.734   6.393 -0.4200 -0.0388  0.1884
  164SAPE   C3218426   4.436   1.696   6.525 -0.0638 -0.3310  0.4944
  164SAPE   H2X18427   4.362   1.642   6.461  0.0025  0.3026 -0.1151
  164SAPE   H2Y18428   4.421   1.805   6.511 -0.8624 -0.6782 -1.4795
  164SAPE   C2318429   4.714   1.161   6.766 -0.1482 -0.0726 -0.4495
  164SAPE   H3R18430   4.796   1.220   6.814  0.4297 -2.4804  1.6631
  164SAPE   H3S18431   4.707   1.068   6.827  2.4652  0.2077  0.3769
  164SAPE   C2418432   4.577   1.233   6.773  0.3625  0.1679  0.3912
  164SAPE   H4R18433   4.494   1.166   6.743  1.0347 -1.3045  1.7631
  164SAPE   H4S18434   4.579   1.311   6.694  0.7219  1.9020  2.0725
  164SAPE   C2518435   4.530   1.316   6.895  0.4398  0.2268 -0.2106
  164SAPE   H5R18436   4.535   1.426   6.895 -2.7730  0.4296  0.9910
  164SAPE   C2618437   4.494   1.255   7.008  0.4599 -0.5608 -0.1869
  164SAPE   H6R18438   4.469   1.319   7.093 -1.6685 -0.0644 -1.1430
  164SAPE   C2718439   4.483   1.104   7.021 -1.1028  0.2245  0.3148
  164SAPE   H7R18440   4.580   1.057   7.045 -0.1727  1.5960 -0.7023
  164SAPE   H7S18441   4.456   1.057   6.924  0.9509  1.6544 -0.9942
  164SAPE   C2818442   4.372   1.067   7.124  0.4300  0.7464  0.3105
  164SAPE   H8R18443   4.281   1.025   7.078  1.6143 -1.3091 -0.2039
  164SAPE   C2918444   4.378   1.087   7.259  0.4442  0.3132 -0.1785
  164SAPE   H9R18445   4.289   1.047   7.309  1.4645 -0.3947  1.1082
  164SAPE  C21018446   4.487   1.145   7.340 -0.5803  0.4022  0.2272
  164SAPE  H10R18447   4.437   1.211   7.414 -1.7446  0.0242 -0.2249
  164SAPE  H10S18448   4.554   1.211   7.281  0.5124 -0.3188  0.6331
  164SAPE  C21118449   4.573   1.040   7.407 -0.4457 -0.9173 -0.3263
  164SAPE  H11R18450   4.655   1.001   7.346  1.4464  2.4321 -0.0681
  164SAPE  C21218451   4.556   1.000   7.533 -0.6365 -0.2182  0.0544
  164SAPE  H12R18452   4.611   0.912   7.569 -0.6990  0.8396  2.8511
  164SAPE  C21318453   4.446   1.042   7.627 -0.2525  0.6136  1.0148
  164SAPE  H13R18454   4.351   1.049   7.570 -0.9381 -1.9586  1.7800
  164SAPE  H13S18455   4.478   1.148   7.638 -3.2590  1.9773 -2.2713
  164SAPE  C21418456   4.427   0.949   7.751  0.1393 -0.3696  0.0376
  164SAPE  H14R18457   4.419   0.846   7.712  0.9560 -0.6461  0.6079
  164SAPE  C21518458   4.425   0.983   7.884 -0.6855 -0.0781 -0.3637
  164SAPE  H15R18459   4.394   0.908   7.959  0.4389  0.6762  0.8570
  164SAPE  C21618460   4.448   1.122   7.941 -0.3706  0.0102  0.6067
  164SAPE  H16R18461   4.359   1.171   7.985 -0.9944 -0.5620 -0.0219
  164SAPE  H16S18462   4.495   1.191   7.867  1.0334 -2.5553 -0.9671
  164SAPE  C21718463   4.558   1.102   8.040 -0.1744 -0.2861 -0.0184
  164SAPE  H17R18464   4.656   1.088   7.989  0.6424  1.5327  1.0212
  164SAPE  H17S18465   4.537   1.009   8.098 -3.8990  0.1773 -0.4557
  164SAPE  C21818466   4.568   1.218   8.145  0.4572 -0.0298 -0.5236
  164SAPE  H18R18467   4.463   1.248   8.167  1.2880  1.9998  0.7882
  164SAPE  H18S18468   4.614   1.307   8.098 -1.8106  1.2383 -0.4363
  164SAPE  C21918469   4.635   1.174   8.269 -0.1318 -0.3254  0.6590
  164SAPE  H19R18470   4.570   1.106   8.328  0.2670 -1.5400 -0.2871
  164SAPE  H19S18471   4.643   1.268   8.327 -1.0515  0.5087 -0.5319
  164SAPE  C22018472   4.772   1.101   8.255 -0.4019  0.2270  0.1951
  164SAPE  H20R18473   4.836   1.170   8.196 -3.1623  1.4548 -1.4971
  164SAPE  H20S18474   4.769   0.999   8.212  0.3241  0.0645  0.5279
  164SAPE  H20T18475   4.824   1.086   8.352  0.9180 -1.0974 -0.6988
  164SAPE   C3318476   4.403   1.651   6.669 -0.0704  0.4633 -0.2858
  164SAPE   H3X18477   4.416   1.541   6.668 -0.8589  0.3686 -1.2909
  164SAPE   H3Y18478   4.295   1.667   6.691  0.1532  1.2664  0.2591
  164SAPE   C3418479   4.501   1.726   6.762 -1.1092 -0.3765 -0.3680
  164SAPE   H4X18480   4.504   1.830   6.723  3.5791 -0.7896 -1.3543
  164SAPE   H4Y18481   4.599   1.675   6.755 -0.6595  0.7168 -2.6727
  164SAPE   C3518482   4.448   1.733   6.911  0.0089 -0.3054  0.3526
  164SAPE   H5X18483   4.436   1.631   6.954 -3.0346 -0.2338 -0.2522
  164SAPE   H5Y18484   4.360   1.800   6.918  2.3728  3.0119 -0.3938
  164SAPE   C3618485   4.559   1.782   7.002  0.5257  0.0420  0.2994
  164SAPE   H6X18486   4.582   1.888   6.976 -0.7731 -0.3801 -2.8612
  164SAPE   H6Y18487   4.652   1.725   6.986  0.1190 -0.2648 -0.9987
  164SAPE   C3718488   4.525   1.763   7.147  0.1755  0.5037  0.4629
  164SAPE   H7X18489   4.495   1.657   7.156  3.4414 -0.5234  0.2190
  164SAPE   H7Y18490   4.446   1.832   7.181  1.4559  1.8642  0.7495
  164SAPE   C3818491   4.651   1.768   7.235  0.5884  1.0200  0.8889
  164SAPE   H8X18492   4.676   1.874   7.256  2.6559  1.3113 -2.7073
  164SAPE   H8Y18493   4.736   1.715   7.189 -0.8700  0.1479 -0.8615
  164SAPE   C3918494   4.618   1.710   7.373  0.5831 -0.5087  0.0201
  164SAPE   H9X18495   4.508   1.694   7.378  0.3493  0.9626 -0.3198
  164SAPE   H9Y18496   4.660   1.775   7.453 -2.7430  1.3086  0.3693
  164SAPE  C31018497   4.687   1.573   7.400 -0.1094 -0.9012 -0.1244
  164SAPE  H10X18498   4.796   1.594   7.392 -0.3949  1.2327  1.0193
  164SAPE  H10Y18499   4.655   1.498   7.325 -1.2646 -0.3925 -0.1480
  164SAPE  C31118500   4.654   1.508   7.529  0.7765 -0.3030 -0.0184
  164SAPE  H11X18501   4.546   1.484   7.524  1.0967 -2.0003  0.9389
  164SAPE  H11Y18502   4.672   1.572   7.618  1.1275  3.1610 -2.5118
  164SAPE  C31218503   4.737   1.380   7.549  0.6535  0.3618  0.2352
  164SAPE  H12X18504   4.838   1.387   7.504  1.3844  0.2350  1.8182
  164SAPE  H12Y18505   4.678   1.302   7.495 -2.4691  2.3707  0.6471
  164SAPE  C31318506   4.760   1.329   7.691 -0.0777  0.2337 -0.1938
  164SAPE  H13X18507   4.812   1.232   7.675  2.1626  1.5405 -1.0985
  164SAPE  H13Y18508   4.667   1.311   7.748  0.0500  0.9704  0.2609
  164SAPE  C31418509   4.855   1.423   7.770  0.3216 -0.6533  0.6398
  164SAPE  H14X18510   4.804   1.519   7.795 -2.7806 -2.3245  0.8540
  164SAPE  H14Y18511   4.937   1.440   7.697 -0.0637  0.7399  0.5046
  164SAPE  C31518512   4.916   1.374   7.907  0.1219 -0.8709 -0.4981
  164SAPE  H15X18513   4.995   1.296   7.904  1.3245  0.3549 -0.9591
  164SAPE  H15Y18514   4.823   1.320   7.936  1.6276 -3.3784 -0.2009
  164SAPE  C31618515   4.944   1.488   8.005 -0.2453  0.4159  0.4555
  164SAPE  H16X18516   4.859   1.560   8.009 -1.4386 -0.9809  0.6508
  164SAPE  H16Y18517   5.038   1.541   7.980  1.1202 -1.4294  1.4901
  164SAPE  C31718518   4.961   1.438   8.144  0.0093  0.0247  0.3246
  164SAPE  H17X18519   4.890   1.358   8.172  0.9935 -1.0479 -0.2189
  164SAPE  H17Y18520   4.963   1.525   8.213 -0.2872  1.3138 -1.2425
  164SAPE  C31818521   5.098   1.369   8.175 -0.2124 -0.0769  0.6268
  164SAPE  H18X18522   5.102   1.346   8.283 -0.9608 -0.2134  0.6270
  164SAPE  H18Y18523   5.183   1.431   8.140 -0.0412 -1.2927 -1.2099
  164SAPE  H18Z18524   5.100   1.277   8.112 -0.0241  0.2374  0.1723
  165SAPE     N18525   4.318   3.926   6.284 -0.0244 -0.1097 -0.9194
  165SAPE   HN118526   4.336   4.020   6.324  3.2574 -0.7357 -0.8198
  165SAPE   HN218527   4.219   3.897   6.296  0.2213  0.1889  2.0737
  165SAPE   HN318528   4.373   3.865   6.347 -0.6655  0.2524 -0.0060
  165SAPE   C1218529   4.358   3.937   6.136  0.4882  0.1256 -0.0353
  165SAPE  H12A18530   4.280   3.998   6.086 -2.0128 -1.5665  1.6764
  165SAPE  H12B18531   4.343   3.835   6.093 -2.0139 -0.0387  1.1135
  165SAPE   C1118532   4.504   3.982   6.113  0.0532 -0.0836 -0.0946
  165SAPE  H11A18533   4.516   4.085   6.153  1.7571 -0.3035  0.0260
  165SAPE  H11B18534   4.522   3.988   6.003  1.9026 -0.6366  0.1633
  165SAPE     P18535   4.690   3.926   6.287  0.2078  0.0830 -0.2075
  165SAPE   O1318536   4.734   3.801   6.353 -0.0650  0.1726 -0.2111
  165SAPE   O1418537   4.788   4.027   6.233 -0.6189 -0.2712  0.6368
  165SAPE   O1218538   4.598   3.897   6.169 -0.0798  0.0871 -0.2781
  165SAPE   O1118539   4.598   4.005   6.385 -0.0590  0.3050  0.1118
  165SAPE    C118540   4.635   4.114   6.478 -0.1927 -0.5780  0.0404
  165SAPE    HA18541   4.736   4.155   6.461 -0.6793  0.4836 -0.3116
  165SAPE    HB18542   4.563   4.198   6.470 -1.0945 -1.2797  0.6841
  165SAPE    C218543   4.642   4.079   6.633 -0.1072  0.2983 -1.0895
  165SAPE    HS18544   4.616   4.163   6.701  1.0191 -0.5632  0.4466
  165SAPE   O2118545   4.776   4.022   6.661  0.0707  0.3450 -0.0704
  165SAPE   C2118546   4.839   4.105   6.750  0.4966 -0.7282  0.2787
  165SAPE   O2218547   4.783   4.189   6.819  0.0349 -0.2431 -0.4336
  165SAPE   C2218548   4.970   4.042   6.770  0.4472 -0.0061  0.2443
  165SAPE   H2R18549   4.948   3.937   6.798 -1.2617  0.6130  1.2939
  165SAPE   H2S18550   5.020   4.046   6.671 -1.4417 -0.0009 -0.7237
  165SAPE    C318551   4.533   3.970   6.665 -0.2029  0.7976  0.7558
  165SAPE    HX18552   4.545   3.889   6.590 -0.5569 -0.2421  1.8087
  165SAPE    HY18553   4.429   4.006   6.648 -0.9465 -1.7726 -0.3009
  165SAPE   O3118554   4.553   3.905   6.798  0.1595  0.4739  1.0803
  165SAPE   C3118555   4.502   3.982   6.899  0.2571 -1.2252 -0.2268
  165SAPE   O3218556   4.454   4.091   6.878  0.2897 -0.5014 -0.4726
  165SAPE   C3218557   4.530   3.924   7.041 -0.3255  0.2864  0.2385
  165SAPE   H2X18558   4.561   3.817   7.036 -1.4738 -0.0745  0.8029
  165SAPE   H2Y18559   4.441   3.934   7.106  1.6449  0.1295  3.0709
  165SAPE   C2318560   5.055   4.106   6.882  0.5075  0.2962  0.5222
  165SAPE   H3R18561   5.049   4.217   6.873  2.8934  0.3339 -1.3679
  165SAPE   H3S18562   5.158   4.066   6.872  0.5388  0.3943  0.4339
  165SAPE   C2418563   5.010   4.063   7.030  0.2506 -0.4634 -0.1898
  165SAPE   H4R18564   4.902   4.080   7.048 -0.0759 -2.6906  0.0631
  165SAPE   H4S18565   5.059   4.146   7.086 -0.5360  1.5192 -2.3334
  165SAPE   C2518566   5.059   3.922   7.063 -0.1700  0.8772 -0.1076
  165SAPE   H5R18567   5.014   3.835   7.013 -0.0104  0.5809  0.2607
  165SAPE   C2618568   5.111   3.899   7.191  0.3673  0.0692  0.4508
  165SAPE   H6R18569   5.126   3.794   7.218  2.7014 -0.2076 -1.7152
  165SAPE   C2718570   5.157   4.005   7.296  0.4015 -0.0155 -0.6655
  165SAPE   H7R18571   5.146   3.955   7.395  0.2490 -0.9142 -1.1257
  165SAPE   H7S18572   5.085   4.089   7.302 -0.4662 -0.8184  0.5313
  165SAPE   C2818573   5.289   4.073   7.301 -0.2578  0.0238  0.5202
  165SAPE   H8R18574   5.341   4.103   7.209  3.3709  0.2639  2.5518
  165SAPE   C2918575   5.361   4.095   7.416 -0.0561  0.2719 -0.2031
  165SAPE   H9R18576   5.454   4.151   7.402  0.2740 -0.0105  0.8412
  165SAPE  C21018577   5.325   4.062   7.560  0.6687 -0.0481 -0.3315
  165SAPE  H10R18578   5.215   4.051   7.566  0.8983 -2.5057  0.0959
  165SAPE  H10S18579   5.345   4.151   7.623 -2.0325  0.7387 -0.5416
  165SAPE  C21118580   5.406   3.937   7.602 -0.0238  0.4623 -0.3619
  165SAPE  H11R18581   5.472   3.876   7.538 -0.2933 -0.9445  0.6611
  165SAPE  C21218582   5.392   3.889   7.726  0.0101  0.0164 -0.3291
  165SAPE  H12R18583   5.443   3.794   7.749 -2.0651 -1.0821 -0.1845
  165SAPE  C21318584   5.311   3.941   7.841 -0.0852  0.5847 -0.1751
  165SAPE  H13R18585   5.242   3.867   7.887 -0.5045  0.3499 -1.1559
  165SAPE  H13S18586   5.241   4.019   7.804 -2.4733 -1.8580 -0.9893
  165SAPE  C21418587   5.399   3.992   7.946 -0.2735 -0.4086 -0.0197
  165SAPE  H14R18588   5.443   4.089   7.919 -0.2475  0.0102  1.5072
  165SAPE  C21518589   5.434   3.936   8.068 -0.4729 -0.6841  0.8609
  165SAPE  H15R18590   5.508   3.992   8.125 -0.1055  1.5366 -1.6908
  165SAPE  C21618591   5.393   3.798   8.113  0.0449  0.0268 -0.1067
  165SAPE  H16R18592   5.478   3.741   8.154  0.7410  0.8609 -0.3814
  165SAPE  H16S18593   5.363   3.734   8.027 -2.2837 -1.2850  1.5877
  165SAPE  C21718594   5.287   3.804   8.220 -0.4030  0.1493  0.5325
  165SAPE  H17R18595   5.258   3.699   8.238 -4.0944  1.2223  1.0974
  165SAPE  H17S18596   5.199   3.865   8.192 -0.0150  0.5552  0.1925
  165SAPE  C21818597   5.345   3.851   8.354 -0.1894 -0.2305 -0.0409
  165SAPE  H18R18598   5.365   3.959   8.340 -2.4910  0.1247 -0.9140
  165SAPE  H18S18599   5.436   3.803   8.394  0.0646 -0.6629 -1.1350
  165SAPE  C21918600   5.257   3.834   8.473 -0.1721 -0.0390  0.1845
  165SAPE  H19R18601   5.216   3.736   8.504 -0.6461  0.3651  0.8297
  165SAPE  H19S18602   5.173   3.900   8.442  0.9935  1.0687 -0.7023
  165SAPE  C22018603   5.332   3.887   8.605  0.1073  0.8306  0.2533
  165SAPE  H20R18604   5.416   3.817   8.624  0.8320  1.9099  1.0977
  165SAPE  H20S18605   5.261   3.880   8.689  0.2023  0.3980  0.2970
  165SAPE  H20T18606   5.364   3.994   8.605 -0.4527  0.9994  0.6476
  165SAPE   C3318607   4.640   4.014   7.108 -0.5265 -0.4672 -0.6502
  165SAPE   H3X18608   4.607   4.118   7.088 -2.0933 -0.8468 -0.1144
  165SAPE   H3Y18609   4.733   3.996   7.051 -0.2606 -1.7420  0.1515
  165SAPE   C3418610   4.651   3.987   7.257 -0.4814 -0.0513  0.4868
  165SAPE   H4X18611   4.673   3.883   7.287 -0.8328  0.1839  1.5843
  165SAPE   H4Y18612   4.548   3.994   7.299 -0.6294 -2.4253  0.5707
  165SAPE   C3518613   4.749   4.081   7.325 -0.1786 -0.2256 -0.1590
  165SAPE   H5X18614   4.721   4.180   7.284  0.0145 -1.0278 -2.2902
  165SAPE   H5Y18615   4.845   4.057   7.274 -1.0385 -0.0069 -1.9314
  165SAPE   C3618616   4.751   4.071   7.477  0.3741 -0.9515  0.2163
  165SAPE   H6X18617   4.788   3.968   7.494  1.1168 -0.5834  0.8612
  165SAPE   H6Y18618   4.645   4.082   7.510  0.3680  0.7787 -0.3192
  165SAPE   C3718619   4.844   4.159   7.549  0.2678  0.7281  0.2496
  165SAPE   H7X18620   4.804   4.263   7.554  1.1753  1.1527 -0.8806
  165SAPE   H7Y18621   4.946   4.150   7.505  0.2919  1.2836  0.1879
  165SAPE   C3818622   4.854   4.134   7.694 -0.7772  0.5783  0.1639
  165SAPE   H8X18623   4.870   4.029   7.724 -0.3658  1.3995  2.9634
  165SAPE   H8Y18624   4.753   4.162   7.732 -1.5124 -0.7091 -0.8182
  165SAPE   C3918625   4.958   4.220   7.766  0.7294  0.4986 -0.1601
  165SAPE   H9X18626   4.936   4.328   7.756  3.2770  1.1556  1.0044
  165SAPE   H9Y18627   5.061   4.209   7.725  0.8284  0.4698  0.1000
  165SAPE  C31018628   4.949   4.178   7.913  0.2764  0.6397 -0.7393
  165SAPE  H10X18629   4.970   4.069   7.925  2.0555  1.2001  1.5437
  165SAPE  H10Y18630   4.845   4.204   7.943  0.5845  2.1081 -0.9577
  165SAPE  C31118631   5.044   4.259   8.010  0.0552  0.8804  0.4160
  165SAPE  H11X18632   5.011   4.364   8.028  2.1808  1.7153 -0.4066
  165SAPE  H11Y18633   5.147   4.261   7.968  0.2288 -2.0864  0.5934
  165SAPE  C31218634   5.064   4.194   8.148  0.1183 -0.0744  0.1710
  165SAPE  H12X18635   5.143   4.259   8.193 -1.7428  3.1579 -1.0823
  165SAPE  H12Y18636   5.119   4.098   8.147 -0.9657 -0.7383  1.7672
  165SAPE  C31318637   4.942   4.187   8.239 -0.2156  0.3485  0.1761
  165SAPE  H13X18638   4.880   4.101   8.206  0.0449  0.0956  0.3403
  165SAPE  H13Y18639   4.882   4.278   8.218 -0.1416  0.3568 -0.0067
  165SAPE  C31418640   4.982   4.176   8.380 -0.0713  0.1607 -0.2482
  165SAPE  H14X18641   5.060   4.250   8.406  0.4651 -0.2286 -0.7156
  165SAPE  H14Y18642   5.030   4.076   8.387  0.3587  0.3755 -0.1059
  165SAPE  C31518643   4.867   4.194   8.481  0.3580  0.1658 -0.2816
  165SAPE  H15X18644   4.818   4.096   8.462 -0.8449  0.6746  0.1664
  165SAPE  H15Y18645   4.805   4.284   8.461  1.9252  1.3685  0.1394
  165SAPE  C31618646   4.928   4.192   8.627 -0.2401  0.5681 -0.3858
  165SAPE  H16X18647   4.875   4.265   8.692  1.3060 -0.2397  1.8321
  165SAPE  H16Y18648   5.031   4.233   8.625  0.0256 -0.1324 -1.7521
  165SAPE  C31718649   4.926   4.053   8.696 -0.0909  0.3923 -0.1648
  165SAPE  H17X18650   5.010   4.042   8.768  1.0115 -0.9488 -1.5956
  165SAPE  H17Y18651   4.956   3.986   8.612  2.2265  0.5445  0.4946
  165SAPE  C31818652   4.796   4.025   8.775 -0.3856 -0.4245  0.4131
  165SAPE  H18X18653   4.763   4.111   8.837 -3.1304 -0.7941 -0.4622
  165SAPE  H18Y18654   4.782   3.930   8.831 -0.5226 -0.5767  0.1199
  165SAPE  H18Z18655   4.711   4.015   8.704 -1.8608  0.3170  2.0413
  166SAPE     N18656   4.535   1.592   5.862 -0.1291 -0.8571 -0.0323
  166SAPE   HN118657   4.639   1.594   5.862 -0.0394 -3.5165 -0.0075
  166SAPE   HN218658   4.491   1.499   5.845  0.4290 -1.0950 -0.1824
  166SAPE   HN318659   4.504   1.657   5.787  0.4917 -0.0094  0.4364
  166SAPE   C1218660   4.490   1.630   5.995 -0.6388 -0.0762  0.3147
  166SAPE  H12A18661   4.520   1.736   6.009 -0.5160  0.0045 -0.5144
  166SAPE  H12B18662   4.530   1.565   6.076  1.0727  0.0003 -0.4419
  166SAPE   C1118663   4.334   1.621   6.008  0.1204 -0.4537 -0.0672
  166SAPE  H11A18664   4.281   1.697   5.947  2.8111  0.9123 -0.7963
  166SAPE  H11B18665   4.304   1.644   6.112  3.0335 -0.3062  0.7927
  166SAPE     P18666   4.152   1.426   6.022 -0.0092 -0.3465 -0.3162
  166SAPE   O1318667   4.042   1.512   5.969  0.0753 -0.6010  0.2200
  166SAPE   O1418668   4.158   1.283   5.989 -0.2036  0.2040  0.0524
  166SAPE   O1218669   4.288   1.489   5.966  0.7713  0.3880 -0.5548
  166SAPE   O1118670   4.160   1.439   6.178  0.6882 -0.0905  0.2416
  166SAPE    C118671   4.258   1.373   6.254  0.3932  0.2561  0.1346
  166SAPE    HA18672   4.328   1.313   6.193 -0.1613 -0.5336  0.2605
  166SAPE    HB18673   4.318   1.451   6.305  1.0857 -0.2938  0.1622
  166SAPE    C218674   4.188   1.287   6.361  0.2849 -0.4466  0.1992
  166SAPE    HS18675   4.113   1.218   6.318  0.4753  0.9940 -2.5391
  166SAPE   O2118676   4.130   1.384   6.452  0.0148 -0.7514  0.4066
  166SAPE   C2118677   4.013   1.356   6.507  0.3968 -0.2419 -0.2394
  166SAPE   O2218678   3.938   1.265   6.471 -0.1246 -0.1865 -0.2890
  166SAPE   C2218679   3.977   1.448   6.629  0.0044  0.0717  0.3539
  166SAPE   H2R18680   4.057   1.524   6.627 -0.6467  0.7427 -0.5448
  166SAPE   H2S18681   3.875   1.488   6.612  0.2333  0.2284 -0.7018
  166SAPE    C318682   4.299   1.195   6.444 -0.3862 -0.4242  0.3333
  166SAPE    HX18683   4.369   1.276   6.474  0.2148 -0.1434 -1.7333
  166SAPE    HY18684   4.358   1.136   6.370 -0.6203 -1.0389  0.6298
  166SAPE   O3118685   4.252   1.119   6.561 -0.3107  0.1770 -0.5769
  166SAPE   C3118686   4.169   1.022   6.530 -0.0662 -0.3682 -0.2282
  166SAPE   O3218687   4.127   0.998   6.420 -0.6399 -0.4107  0.1854
  166SAPE   C3218688   4.129   0.937   6.655  0.0265  0.3521 -0.3808
  166SAPE   H2X18689   4.092   0.844   6.608 -2.1911  0.9126  0.2032
  166SAPE   H2Y18690   4.048   0.986   6.712 -1.2151 -1.1450 -0.8215
  166SAPE   C2318691   3.967   1.378   6.763  0.6405  0.8507 -0.6958
  166SAPE   H3R18692   3.892   1.298   6.745  1.9295  0.2035 -3.3779
  166SAPE   H3S18693   3.917   1.457   6.824  0.4590  3.1035 -3.6725
  166SAPE   C2418694   4.095   1.320   6.822 -0.1001  0.4048  0.5237
  166SAPE   H4R18695   4.173   1.398   6.832  0.3672 -0.2516  2.1107
  166SAPE   H4S18696   4.136   1.250   6.746  2.1008  1.0009  1.1205
  166SAPE   C2518697   4.078   1.244   6.949  0.5528 -0.0898  0.5705
  166SAPE   H5R18698   4.095   1.135   6.945  1.6453  0.1058 -0.3848
  166SAPE   C2618699   4.071   1.289   7.078  0.3227 -0.6379  0.1736
  166SAPE   H6R18700   4.065   1.218   7.162  0.9273 -1.3451 -0.3716
  166SAPE   C2718701   4.078   1.433   7.128  0.5860 -0.3382  0.3658
  166SAPE   H7R18702   3.997   1.428   7.204  0.8646 -1.9508  0.5724
  166SAPE   H7S18703   4.037   1.503   7.052 -1.4394 -1.5170  0.3309
  166SAPE   C2818704   4.207   1.489   7.187 -1.0692  0.1297 -1.0760
  166SAPE   H8R18705   4.277   1.530   7.113  0.6877  0.6619  0.8343
  166SAPE   C2918706   4.255   1.483   7.316  0.1469 -0.7462  0.4523
  166SAPE   H9R18707   4.351   1.532   7.338 -0.1557  0.5593 -1.0130
  166SAPE  C21018708   4.187   1.409   7.428 -0.3319 -0.1276  0.5024
  166SAPE  H10R18709   4.166   1.309   7.384  2.0651 -0.8793  1.0001
  166SAPE  H10S18710   4.084   1.445   7.451  0.3769  1.4270  1.3019
  166SAPE  C21118711   4.263   1.404   7.563 -0.1481  0.0769 -0.4872
  166SAPE  H11R18712   4.370   1.384   7.551 -0.3980 -0.7455 -1.3836
  166SAPE  C21218713   4.211   1.422   7.682 -0.6196 -0.6527  0.3005
  166SAPE  H12R18714   4.286   1.400   7.759  0.7855  2.0629 -0.2482
  166SAPE  C21318715   4.064   1.446   7.716  0.2697 -0.1454 -0.3158
  166SAPE  H13R18716   4.039   1.372   7.796 -0.0503  0.0686 -0.2197
  166SAPE  H13S18717   4.002   1.412   7.631  0.4559  1.1976 -1.0048
  166SAPE  C21418718   4.031   1.585   7.766  0.3550 -0.0600 -0.1601
  166SAPE  H14R18719   4.017   1.666   7.693  1.0788  1.1318  1.0034
  166SAPE  C21518720   4.037   1.627   7.895 -1.1832  0.3166 -0.4062
  166SAPE  H15R18721   4.000   1.727   7.921  0.7333  0.9910 -0.2076
  166SAPE  C21618722   4.069   1.535   8.007  0.8115 -0.1797 -0.5344
  166SAPE  H16R18723   4.059   1.427   7.985 -0.9815  0.2373 -1.8610
  166SAPE  H16S18724   4.018   1.554   8.104  2.5989  0.1843  0.3693
  166SAPE  C21718725   4.219   1.542   8.048  0.1592  0.7129  0.9644
  166SAPE  H17R18726   4.240   1.641   8.094 -1.2736  1.5920 -0.2255
  166SAPE  H17S18727   4.280   1.533   7.955  0.6758  0.3340  1.3350
  166SAPE  C21818728   4.269   1.446   8.152 -0.4845  0.5242  0.0568
  166SAPE  H18R18729   4.379   1.456   8.165 -0.5746  0.8209  0.6153
  166SAPE  H18S18730   4.269   1.339   8.123  1.4997  0.4430  0.3058
  166SAPE  C21918731   4.196   1.470   8.291  0.0639 -0.5259  0.2081
  166SAPE  H19R18732   4.088   1.448   8.277 -0.0185 -2.1856  3.0537
  166SAPE  H19S18733   4.211   1.579   8.304  2.5968 -0.1483 -4.7576
  166SAPE  C22018734   4.265   1.382   8.398  0.2670 -0.0280 -0.2804
  166SAPE  H20R18735   4.364   1.423   8.427  0.8308 -0.5320 -1.4796
  166SAPE  H20S18736   4.270   1.278   8.358 -2.1071 -1.8469  3.8248
  166SAPE  H20T18737   4.204   1.387   8.491  2.1699 -0.2998  1.0064
  166SAPE   C3318738   4.242   0.909   6.761 -0.0223  0.2327 -0.1041
  166SAPE   H3X18739   4.251   1.002   6.821  0.2714  1.1558 -1.5697
  166SAPE   H3Y18740   4.336   0.896   6.702  0.1681 -0.7715  0.4086
  166SAPE   C3418741   4.214   0.804   6.863  0.1337  0.4260 -0.0624
  166SAPE   H4X18742   4.286   0.801   6.948 -0.3687  1.0449  0.3902
  166SAPE   H4Y18743   4.217   0.708   6.807  1.4153 -0.5902  1.6921
  166SAPE   C3518744   4.073   0.816   6.931  0.3648 -0.0246  0.3220
  166SAPE   H5X18745   3.993   0.797   6.857  1.2327 -0.8913 -0.4114
  166SAPE   H5Y18746   4.055   0.924   6.950 -2.6940 -0.6179  1.0820
  166SAPE   C3618747   4.058   0.730   7.058 -0.6431 -0.0707 -0.3532
  166SAPE   H6X18748   4.033   0.623   7.043  0.4217 -0.2441 -0.9552
  166SAPE   H6Y18749   3.978   0.772   7.122 -0.2212 -2.6837  1.9647
  166SAPE   C3718750   4.187   0.731   7.154  0.2154 -0.3406  0.1419
  166SAPE   H7X18751   4.214   0.837   7.169 -0.8750 -0.3944  2.7161
  166SAPE   H7Y18752   4.266   0.677   7.098 -1.5301 -1.3877 -1.3762
  166SAPE   C3818753   4.142   0.674   7.290 -0.8910  0.1975  0.2595
  166SAPE   H8X18754   4.085   0.582   7.264 -0.2355  0.0025 -0.5179
  166SAPE   H8Y18755   4.066   0.744   7.331 -1.8462 -1.4058  1.3060
  166SAPE   C3918756   4.258   0.654   7.396  0.3993  0.2254  0.4273
  166SAPE   H9X18757   4.323   0.744   7.393 -1.7669  1.7793 -1.2957
  166SAPE   H9Y18758   4.302   0.557   7.361 -2.7225 -1.7394  1.7458
  166SAPE  C31018759   4.201   0.643   7.541  0.7205  0.2632  0.0318
  166SAPE  H10X18760   4.117   0.570   7.547 -0.4949  1.6582  0.5428
  166SAPE  H10Y18761   4.159   0.743   7.567 -0.7803 -0.1011 -0.8831
  166SAPE  C31118762   4.304   0.594   7.640 -0.5416  0.1230  0.3663
  166SAPE  H11X18763   4.390   0.662   7.624 -0.6988  0.5912  1.5162
  166SAPE  H11Y18764   4.347   0.496   7.610  0.9768  0.5860  0.9403
  166SAPE  C31218765   4.252   0.575   7.785  0.3727  0.2159  0.8148
  166SAPE  H12X18766   4.330   0.603   7.859 -0.1446  0.7258  1.1848
  166SAPE  H12Y18767   4.227   0.468   7.800  0.6425 -0.0806 -0.7829
  166SAPE  C31318768   4.137   0.673   7.813 -0.0813  0.6099 -0.5318
  166SAPE  H13X18769   4.049   0.663   7.746 -1.3726  0.9091  1.0920
  166SAPE  H13Y18770   4.181   0.769   7.779  0.8537  0.8079  1.1780
  166SAPE  C31418771   4.097   0.707   7.962  0.0009 -0.4245 -0.0095
  166SAPE  H14X18772   4.186   0.744   8.017  0.0977 -0.4718 -0.1350
  166SAPE  H14Y18773   4.074   0.612   8.015  2.0101 -0.0272  1.6162
  166SAPE  C31518774   3.986   0.809   7.980 -0.3180 -0.5122 -1.0409
  166SAPE  H15X18775   3.890   0.754   7.969 -0.0669 -1.0733 -0.4003
  166SAPE  H15Y18776   3.990   0.881   7.895 -1.0068  0.5450 -0.1966
  166SAPE  C31618777   3.988   0.893   8.108  0.7327  0.6264  0.3095
  166SAPE  H16X18778   4.089   0.930   8.136  1.0749 -1.7077  2.2804
  166SAPE  H16Y18779   3.954   0.826   8.190 -0.6714 -0.2355 -0.9698
  166SAPE  C31718780   3.907   1.035   8.110 -0.4969 -0.3593  0.1142
  166SAPE  H17X18781   3.936   1.090   8.202  0.4761 -1.8835  0.7347
  166SAPE  H17Y18782   3.797   1.021   8.116 -0.7697  0.6249 -2.0807
  166SAPE  C31818783   3.938   1.121   7.987 -0.2010  0.5999 -0.3042
  166SAPE  H18X18784   3.887   1.217   8.006 -2.0378 -0.6243  1.1417
  166SAPE  H18Y18785   3.898   1.080   7.892 -1.3251 -0.7640  0.7322
  166SAPE  H18Z18786   4.047   1.133   7.965 -0.2070  0.1265 -0.6126
  167SAPE     N18787   5.507   0.478   5.780  0.3613 -0.1707 -0.0695
  167SAPE   HN118788   5.600   0.510   5.815 -0.9365  0.2665  3.1048
  167SAPE   HN218789   5.508   0.374   5.776  1.7846 -0.2683  1.8877
  167SAPE   HN318790   5.474   0.521   5.692  1.2092 -1.0551 -0.8417
  167SAPE   C1218791   5.397   0.526   5.870 -0.4182  0.2789  0.2312
  167SAPE  H12A18792   5.303   0.498   5.818 -0.8925 -0.5885  1.5318
  167SAPE  H12B18793   5.403   0.637   5.879  1.0012  0.1167  1.4686
  167SAPE   C1118794   5.384   0.453   5.998  0.1000  0.3109 -0.6172
  167SAPE  H11A18795   5.291   0.476   6.055  1.5115 -0.6068  2.1414
  167SAPE  H11B18796   5.462   0.496   6.066 -0.4892 -0.7297  0.7346
  167SAPE     P18797   5.472   0.222   6.077 -0.1003 -0.1578 -0.4093
  167SAPE   O1318798   5.388   0.102   6.099  0.3448  0.3115  0.4743
  167SAPE   O1418799   5.604   0.195   6.024  0.2620  0.5424 -0.5802
  167SAPE   O1218800   5.392   0.310   5.972  0.7381 -0.4077 -0.2236
  167SAPE   O1118801   5.478   0.304   6.211  0.4064 -0.1995 -0.2136
  167SAPE    C118802   5.372   0.354   6.286  0.0356  0.2901  0.1622
  167SAPE    HA18803   5.402   0.458   6.310  0.6201 -0.1056  1.1511
  167SAPE    HB18804   5.276   0.360   6.229 -0.9793 -0.1216  1.8051
  167SAPE    C218805   5.345   0.281   6.424 -0.1884  0.2352  0.4292
  167SAPE    HS18806   5.254   0.332   6.463 -0.6533 -0.8160  0.7620
  167SAPE   O2118807   5.459   0.278   6.511  0.7282 -0.1817  0.0318
  167SAPE   C2118808   5.485   0.401   6.553 -0.2331 -0.3957 -0.0814
  167SAPE   O2218809   5.414   0.501   6.544 -0.1959 -0.4631  0.2162
  167SAPE   C2218810   5.615   0.404   6.635 -0.0623  0.3404 -0.3120
  167SAPE   H2R18811   5.589   0.362   6.735 -1.7399  1.6322 -0.1877
  167SAPE   H2S18812   5.688   0.351   6.571 -1.5397  0.6500 -2.3269
  167SAPE    C318813   5.303   0.135   6.398  0.1326  0.2783 -0.1661
  167SAPE    HX18814   5.391   0.084   6.355  1.9439  2.4934  0.8311
  167SAPE    HY18815   5.239   0.136   6.307  0.5328  0.3586 -0.4450
  167SAPE   O3118816   5.248   0.071   6.516  0.6768 -0.2546 -0.2578
  167SAPE   C3118817   5.220  -0.051   6.496 -0.3735 -0.0617  0.0359
  167SAPE   O3218818   5.251  -0.123   6.399 -0.1793  0.0614  0.0510
  167SAPE   C3218819   5.142  -0.106   6.615  0.6544  0.6827 -0.1400
  167SAPE   H2X18820   5.080  -0.190   6.578  0.8290 -0.2990  1.6972
  167SAPE   H2Y18821   5.077  -0.028   6.658 -2.0421 -0.8331 -1.3568
  167SAPE   C2318822   5.670   0.547   6.668  1.1616  0.8109 -0.2329
  167SAPE   H3R18823   5.585   0.611   6.700 -0.1646 -0.3158 -1.4222
  167SAPE   H3S18824   5.706   0.600   6.577  0.9325  2.6309  0.7122
  167SAPE   C2418825   5.777   0.546   6.776 -0.0426  0.0653 -0.0599
  167SAPE   H4R18826   5.874   0.514   6.732 -0.5272 -2.3414  0.5457
  167SAPE   H4S18827   5.746   0.474   6.856  0.2397 -1.0940 -0.9766
  167SAPE   C2518828   5.797   0.688   6.822 -0.5238  0.5070 -0.0452
  167SAPE   H5R18829   5.854   0.751   6.752  2.4958 -1.5666  0.4449
  167SAPE   C2618830   5.772   0.731   6.944 -0.2240  0.4852 -0.7876
  167SAPE   H6R18831   5.802   0.834   6.964 -0.4113  0.9284 -2.7797
  167SAPE   C2718832   5.718   0.651   7.057  1.2107 -0.5825 -1.0044
  167SAPE   H7R18833   5.623   0.598   7.033  0.2580 -0.1194  1.6467
  167SAPE   H7S18834   5.686   0.733   7.124  0.6870 -0.5308 -1.3097
  167SAPE   C2818835   5.812   0.559   7.129 -0.0660  0.1016  0.4254
  167SAPE   H8R18836   5.849   0.473   7.072 -0.3825 -0.6418  1.3242
  167SAPE   C2918837   5.852   0.573   7.256  0.4154  0.3091  0.7310
  167SAPE   H9R18838   5.924   0.497   7.291  1.2480 -0.0014 -1.5388
  167SAPE  C21018839   5.806   0.669   7.355 -0.4887 -0.0629  0.2837
  167SAPE  H10R18840   5.812   0.619   7.454  2.5163 -0.7676 -0.1863
  167SAPE  H10S18841   5.700   0.701   7.344 -0.2296 -0.0096 -2.5204
  167SAPE  C21118842   5.896   0.793   7.345  0.5353  0.4721  0.7163
  167SAPE  H11R18843   5.938   0.817   7.246 -0.9148 -1.3875 -0.3833
  167SAPE  C21218844   5.924   0.864   7.452  0.1051  0.5403 -0.2188
  167SAPE  H12R18845   6.003   0.941   7.443 -0.4007  1.1160  0.2269
  167SAPE  C21318846   5.870   0.839   7.596  0.0799 -0.1209  0.3310
  167SAPE  H13R18847   5.891   0.731   7.613 -0.8466 -0.4706 -0.7243
  167SAPE  H13S18848   5.761   0.864   7.601 -0.6471 -3.0023 -0.4170
  167SAPE  C21418849   5.943   0.921   7.701 -0.3071 -0.1422  0.9458
  167SAPE  H14R18850   5.971   1.025   7.681 -1.4025  0.4621  2.4638
  167SAPE  C21518851   5.980   0.877   7.825 -0.6172  0.1056 -0.6500
  167SAPE  H15R18852   6.024   0.953   7.891 -0.5727 -0.1083 -0.4337
  167SAPE  C21618853   5.956   0.734   7.874 -0.3272 -0.2044 -0.5647
  167SAPE  H16R18854   6.041   0.705   7.940  0.1750  1.6401 -0.3571
  167SAPE  H16S18855   5.954   0.659   7.792 -3.4597 -0.0418 -0.7073
  167SAPE  C21718856   5.822   0.722   7.951 -0.2447 -0.0725 -0.0171
  167SAPE  H17R18857   5.794   0.616   7.962 -2.1799  0.3278 -0.9153
  167SAPE  H17S18858   5.747   0.755   7.875  0.3237  1.7320  0.1640
  167SAPE  C21818859   5.801   0.800   8.080  0.7474 -0.4327  0.5998
  167SAPE  H18R18860   5.703   0.775   8.125  0.4072  0.0701  0.1460
  167SAPE  H18S18861   5.793   0.906   8.048 -0.5512 -1.1609 -1.5699
  167SAPE  C21918862   5.901   0.770   8.193  0.1683 -0.4125 -0.2043
  167SAPE  H19R18863   5.902   0.855   8.265 -0.2839 -0.9235  0.4126
  167SAPE  H19S18864   6.004   0.778   8.153  0.0182  2.7020 -0.1028
  167SAPE  C22018865   5.874   0.636   8.268  0.1577 -0.2178  0.3404
  167SAPE  H20R18866   5.943   0.621   8.353  1.8807  1.5124 -0.7066
  167SAPE  H20S18867   5.880   0.552   8.196  0.1996  2.0717 -2.4151
  167SAPE  H20T18868   5.776   0.629   8.321 -0.8018  0.0965 -1.3695
  167SAPE   C3318869   5.240  -0.167   6.714 -0.2241 -0.1224 -0.1409
  167SAPE   H3X18870   5.338  -0.115   6.715  0.8920 -2.0908 -1.8439
  167SAPE   H3Y18871   5.263  -0.269   6.675  1.8708  1.4845 -3.3741
  167SAPE   C3418872   5.195  -0.155   6.862  0.7062 -0.0268 -0.0851
  167SAPE   H4X18873   5.251  -0.230   6.923  0.2510  1.0329  1.6689
  167SAPE   H4Y18874   5.087  -0.171   6.882  0.2451  0.4649 -2.0781
  167SAPE   C3518875   5.241  -0.020   6.924  0.4870 -0.3520  0.3067
  167SAPE   H5X18876   5.344   0.012   6.897  1.3228 -2.9213  0.3080
  167SAPE   H5Y18877   5.234  -0.016   7.034 -2.3251  0.8128  0.1218
  167SAPE   C3618878   5.163   0.109   6.893 -0.0392 -0.2104  0.5110
  167SAPE   H6X18879   5.060   0.097   6.932 -0.6831  1.2650 -0.7075
  167SAPE   H6Y18880   5.168   0.136   6.785  1.1850 -2.0325  0.0832
  167SAPE   C3718881   5.214   0.230   6.968 -0.1646  0.5140 -0.3943
  167SAPE   H7X18882   5.221   0.198   7.074  1.4232 -1.6771 -1.1088
  167SAPE   H7Y18883   5.126   0.297   6.956  1.2207  1.9716 -2.7600
  167SAPE   C3818884   5.335   0.299   6.920 -0.2594  0.2403  0.1676
  167SAPE   H8X18885   5.310   0.346   6.823  1.3001 -2.6428 -1.7156
  167SAPE   H8Y18886   5.423   0.232   6.906 -0.1613 -0.0134  1.8464
  167SAPE   C3918887   5.387   0.402   7.023  0.3225 -1.1290  0.3100
  167SAPE   H9X18888   5.306   0.474   7.048  0.8040 -1.2487  2.3112
  167SAPE   H9Y18889   5.467   0.455   6.967 -0.1862  0.4128  1.0257
  167SAPE  C31018890   5.436   0.341   7.155 -0.2558  0.7027  0.8537
  167SAPE  H10X18891   5.492   0.247   7.136  0.7912  1.7008 -1.1830
  167SAPE  H10Y18892   5.339   0.302   7.194 -0.4327  0.1648 -0.1149
  167SAPE  C31118893   5.490   0.431   7.260 -0.2524 -0.2745  0.0862
  167SAPE  H11X18894   5.450   0.535   7.258  1.2463  0.3002 -2.2830
  167SAPE  H11Y18895   5.600   0.444   7.252  0.0779 -2.0005  1.6375
  167SAPE  C31218896   5.455   0.368   7.400  0.7913  0.1551  0.5198
  167SAPE  H12X18897   5.527   0.284   7.408  1.9173  1.1865  1.4654
  167SAPE  H12Y18898   5.355   0.322   7.390 -0.4239  2.7389  0.2401
  167SAPE  C31318899   5.451   0.474   7.506 -0.2521  0.0438  0.8425
  167SAPE  H13X18900   5.362   0.539   7.500 -1.5440 -1.7454  0.3437
  167SAPE  H13Y18901   5.522   0.559   7.510  0.0774  0.0023 -2.6847
  167SAPE  C31418902   5.449   0.407   7.650  0.2493  0.5446  0.7287
  167SAPE  H14X18903   5.541   0.348   7.666 -0.6601 -0.2805  3.1082
  167SAPE  H14Y18904   5.367   0.332   7.659  0.4625 -0.0297 -1.7202
  167SAPE  C31518905   5.432   0.503   7.764 -0.3210  0.0597 -0.3341
  167SAPE  H15X18906   5.324   0.528   7.776  0.3447  2.1927  1.6489
  167SAPE  H15Y18907   5.476   0.601   7.736  3.6218 -1.0365  1.6982
  167SAPE  C31618908   5.486   0.459   7.903 -0.5562 -0.0977  0.0314
  167SAPE  H16X18909   5.595   0.449   7.887 -0.9495 -2.7414 -1.4848
  167SAPE  H16Y18910   5.449   0.358   7.933  2.3281 -1.9894 -2.4586
  167SAPE  C31718911   5.478   0.562   8.007 -0.0380 -0.7744  0.2824
  167SAPE  H17X18912   5.373   0.597   8.017 -0.1251 -0.4718 -1.6237
  167SAPE  H17Y18913   5.536   0.654   7.984 -0.4295 -0.4143  0.7256
  167SAPE  C31818914   5.526   0.509   8.142 -0.1520 -0.0406  0.2020
  167SAPE  H18X18915   5.496   0.404   8.160 -1.7641  0.3104 -0.2914
  167SAPE  H18Y18916   5.481   0.563   8.228 -1.6970 -0.5996 -0.2436
  167SAPE  H18Z18917   5.637   0.511   8.151 -0.1276  0.9172 -0.2596
  168SAPE     N18918   0.014   2.070   6.220  0.1312 -0.0793  0.0313
  168SAPE   HN118919   0.073   2.110   6.296  1.3808 -2.4716  0.4011
  168SAPE   HN218920  -0.046   2.152   6.200 -1.5918 -1.7221 -1.6977
  168SAPE   HN318921  -0.042   1.991   6.258  2.0889 -1.7811 -0.4971
  168SAPE   C1218922   0.108   2.045   6.101  1.0437  0.3990  0.8772
  168SAPE  H12A18923   0.124   2.138   6.042 -0.6521  1.2794  1.7552
  168SAPE  H12B18924   0.051   1.963   6.051 -0.3697  0.5151  2.2540
  168SAPE   C1118925   0.234   1.990   6.165 -0.4738 -0.5043 -0.7987
  168SAPE  H11A18926   0.271   2.068   6.234 -1.4771  0.9576 -1.8708
  168SAPE  H11B18927   0.316   1.979   6.092  0.8894 -0.8410  0.7666
  168SAPE     P18928   0.298   1.779   6.323 -0.5303  0.0676  0.2715
  168SAPE   O1318929   0.218   1.661   6.356  0.2884 -0.0055  0.5787
  168SAPE   O1418930   0.434   1.763   6.262  0.5780 -0.3972  0.4911
  168SAPE   O1218931   0.210   1.870   6.233  0.0028 -0.0070  0.4646
  168SAPE   O1118932   0.317   1.859   6.451 -0.2208 -0.4911  0.0967
  168SAPE    C118933   0.223   1.944   6.514 -0.6404  0.2614 -0.6924
  168SAPE    HA18934   0.260   2.049   6.508  0.5179 -0.0514  0.9900
  168SAPE    HB18935   0.119   1.926   6.478 -0.6324 -0.6463 -0.2688
  168SAPE    C218936   0.221   1.915   6.666 -0.3890 -0.3001  0.0019
  168SAPE    HS18937   0.327   1.927   6.695 -1.1365 -1.1607  3.2657
  168SAPE   O2118938   0.181   1.778   6.684  0.2810 -0.5635 -0.3587
  168SAPE   C2118939   0.275   1.678   6.677  0.4399 -0.3384 -0.3586
  168SAPE   O2218940   0.395   1.693   6.688 -0.2047  0.3008 -0.4712
  168SAPE   C2218941   0.204   1.538   6.641  0.1327 -0.3577  0.0290
  168SAPE   H2R18942   0.137   1.552   6.554 -0.9407 -0.4155  0.8391
  168SAPE   H2S18943   0.278   1.459   6.618  1.0103 -0.3042  2.5007
  168SAPE    C318944   0.148   2.012   6.763 -0.2829 -0.0091 -0.0202
  168SAPE    HX18945   0.047   2.027   6.721  1.0150 -0.4234 -3.4825
  168SAPE    HY18946   0.199   2.110   6.759  1.5574 -1.0080 -2.9954
  168SAPE   O3118947   0.146   1.966   6.902 -0.4186 -0.2249 -0.3654
  168SAPE   C3118948   0.264   1.957   6.963 -0.2698 -0.0442 -0.1607
  168SAPE   O3218949   0.365   2.013   6.925 -0.6561  0.4152  0.4369
  168SAPE   C3218950   0.259   1.871   7.081  0.0718  0.3373 -0.4624
  168SAPE   H2X18951   0.344   1.801   7.069 -1.3360 -1.8420  1.7872
  168SAPE   H2Y18952   0.164   1.813   7.075 -1.1446  1.8092  3.3758
  168SAPE   C2318953   0.107   1.498   6.756  0.4981 -0.7275  0.1616
  168SAPE   H3R18954   0.025   1.428   6.729  0.5461 -0.9221  0.5310
  168SAPE   H3S18955   0.055   1.591   6.787 -2.5512 -2.2757 -0.0440
  168SAPE   C2418956   0.165   1.415   6.874  0.3109  0.3787 -0.3378
  168SAPE   H4R18957   0.210   1.323   6.831  0.5047 -0.8378  2.3495
  168SAPE   H4S18958   0.085   1.379   6.943  1.6413 -1.2274  0.4198
  168SAPE   C2518959   0.264   1.491   6.954 -0.7525 -0.5080 -0.4862
  168SAPE   H5R18960   0.345   1.535   6.894 -0.0595 -0.7299  0.2849
  168SAPE   C2618961   0.255   1.517   7.088  0.1030  0.2354 -0.3979
  168SAPE   H6R18962   0.331   1.584   7.131 -0.8137  0.9320  0.1626
  168SAPE   C2718963   0.137   1.475   7.185 -0.0952  0.6350  0.2190
  168SAPE   H7R18964   0.187   1.436   7.276  0.8330 -1.2574 -1.0680
  168SAPE   H7S18965   0.081   1.394   7.133  1.3492  0.4690 -1.1247
  168SAPE   C2818966   0.046   1.590   7.206  0.6182 -1.0877  0.2014
  168SAPE   H8R18967   0.040   1.658   7.119 -1.1243 -1.9867 -0.4016
  168SAPE   C2918968  -0.036   1.609   7.310  0.3020  0.2562  0.4525
  168SAPE   H9R18969  -0.085   1.708   7.310 -2.0471 -0.8857 -0.1744
  168SAPE  C21018970  -0.057   1.534   7.434  0.5357  0.1026  0.1076
  168SAPE  H10R18971  -0.144   1.581   7.483  1.0391  1.6019 -0.4153
  168SAPE  H10S18972   0.034   1.547   7.497  1.6586  0.9965 -1.6726
  168SAPE  C21118973  -0.074   1.383   7.422 -0.0622  0.8983  0.2272
  168SAPE  H11R18974  -0.121   1.351   7.328 -0.7624  0.1715  0.8070
  168SAPE  C21218975  -0.062   1.292   7.524  0.1795 -0.1475 -0.0055
  168SAPE  H12R18976  -0.071   1.183   7.514  2.0861 -0.3884  0.6633
  168SAPE  C21318977  -0.036   1.315   7.670  0.2373  0.0639  0.1200
  168SAPE  H13R18978   0.044   1.390   7.690 -0.4009  0.6672  0.4196
  168SAPE  H13S18979   0.002   1.217   7.707  0.2543  0.3809  0.9548
  168SAPE  C21418980  -0.154   1.369   7.745 -0.2058  0.1907  0.1484
  168SAPE  H14R18981  -0.210   1.449   7.695 -0.8524 -0.9680 -1.0182
  168SAPE  C21518982  -0.190   1.339   7.874 -0.3359 -0.0474  0.2653
  168SAPE  H15R18983  -0.278   1.391   7.912 -1.9872 -1.0047 -2.0866
  168SAPE  C21618984  -0.128   1.242   7.974  0.2217  0.0066  0.4085
  168SAPE  H16R18985  -0.050   1.178   7.928  1.1693  2.5386 -1.6409
  168SAPE  H16S18986  -0.206   1.170   8.005  1.5578 -0.8387  1.8820
  168SAPE  C21718987  -0.074   1.313   8.100 -0.4309 -0.3843  0.1380
  168SAPE  H17R18988  -0.015   1.237   8.156  0.4465 -1.1203 -1.7388
  168SAPE  H17S18989  -0.160   1.341   8.164 -1.3678  0.0335 -1.2594
  168SAPE  C21818990   0.011   1.434   8.063 -0.4087 -0.3395 -0.9058
  168SAPE  H18R18991  -0.043   1.510   8.003 -0.6139  0.9536  0.8675
  168SAPE  H18S18992   0.076   1.388   7.986 -0.2089 -2.6604  0.5778
  168SAPE  C21918993   0.083   1.487   8.188  0.3167 -0.1779  0.1179
  168SAPE  H19R18994   0.119   1.402   8.249  0.6474 -0.4590 -0.4632
  168SAPE  H19S18995   0.007   1.548   8.241 -0.6791 -2.0469  0.8512
  168SAPE  C22018996   0.205   1.570   8.141  0.3932 -0.4355 -0.0760
  168SAPE  H20R18997   0.259   1.612   8.228  0.2732  3.8920 -1.9666
  168SAPE  H20S18998   0.166   1.652   8.077 -1.0250 -1.4795 -0.5847
  168SAPE  H20T18999   0.275   1.508   8.082 -0.1738 -2.0848  0.9378
  168SAPE   C3319000   0.271   1.961   7.206 -0.3777 -0.1666  0.2199
  168SAPE   H3X19001   0.202   2.047   7.196  1.4328  1.4926  1.6338
  168SAPE   H3Y19002   0.373   2.005   7.219 -0.1125 -0.7893  0.3025
  168SAPE   C3419003   0.233   1.888   7.333  0.4305 -0.1749 -0.3842
  168SAPE   H4X19004   0.309   1.808   7.346 -0.3187 -1.2212 -2.3077
  168SAPE   H4Y19005   0.128   1.850   7.332 -0.1172  1.3505 -1.6468
  168SAPE   C3519006   0.257   1.982   7.451 -0.4270 -0.7258 -0.4168
  168SAPE   H5X19007   0.178   2.060   7.448  0.2577 -0.0356 -0.5672
  168SAPE   H5Y19008   0.356   2.030   7.435  0.4046 -1.4464  2.3942
  168SAPE   C3619009   0.247   1.923   7.592  0.1983 -0.0793  0.5115
  168SAPE   H6X19010   0.327   1.847   7.605  0.3468 -0.4254 -2.1299
  168SAPE   H6Y19011   0.156   1.860   7.606  0.7334 -1.2166 -0.9114
  168SAPE   C3719012   0.266   2.028   7.707  0.3349  0.3256  0.2069
  168SAPE   H7X19013   0.204   2.120   7.712 -0.8126 -0.4138 -0.2486
  168SAPE   H7Y19014   0.370   2.068   7.702  0.4929  0.2333  2.3866
  168SAPE   C3819015   0.270   1.960   7.839 -0.2271  0.0957  0.0381
  168SAPE   H8X19016   0.370   1.914   7.851  0.2056  1.2114  0.7790
  168SAPE   H8Y19017   0.193   1.880   7.843  0.9199 -1.1385 -2.0139
  168SAPE   C3919018   0.247   2.054   7.960 -0.6301 -0.0625 -0.3733
  168SAPE   H9X19019   0.141   2.086   7.952 -0.3436 -0.0293 -5.3452
  168SAPE   H9Y19020   0.304   2.148   7.942 -2.5280  1.3624  0.8315
  168SAPE  C31019021   0.289   1.980   8.087 -0.0361  0.5781  0.0596
  168SAPE  H10X19022   0.383   1.922   8.070 -1.0541 -1.3241  0.8294
  168SAPE  H10Y19023   0.215   1.909   8.129  0.6610 -0.6216 -0.7161
  168SAPE  C31119024   0.309   2.082   8.203 -0.1252 -0.2961 -0.4881
  168SAPE  H11X19025   0.223   2.150   8.222 -0.5030 -0.9235  0.0745
  168SAPE  H11Y19026   0.398   2.140   8.171 -0.8582  0.7110 -0.7254
  168SAPE  C31219027   0.354   2.009   8.332 -0.0947  0.3760 -0.2245
  168SAPE  H12X19028   0.416   2.073   8.399  0.5515 -1.0719  0.5929
  168SAPE  H12Y19029   0.414   1.920   8.301  0.9129  1.0541 -0.2480
  168SAPE  C31319030   0.242   1.945   8.419  0.2216 -0.2759  0.1098
  168SAPE  H13X19031   0.167   1.893   8.356 -0.7687  1.1981  0.0498
  168SAPE  H13Y19032   0.180   2.020   8.473  0.4985 -0.0143  0.0636
  168SAPE  C31419033   0.308   1.868   8.530  0.1586  0.2115  0.1529
  168SAPE  H14X19034   0.389   1.931   8.571  0.7321  0.1732 -0.9058
  168SAPE  H14Y19035   0.368   1.786   8.485  0.6053  0.2261  0.7155
  168SAPE  C31519036   0.213   1.813   8.635 -0.2856  0.2860 -0.2315
  168SAPE  H15X19037   0.133   1.890   8.644 -0.6255 -0.1965  0.9309
  168SAPE  H15Y19038   0.264   1.804   8.733 -0.5287 -0.1250 -0.1427
  168SAPE  C31619039   0.157   1.669   8.610 -0.1101 -0.1165  0.1378
  168SAPE  H16X19040   0.242   1.602   8.587  0.5053  0.4351  0.7987
  168SAPE  H16Y19041   0.082   1.680   8.529 -0.0088 -1.5820 -0.1720
  168SAPE  C31719042   0.065   1.613   8.729 -0.4612  0.6940 -0.4025
  168SAPE  H17X19043   0.131   1.594   8.815 -1.5448 -2.8601 -0.2829
  168SAPE  H17Y19044   0.022   1.515   8.698 -0.0015  0.3055  0.1873
  168SAPE  C31819045  -0.042   1.711   8.767  0.1342 -0.3531  0.8805
  168SAPE  H18X19046  -0.103   1.733   8.676  0.6827 -0.5049  0.4771
  168SAPE  H18Y19047   0.000   1.812   8.787 -1.8728  0.4860  1.0831
  168SAPE  H18Z19048  -0.101   1.674   8.854  1.4548 -0.2573  1.8220
  169SAPE     N19049   6.607   3.740   6.363 -0.4561 -0.0134  0.0275
  169SAPE   HN119050   6.550   3.653   6.358 -1.1980  0.4232  0.7230
  169SAPE   HN219051   6.709   3.722   6.366 -0.2181  1.1800 -0.6751
  169SAPE   HN319052   6.582   3.785   6.453 -0.6248 -1.4864  0.7342
  169SAPE   C1219053   6.590   3.830   6.244  0.5244  0.2920  0.1077
  169SAPE  H12A19054   6.604   3.775   6.148 -0.3750  0.8973 -0.3872
  169SAPE  H12B19055   6.648   3.923   6.256 -0.9377  1.1980  0.2795
  169SAPE   C1119056   6.439   3.864   6.227 -0.0569  0.0510  0.6066
  169SAPE  H11A19057   6.386   3.768   6.213 -0.6680  0.3844  0.6356
  169SAPE  H11B19058   6.435   3.923   6.132 -2.0534 -2.6028 -1.0186
  169SAPE     P19059   6.228   3.988   6.324  0.1383  0.1934  0.5986
  169SAPE   O1319060   6.200   4.087   6.424  0.1682 -0.0877 -0.3418
  169SAPE   O1419061   6.195   4.020   6.181  0.4137  0.2396 -0.1605
  169SAPE   O1219062   6.383   3.947   6.333  0.3627  0.1631 -0.4778
  169SAPE   O1119063   6.151   3.857   6.367 -0.4266  0.2408  0.0033
  169SAPE    C119064   6.213   3.751   6.431 -0.0305 -0.3299  0.7484
  169SAPE    HA19065   6.172   3.655   6.394  2.4225 -2.0064  2.2140
  169SAPE    HB19066   6.323   3.749   6.415  0.1006  1.2994  1.2896
  169SAPE    C219067   6.178   3.756   6.589 -0.6765  0.4055  0.4300
  169SAPE    HS19068   6.067   3.764   6.593 -0.6893 -0.0167  1.1607
  169SAPE   O2119069   6.250   3.857   6.650  0.4695  0.1320 -0.3155
  169SAPE   C2119070   6.182   3.933   6.736  0.1904 -0.0843 -0.0545
  169SAPE   O2219071   6.061   3.936   6.751  0.2722 -0.1529  0.1398
  169SAPE   C2219072   6.278   4.010   6.811  0.7619 -0.9121 -0.2672
  169SAPE   H2R19073   6.378   3.998   6.765  0.7583 -0.7792 -0.3117
  169SAPE   H2S19074   6.258   4.119   6.803 -1.1538 -1.3706 -2.1700
  169SAPE    C319075   6.204   3.625   6.659 -0.0376  0.4975  0.1464
  169SAPE    HX19076   6.307   3.584   6.647 -0.2398 -0.0935  0.3877
  169SAPE    HY19077   6.144   3.550   6.602 -0.2271  0.5911  0.2245
  169SAPE   O3119078   6.172   3.635   6.803 -0.8483  0.0758 -0.1154
  169SAPE   C3119079   6.040   3.622   6.835  0.4155  0.7997  0.5045
  169SAPE   O3219080   5.954   3.602   6.749  0.4941 -0.8711  0.4220
  169SAPE   C3219081   6.008   3.629   6.979  0.5723 -0.1658 -0.0069
  169SAPE   H2X19082   6.101   3.632   7.039  0.3034  2.4349  0.3663
  169SAPE   H2Y19083   5.949   3.538   7.003 -0.6168  0.9731  1.4913
  169SAPE   C2319084   6.306   3.955   6.954 -0.3049 -0.7072 -0.1743
  169SAPE   H3R19085   6.350   3.853   6.945 -0.6982 -0.9417  0.4989
  169SAPE   H3S19086   6.210   3.960   7.010 -0.6680 -0.0771 -0.8540
  169SAPE   C2419087   6.405   4.030   7.038  0.5116 -0.2357 -0.6118
  169SAPE   H4R19088   6.369   4.134   7.055  0.0965 -0.9010  3.0822
  169SAPE   H4S19089   6.506   4.042   6.993  0.3664 -0.4601 -1.0046
  169SAPE   C2519090   6.425   3.965   7.172  0.9069  0.4856  0.0388
  169SAPE   H5R19091   6.482   3.872   7.157  0.9353  0.7030 -1.1903
  169SAPE   C2619092   6.388   4.012   7.291 -0.1736  0.1874 -0.3897
  169SAPE   H6R19093   6.424   3.958   7.379  0.4642 -0.5324 -1.0882
  169SAPE   C2719094   6.311   4.134   7.322  0.1919  0.5526  0.2527
  169SAPE   H7R19095   6.250   4.164   7.234  1.3874 -2.6241 -1.7197
  169SAPE   H7S19096   6.365   4.231   7.328 -1.6199  1.6407 -0.5621
  169SAPE   C2819097   6.217   4.125   7.442  0.0325 -0.7226 -0.4929
  169SAPE   H8R19098   6.125   4.065   7.431 -1.4552  1.2113  1.0070
  169SAPE   C2919099   6.239   4.174   7.560 -0.0713 -1.0122 -1.3463
  169SAPE   H9R19100   6.175   4.153   7.647  1.0027 -0.1393 -0.3221
  169SAPE  C21019101   6.366   4.256   7.614 -0.4390 -0.1610  0.7689
  169SAPE  H10R19102   6.327   4.329   7.688  0.4633 -1.4560  2.5541
  169SAPE  H10S19103   6.407   4.315   7.529 -0.4912  0.6005  1.2697
  169SAPE  C21119104   6.469   4.169   7.689  0.4372  0.1386  0.1442
  169SAPE  H11R19105   6.536   4.110   7.625  0.4415  2.2178 -1.8538
  169SAPE  C21219106   6.494   4.167   7.824 -0.0535  0.6033 -0.3989
  169SAPE  H12R19107   6.573   4.098   7.857  1.4294  3.2302  1.8248
  169SAPE  C21319108   6.428   4.240   7.939 -0.4778 -0.7572  0.6097
  169SAPE  H13R19109   6.385   4.334   7.897 -0.2114 -0.2964  1.3705
  169SAPE  H13S19110   6.495   4.274   8.020 -0.5252 -0.3725  0.4935
  169SAPE  C21419111   6.314   4.172   7.994  0.4411 -0.0048 -0.1085
  169SAPE  H14R19112   6.294   4.071   7.956  2.6833 -0.3871 -0.3376
  169SAPE  C21519113   6.236   4.196   8.103 -0.9246  0.2477  0.1260
  169SAPE  H15R19114   6.168   4.114   8.130 -1.9794  1.2899  0.6579
  169SAPE  C21619115   6.238   4.303   8.207  0.1596 -0.9013  0.7470
  169SAPE  H16R19116   6.152   4.369   8.185 -0.2870 -1.0110  2.1504
  169SAPE  H16S19117   6.324   4.373   8.191 -0.6502  0.0472  0.5075
  169SAPE  C21719118   6.241   4.258   8.352  0.3372 -0.5709 -0.4699
  169SAPE  H17R19119   6.158   4.188   8.378 -0.3938  0.7666  0.8567
  169SAPE  H17S19120   6.218   4.348   8.412  0.2573 -1.4101  0.7721
  169SAPE  C21819121   6.377   4.217   8.391  0.5853 -0.1094  0.0645
  169SAPE  H18R19122   6.458   4.287   8.361  0.5900  0.4190  1.2691
  169SAPE  H18S19123   6.396   4.117   8.346  0.6922  1.2553 -3.0232
  169SAPE  C21919124   6.391   4.204   8.543  0.0563  0.2107  0.3464
  169SAPE  H19R19125   6.333   4.117   8.580 -1.6529  1.2065  0.0495
  169SAPE  H19S19126   6.337   4.292   8.583 -0.4918 -0.1809  0.4759
  169SAPE  C22019127   6.532   4.205   8.602  0.1671 -0.2464  0.2701
  169SAPE  H20R19128   6.585   4.300   8.581 -1.5200  0.1773 -2.3089
  169SAPE  H20S19129   6.595   4.124   8.558  2.8759  3.0488 -2.2473
  169SAPE  H20T19130   6.535   4.186   8.711 -0.6198 -1.3055  0.1134
  169SAPE   C3319131   5.916   3.756   7.021 -0.7072 -0.4419  0.4186
  169SAPE   H3X19132   5.808   3.734   7.012 -0.8063 -0.1744  0.9488
  169SAPE   H3Y19133   5.947   3.849   6.968  1.8696 -0.2945  2.0685
  169SAPE   C3419134   5.943   3.768   7.167 -0.6533  0.5865 -0.1497
  169SAPE   H4X19135   5.909   3.867   7.203 -0.4147  1.5698 -2.5089
  169SAPE   H4Y19136   6.051   3.756   7.191 -0.6958 -0.7509 -0.5528
  169SAPE   C3519137   5.862   3.667   7.259 -0.0061 -0.0790 -0.2723
  169SAPE   H5X19138   5.892   3.564   7.230 -1.2856 -0.2405 -1.0328
  169SAPE   H5Y19139   5.754   3.680   7.237 -0.2073 -1.5457 -0.1824
  169SAPE   C3619140   5.875   3.691   7.406 -0.0500  0.0955 -0.8044
  169SAPE   H6X19141   5.894   3.798   7.425 -2.6180  0.5984 -0.8863
  169SAPE   H6Y19142   5.957   3.638   7.459 -1.1770 -1.1471 -0.2690
  169SAPE   C3719143   5.746   3.650   7.483  0.7027  0.2758 -0.0750
  169SAPE   H7X19144   5.743   3.540   7.471 -0.2472  0.2387  0.4038
  169SAPE   H7Y19145   5.665   3.696   7.422  0.8032 -0.6926 -0.9464
  169SAPE   C3819146   5.736   3.686   7.632 -0.1006  0.1407 -0.5279
  169SAPE   H8X19147   5.646   3.633   7.669  0.6887  0.4623  1.9050
  169SAPE   H8Y19148   5.725   3.796   7.648  0.4288  0.4151 -1.8978
  169SAPE   C3919149   5.852   3.617   7.718  0.0162  0.2958  0.5256
  169SAPE   H9X19150   5.955   3.653   7.696  0.4380 -0.4243  1.2453
  169SAPE   H9Y19151   5.841   3.508   7.695 -2.4307  0.6496 -0.0833
  169SAPE  C31019152   5.827   3.631   7.868  0.2489 -0.3411  1.0248
  169SAPE  H10X19153   5.895   3.564   7.926  1.1265  0.0328  0.4413
  169SAPE  H10Y19154   5.723   3.603   7.895 -0.0465 -2.0601 -1.6670
  169SAPE  C31119155   5.857   3.780   7.914 -0.4793 -0.0538  0.7264
  169SAPE  H11X19156   5.786   3.850   7.866  0.4018  0.0384 -0.4474
  169SAPE  H11Y19157   5.957   3.811   7.875 -1.2796 -0.1300 -1.4296
  169SAPE  C31219158   5.856   3.788   8.069 -0.2093  0.2067 -1.2367
  169SAPE  H12X19159   5.941   3.722   8.097 -1.1518  0.1761  1.6951
  169SAPE  H12Y19160   5.755   3.761   8.108  0.1144 -2.3369 -2.1125
  169SAPE  C31319161   5.896   3.931   8.120 -0.5466 -0.1814 -0.2538
  169SAPE  H13X19162   5.800   3.980   8.095 -0.2770  1.3078  1.5382
  169SAPE  H13Y19163   5.978   3.973   8.057  0.0960 -0.2810  0.5072
  169SAPE  C31419164   5.929   3.939   8.269 -0.0816  0.4231 -0.1617
  169SAPE  H14X19165   6.031   3.903   8.294 -0.9835 -1.8946  0.3018
  169SAPE  H14Y19166   5.863   3.867   8.322  0.0633 -0.1616 -0.7716
  169SAPE  C31519167   5.893   4.079   8.318 -0.2992 -0.3121 -0.1362
  169SAPE  H15X19168   5.799   4.116   8.272  0.6882  0.5614 -1.4911
  169SAPE  H15Y19169   5.969   4.148   8.275  0.7927 -1.5407 -0.2175
  169SAPE  C31619170   5.879   4.085   8.471 -0.8169 -0.1328 -0.5622
  169SAPE  H16X19171   5.907   4.183   8.514 -1.2396  0.8347 -2.4752
  169SAPE  H16Y19172   5.951   4.009   8.510  0.2319 -0.2214 -2.6088
  169SAPE  C31719173   5.735   4.055   8.512  0.0816 -0.6746 -0.1990
  169SAPE  H17X19174   5.707   3.960   8.462  0.7218 -1.8432  1.6185
  169SAPE  H17Y19175   5.675   4.140   8.475  2.2025  0.1431 -1.8455
  169SAPE  C31819176   5.714   4.050   8.661  0.9739  0.3276  0.0061
  169SAPE  H18X19177   5.612   4.074   8.697  1.4857  2.3750  0.1641
  169SAPE  H18Y19178   5.777   4.132   8.702  0.6574  0.2507  0.6578
  169SAPE  H18Z19179   5.735   3.953   8.711 -2.6899 -0.1980  0.6297
  170SAPE     N19180   6.680   0.839   6.246 -0.7542  0.0005 -0.5626
  170SAPE   HN119181   6.706   0.779   6.165 -0.6120  0.2338 -0.6915
  170SAPE   HN219182   6.657   0.936   6.215  0.3321  1.0422  1.7419
  170SAPE   HN319183   6.771   0.843   6.297 -2.2110 -0.0348  2.0791
  170SAPE   C1219184   6.576   0.785   6.340 -0.0855  0.1198  0.2129
  170SAPE  H12A19185   6.569   0.854   6.427 -0.7904 -1.1313  1.1685
  170SAPE  H12B19186   6.612   0.685   6.372 -0.0116  0.5279  1.4279
  170SAPE   C1119187   6.443   0.767   6.262 -0.5669  0.4365  0.4568
  170SAPE  H11A19188   6.423   0.873   6.235  1.0103  0.3072 -1.2873
  170SAPE  H11B19189   6.361   0.736   6.331 -0.7529  0.4104  0.2250
  170SAPE     P19190   6.379   0.552   6.115 -0.6486 -0.1904 -0.1823
  170SAPE   O1319191   6.237   0.567   6.076  0.6723  0.3356 -0.0182
  170SAPE   O1419192   6.454   0.468   6.016  1.1770 -0.8005  0.3144
  170SAPE   O1219193   6.456   0.686   6.143  0.3071  0.3686 -0.0540
  170SAPE   O1119194   6.380   0.482   6.254 -0.2625  0.2037 -0.0809
  170SAPE    C119195   6.283   0.384   6.296  0.1842 -0.4678  0.6289
  170SAPE    HA19196   6.239   0.332   6.208  1.8652 -1.9374  0.6397
  170SAPE    HB19197   6.329   0.313   6.368  1.5279 -0.5547 -0.2971
  170SAPE    C219198   6.171   0.456   6.375  0.7507 -0.2094  0.1429
  170SAPE    HS19199   6.149   0.553   6.326  1.9399 -0.5348 -1.0356
  170SAPE   O2119200   6.223   0.492   6.509 -0.4366  0.2487 -0.0521
  170SAPE   C2119201   6.158   0.597   6.558 -0.1432  0.5309 -0.2840
  170SAPE   O2219202   6.071   0.659   6.503 -0.0020 -0.0913 -0.1492
  170SAPE   C2219203   6.215   0.633   6.697  0.5952  0.2843  0.3641
  170SAPE   H2R19204   6.189   0.544   6.757  1.5946 -0.6104 -0.5215
  170SAPE   H2S19205   6.325   0.633   6.689  0.7912 -0.2312  2.6469
  170SAPE    C319206   6.043   0.366   6.394 -0.5628  0.0360  0.2230
  170SAPE    HX19207   6.003   0.344   6.293  0.9775  1.2109 -0.6673
  170SAPE    HY19208   5.964   0.433   6.434  1.1801  2.1074  0.3452
  170SAPE   O3119209   6.043   0.252   6.485  0.4728 -0.4086  0.0231
  170SAPE   C3119210   6.101   0.144   6.444  0.3433 -0.3978  0.4338
  170SAPE   O3219211   6.135   0.118   6.328  0.2210 -0.0131  0.3261
  170SAPE   C3219212   6.115   0.056   6.560 -0.1571  0.0668 -0.4562
  170SAPE   H2X19213   6.048  -0.029   6.537  1.0185 -0.9347 -0.1850
  170SAPE   H2Y19214   6.085   0.104   6.656  0.3808 -1.2519  0.3830
  170SAPE   C2319215   6.166   0.761   6.755 -0.2062  0.1341 -0.2163
  170SAPE   H3R19216   6.056   0.764   6.770 -0.2965 -1.0016 -0.6207
  170SAPE   H3S19217   6.201   0.838   6.684 -0.1706  1.1243  0.8517
  170SAPE   C2419218   6.247   0.783   6.883  0.0150 -0.5757 -0.0194
  170SAPE   H4R19219   6.353   0.775   6.848  0.1205 -0.3103  0.2419
  170SAPE   H4S19220   6.216   0.710   6.960  1.7038 -3.9723 -2.4298
  170SAPE   C2519221   6.214   0.924   6.925  0.8398  0.8381  0.6321
  170SAPE   H5R19222   6.132   0.927   6.997  1.3685  2.9476  1.1727
  170SAPE   C2619223   6.271   1.031   6.868 -0.0562 -0.3020  0.3641
  170SAPE   H6R19224   6.251   1.133   6.904 -0.1920  0.1386 -0.9472
  170SAPE   C2719225   6.366   1.044   6.752 -0.2052  0.4554  0.6272
  170SAPE   H7R19226   6.308   1.085   6.667 -0.7363  0.9210  1.2161
  170SAPE   H7S19227   6.406   0.946   6.719  0.3155  0.3740  1.4663
  170SAPE   C2819228   6.473   1.145   6.777  0.1535  0.0790 -0.0596
  170SAPE   H8R19229   6.440   1.249   6.769 -0.8221 -0.2361 -0.1851
  170SAPE   C2919230   6.599   1.128   6.812  0.0436 -0.4114  0.3900
  170SAPE   H9R19231   6.660   1.219   6.827 -0.4757 -0.1061  0.6523
  170SAPE  C21019232   6.673   0.999   6.848  0.7949 -0.4772 -0.3460
  170SAPE  H10R19233   6.611   0.910   6.823 -0.2903  0.2300 -0.2133
  170SAPE  H10S19234   6.680   0.986   6.959 -0.2149  1.5241 -0.0352
  170SAPE  C21119235   6.804   0.990   6.779 -0.4150 -0.2274  0.3735
  170SAPE  H11R19236   6.797   0.949   6.677 -1.2908  0.5734  0.1044
  170SAPE  C21219237   6.927   1.026   6.832  0.4121 -0.7050  0.1102
  170SAPE  H12R19238   7.011   0.980   6.778  1.4059  0.6582  0.4492
  170SAPE  C21319239   6.960   1.079   6.968 -0.3152 -0.2314  0.8559
  170SAPE  H13R19240   6.879   1.141   7.012  1.7599  1.2695  2.6650
  170SAPE  H13S19241   7.053   1.139   6.959  0.3494 -1.2126  1.1707
  170SAPE  C21419242   7.008   0.967   7.066 -0.6044 -0.2049 -0.1184
  170SAPE  H14R19243   7.020   0.866   7.026  1.0217  0.5336 -1.5892
  170SAPE  C21519244   7.036   0.994   7.195 -0.1034  0.0934 -0.2255
  170SAPE  H15R19245   7.059   0.908   7.260 -0.2662 -0.0766 -0.3926
  170SAPE  C21619246   7.031   1.127   7.264 -0.3635 -0.8268  0.0607
  170SAPE  H16R19247   6.958   1.117   7.347 -2.5322  0.7246 -1.6091
  170SAPE  H16S19248   7.006   1.211   7.196  0.9092  0.4588  1.1293
  170SAPE  C21719249   7.166   1.170   7.326  0.0782  0.2864 -0.4086
  170SAPE  H17R19250   7.153   1.269   7.373 -0.1941 -0.0178  0.1597
  170SAPE  H17S19251   7.234   1.173   7.238 -0.1061 -2.1098 -0.6771
  170SAPE  C21819252   7.226   1.068   7.420  0.1445  0.3739  0.2525
  170SAPE  H18R19253   7.264   0.978   7.368  1.5049  0.9547  0.2199
  170SAPE  H18S19254   7.145   1.047   7.494 -0.9346  0.8672 -0.7676
  170SAPE  C21919255   7.337   1.120   7.505 -0.8997  0.0213 -0.2260
  170SAPE  H19R19256   7.286   1.194   7.571 -1.3709  1.4285 -2.1501
  170SAPE  H19S19257   7.417   1.166   7.444  0.0125 -0.7668  0.3544
  170SAPE  C22019258   7.399   1.014   7.595  0.0751 -0.1895 -0.2451
  170SAPE  H20R19259   7.318   0.948   7.632 -1.1183  0.2756 -1.9742
  170SAPE  H20S19260   7.458   1.053   7.681 -1.9282  0.4851  0.8566
  170SAPE  H20T19261   7.477   0.958   7.540  0.9449 -0.4344  1.2144
  170SAPE   C3319262   6.267   0.020   6.575 -0.1869 -0.6357 -0.0289
  170SAPE   H3X19263   6.312  -0.007   6.477 -0.2565 -0.3892 -0.1268
  170SAPE   H3Y19264   6.274  -0.065   6.647 -0.1079 -0.9351 -0.3898
  170SAPE   C3419265   6.355   0.140   6.633  0.3112 -0.4051 -0.6698
  170SAPE   H4X19266   6.328   0.230   6.573  1.4016  0.0431 -0.5049
  170SAPE   H4Y19267   6.462   0.117   6.620  0.2393 -1.7993  1.0676
  170SAPE   C3519268   6.335   0.170   6.784  0.8950  0.1131 -0.0615
  170SAPE   H5X19269   6.378   0.086   6.843  0.0956 -0.2838 -0.0341
  170SAPE   H5Y19270   6.225   0.184   6.791  0.7145 -0.7280 -1.0793
  170SAPE   C3619271   6.405   0.297   6.827 -0.0554  0.1936  0.3402
  170SAPE   H6X19272   6.383   0.388   6.768 -0.1751  1.0136  1.6373
  170SAPE   H6Y19273   6.509   0.281   6.791  0.4785  0.3037  1.7813
  170SAPE   C3719274   6.406   0.345   6.969 -0.3157  0.2297 -0.1188
  170SAPE   H7X19275   6.453   0.445   6.973 -1.1845  0.6542 -0.5162
  170SAPE   H7Y19276   6.477   0.277   7.022  0.6771  2.4210  1.4380
  170SAPE   C3819277   6.267   0.346   7.038 -0.0382 -0.0581 -0.5208
  170SAPE   H8X19278   6.234   0.240   7.035  0.7545 -0.2873 -1.3435
  170SAPE   H8Y19279   6.207   0.417   6.977 -2.0112  1.2693  2.8659
  170SAPE   C3919280   6.273   0.388   7.184 -0.4273 -0.4432 -0.9369
  170SAPE   H9X19281   6.372   0.375   7.232 -1.4544  2.4457  2.1394
  170SAPE   H9Y19282   6.192   0.351   7.251  0.9682 -2.0717 -0.1228
  170SAPE  C31019283   6.255   0.540   7.201  0.0072 -0.7197  0.1513
  170SAPE  H10X19284   6.150   0.569   7.181  0.3646 -1.1211 -2.5358
  170SAPE  H10Y19285   6.328   0.594   7.137 -0.6641  1.2088  0.9833
  170SAPE  C31119286   6.297   0.587   7.346 -0.0533  0.0472  0.3687
  170SAPE  H11X19287   6.314   0.696   7.330 -0.9738 -0.3448 -4.0502
  170SAPE  H11Y19288   6.396   0.540   7.366  1.3200  3.2012  1.4417
  170SAPE  C31219289   6.197   0.552   7.455  0.1748 -0.1956  0.4670
  170SAPE  H12X19290   6.220   0.447   7.484  1.8015 -0.0666 -0.2860
  170SAPE  H12Y19291   6.093   0.551   7.415  0.2815  1.4329  0.1325
  170SAPE  C31319292   6.196   0.637   7.579 -0.1337 -0.2544  0.3675
  170SAPE  H13X19293   6.116   0.613   7.652  1.0414 -0.0034  1.7741
  170SAPE  H13Y19294   6.182   0.743   7.551  1.0320 -0.6011 -1.6219
  170SAPE  C31419295   6.331   0.640   7.649 -0.1438  0.1680  0.5377
  170SAPE  H14X19296   6.405   0.706   7.597 -0.3393  0.5296  0.7141
  170SAPE  H14Y19297   6.361   0.533   7.651 -2.6700 -0.5732 -0.1528
  170SAPE  C31519298   6.321   0.683   7.792  0.5832 -0.1133  0.4586
  170SAPE  H15X19299   6.242   0.622   7.842 -1.2168  0.1940 -1.9529
  170SAPE  H15Y19300   6.286   0.787   7.808 -3.1981 -0.9750 -1.6759
  170SAPE  C31619301   6.448   0.669   7.876  0.2390 -0.4205 -0.0926
  170SAPE  H16X19302   6.541   0.666   7.814  0.4961 -0.5848  0.2976
  170SAPE  H16Y19303   6.441   0.566   7.916  0.3662  0.1904  1.5063
  170SAPE  C31719304   6.468   0.770   7.990 -0.6059  0.6542 -0.2117
  170SAPE  H17X19305   6.537   0.735   8.069 -0.2110  0.7009 -0.5318
  170SAPE  H17Y19306   6.368   0.793   8.032 -1.5515 -0.6982 -1.6633
  170SAPE  C31819307   6.515   0.903   7.935  0.2372  0.0578  0.0935
  170SAPE  H18X19308   6.583   0.947   8.011  1.3127  1.3765 -1.5923
  170SAPE  H18Y19309   6.441   0.985   7.930  2.3043  1.9602 -0.2350
  170SAPE  H18Z19310   6.572   0.889   7.841 -2.3171 -1.2354 -1.3137
  171SAPE     N19311   1.501   1.100   6.107 -0.5668 -0.2871 -0.2914
  171SAPE   HN119312   1.527   1.043   6.023 -2.4069 -2.8218  0.8167
  171SAPE   HN219313   1.586   1.148   6.142 -1.6681  0.2815  1.6449
  171SAPE   HN319314   1.477   1.042   6.189 -0.8490  1.8732  1.1849
  171SAPE   C1219315   1.400   1.212   6.081  0.1828  0.6755  0.8680
  171SAPE  H12A19316   1.299   1.178   6.048  0.5370  2.0683 -1.7284
  171SAPE  H12B19317   1.438   1.276   5.999 -2.4694  0.4478 -0.5978
  171SAPE   C1119318   1.389   1.311   6.203 -0.0585  0.6386 -0.0317
  171SAPE  H11A19319   1.389   1.248   6.294  1.3393 -1.7249 -1.6018
  171SAPE  H11B19320   1.295   1.371   6.199 -1.0694 -0.8626  0.9492
  171SAPE     P19321   1.634   1.370   6.273  0.5095 -0.1553 -0.2062
  171SAPE   O1319322   1.687   1.238   6.233 -0.1256  0.2795  0.1542
  171SAPE   O1419323   1.716   1.486   6.249 -0.4976 -0.3120 -0.6683
  171SAPE   O1219324   1.495   1.404   6.207  0.3182 -0.2580 -0.0641
  171SAPE   O1119325   1.598   1.367   6.430  0.5495  0.1437  0.2608
  171SAPE    C119326   1.549   1.474   6.511 -0.4054  0.3273 -0.3282
  171SAPE    HA19327   1.630   1.550   6.502  0.3867 -0.4954 -0.1526
  171SAPE    HB19328   1.448   1.515   6.485 -0.6371  0.4427  0.7263
  171SAPE    C219329   1.534   1.431   6.667  0.4378 -0.0740 -0.4580
  171SAPE    HS19330   1.426   1.409   6.678  0.7191 -0.0107  3.1178
  171SAPE   O2119331   1.567   1.542   6.748  0.0343 -0.5668  0.1116
  171SAPE   C2119332   1.469   1.631   6.772  0.4359  0.6735  0.2603
  171SAPE   O2219333   1.363   1.629   6.721  0.0505 -0.0771 -0.0715
  171SAPE   C2219334   1.529   1.752   6.843 -0.5726 -0.6560 -0.2125
  171SAPE   H2R19335   1.633   1.733   6.877 -0.9459 -1.2144  0.6326
  171SAPE   H2S19336   1.540   1.836   6.771 -0.3208 -2.0950 -1.8731
  171SAPE    C319337   1.631   1.314   6.707 -0.3458 -0.0468  0.1358
  171SAPE    HX19338   1.736   1.332   6.673  1.0250 -2.4698  2.8861
  171SAPE    HY19339   1.617   1.216   6.658  2.0032  0.2371 -1.1754
  171SAPE   O3119340   1.650   1.289   6.841 -0.0958 -0.9457  0.2012
  171SAPE   C3119341   1.563   1.304   6.935  0.2279 -0.7457  0.2527
  171SAPE   O3219342   1.440   1.299   6.921  0.5141  0.5586 -0.2388
  171SAPE   C3219343   1.626   1.321   7.070  0.3851  0.0963 -0.1119
  171SAPE   H2X19344   1.688   1.414   7.073 -0.9225  1.0766 -2.3218
  171SAPE   H2Y19345   1.696   1.235   7.070 -1.2664 -1.2684 -1.3031
  171SAPE   C2319346   1.445   1.798   6.956 -0.0840 -0.7251  0.3444
  171SAPE   H3R19347   1.380   1.722   7.005 -1.1295 -0.1391 -0.1072
  171SAPE   H3S19348   1.370   1.873   6.923 -0.7161 -2.1538 -1.6059
  171SAPE   C2419349   1.528   1.852   7.075  0.3899  0.0551  0.2742
  171SAPE   H4R19350   1.471   1.927   7.133  0.2053 -0.2665  0.5101
  171SAPE   H4S19351   1.615   1.900   7.025  0.9007 -1.7579 -0.6451
  171SAPE   C2519352   1.596   1.739   7.150  0.0463  0.4034  0.1712
  171SAPE   H5R19353   1.659   1.673   7.089 -0.5469  3.3537 -3.8413
  171SAPE   C2619354   1.587   1.710   7.279 -0.0486  0.2171 -0.5045
  171SAPE   H6R19355   1.646   1.623   7.314 -0.3267  0.7140  1.2596
  171SAPE   C2719356   1.506   1.783   7.381 -0.2955 -0.1232 -0.0211
  171SAPE   H7R19357   1.401   1.789   7.345  0.0645  0.7221 -0.9548
  171SAPE   H7S19358   1.550   1.885   7.384 -0.5410  0.0069 -0.7234
  171SAPE   C2819359   1.511   1.725   7.521  0.4743  0.4140  0.3432
  171SAPE   H8R19360   1.478   1.620   7.522 -0.8264  0.8185  0.5090
  171SAPE   C2919361   1.552   1.775   7.643  0.3707 -0.2235  0.6270
  171SAPE   H9R19362   1.538   1.702   7.723 -0.0272 -1.3319 -0.4399
  171SAPE  C21019363   1.591   1.916   7.677 -0.0714 -0.5829 -0.1981
  171SAPE  H10R19364   1.534   1.985   7.611 -0.9729  0.0476  1.2152
  171SAPE  H10S19365   1.699   1.917   7.651  0.6810  0.2382  2.8225
  171SAPE  C21119366   1.588   1.955   7.829 -0.3343  0.5595 -0.1668
  171SAPE  H11R19367   1.664   1.902   7.888  0.5838  0.0289 -1.7614
  171SAPE  C21219368   1.484   2.020   7.885  0.3481  0.0284  0.3920
  171SAPE  H12R19369   1.475   2.053   7.990  1.8280 -1.2441  0.9470
  171SAPE  C21319370   1.363   2.072   7.804 -0.5996 -0.5271 -0.2000
  171SAPE  H13R19371   1.269   2.070   7.863 -0.9038  2.8581 -0.4667
  171SAPE  H13S19372   1.331   2.005   7.722 -1.5861 -0.8497  0.4371
  171SAPE  C21419373   1.388   2.212   7.737 -0.4021  0.3591 -0.7594
  171SAPE  H14R19374   1.454   2.275   7.798  0.1877 -1.3146  0.3644
  171SAPE  C21519375   1.329   2.253   7.634 -0.5247 -0.4210  0.3050
  171SAPE  H15R19376   1.357   2.349   7.588 -0.1324 -1.5206 -1.8276
  171SAPE  C21619377   1.218   2.189   7.556  0.1049  0.7898  0.0808
  171SAPE  H16R19378   1.126   2.251   7.559  0.6215  1.6394 -1.4896
  171SAPE  H16S19379   1.207   2.085   7.596 -4.8168  0.8105 -0.9333
  171SAPE  C21719380   1.253   2.161   7.405  0.0747 -0.0707  0.1356
  171SAPE  H17R19381   1.336   2.087   7.401  0.0857 -0.0323 -0.5267
  171SAPE  H17S19382   1.264   2.255   7.347  2.2813 -0.5558 -0.2581
  171SAPE  C21819383   1.130   2.094   7.333  0.0873  0.3259  0.0642
  171SAPE  H18R19384   1.037   2.149   7.361  0.0605 -0.6362  1.9699
  171SAPE  H18S19385   1.110   1.990   7.366  2.3709 -0.8590 -2.1635
  171SAPE  C21919386   1.146   2.074   7.182  0.3897 -0.0100 -0.3411
  171SAPE  H19R19387   1.073   1.996   7.151 -0.8352 -0.1771  2.7384
  171SAPE  H19S19388   1.246   2.036   7.153  0.7633  0.2679  0.5560
  171SAPE  C22019389   1.122   2.202   7.091 -0.2992  1.1217 -0.3258
  171SAPE  H20R19390   1.020   2.239   7.115 -1.1398 -1.2778 -0.1157
  171SAPE  H20S19391   1.140   2.180   6.984 -0.0156  1.6564 -0.3922
  171SAPE  H20T19392   1.194   2.279   7.127 -0.3236  1.3248 -0.7051
  171SAPE   C3319393   1.523   1.326   7.187 -0.0831  0.4282 -0.5656
  171SAPE   H3X19394   1.444   1.250   7.165 -0.4146 -0.0375  2.0683
  171SAPE   H3Y19395   1.476   1.427   7.185 -1.4510 -0.1802  0.0741
  171SAPE   C3419396   1.584   1.299   7.323  0.0695 -0.3775 -0.0531
  171SAPE   H4X19397   1.660   1.378   7.341 -2.2194  1.3860  2.0760
  171SAPE   H4Y19398   1.637   1.203   7.338 -0.2957 -0.4612  0.7142
  171SAPE   C3519399   1.488   1.299   7.440  0.0321  0.5811  0.2799
  171SAPE   H5X19400   1.431   1.207   7.465 -0.0942  0.5055 -0.2846
  171SAPE   H5Y19401   1.412   1.375   7.417  1.0009  1.3907 -0.2880
  171SAPE   C3619402   1.564   1.348   7.560 -0.2490  0.2430 -0.1360
  171SAPE   H6X19403   1.608   1.449   7.540 -1.9535  0.7930 -1.1719
  171SAPE   H6Y19404   1.649   1.280   7.584 -0.5157  0.2001  0.7143
  171SAPE   C3719405   1.494   1.341   7.703 -0.8963  0.1235  0.2820
  171SAPE   H7X19406   1.465   1.235   7.714 -3.1044  0.3682 -2.6291
  171SAPE   H7Y19407   1.401   1.403   7.707 -0.5092  0.6900  0.6890
  171SAPE   C3819408   1.586   1.380   7.824  0.3006 -0.4238 -0.2941
  171SAPE   H8X19409   1.527   1.432   7.902  1.5665 -0.1180  0.4757
  171SAPE   H8Y19410   1.663   1.457   7.799  0.5639 -0.7747 -0.5632
  171SAPE   C3919411   1.669   1.257   7.852 -0.4840  1.0518  0.4020
  171SAPE   H9X19412   1.725   1.208   7.768 -1.7693 -1.7830  1.1328
  171SAPE   H9Y19413   1.597   1.181   7.888  0.2372 -0.9977 -2.2700
  171SAPE  C31019414   1.761   1.269   7.973  0.0367  0.5632 -0.1459
  171SAPE  H10X19415   1.823   1.360   7.964 -0.2903  0.5733 -2.7281
  171SAPE  H10Y19416   1.820   1.176   7.987 -1.7749 -0.1438  3.4441
  171SAPE  C31119417   1.687   1.285   8.106 -0.0573 -0.1243 -0.3781
  171SAPE  H11X19418   1.641   1.189   8.137 -0.5739  0.1506 -0.2918
  171SAPE  H11Y19419   1.602   1.355   8.097 -0.7072 -0.2624  3.8958
  171SAPE  C31219420   1.778   1.324   8.223 -0.3824  0.2262 -0.0456
  171SAPE  H12X19421   1.724   1.325   8.321 -3.2685 -1.8506 -1.5482
  171SAPE  H12Y19422   1.812   1.429   8.210 -0.6215  0.5085  1.4515
  171SAPE  C31319423   1.902   1.224   8.234  0.4999  0.2956 -0.3114
  171SAPE  H13X19424   1.969   1.227   8.145 -3.7914 -1.5521 -3.7529
  171SAPE  H13Y19425   1.874   1.118   8.248  0.3860  0.2997 -0.4960
  171SAPE  C31419426   1.988   1.255   8.362 -0.2665  0.3232 -0.1872
  171SAPE  H14X19427   1.924   1.288   8.447  0.7950 -0.5729  0.9604
  171SAPE  H14Y19428   2.047   1.346   8.339  1.1641 -0.5434  0.0418
  171SAPE  C31519429   2.079   1.139   8.401  0.9582  0.5701  0.7165
  171SAPE  H15X19430   2.140   1.117   8.310  1.8764 -0.0116  1.4729
  171SAPE  H15Y19431   2.020   1.049   8.428  1.6956 -0.2182 -0.2718
  171SAPE  C31619432   2.178   1.155   8.510 -0.8735 -0.4355 -0.6310
  171SAPE  H16X19433   2.240   1.063   8.514  0.5013  0.4890 -0.6241
  171SAPE  H16Y19434   2.133   1.155   8.611 -0.3285 -1.2075 -0.3821
  171SAPE  C31719435   2.279   1.271   8.500  0.2900 -0.0521 -0.6502
  171SAPE  H17X19436   2.232   1.364   8.539 -1.9727  0.4977 -4.3516
  171SAPE  H17Y19437   2.314   1.292   8.397 -0.9167 -0.1000 -1.0850
  171SAPE  C31819438   2.407   1.249   8.573 -0.2511 -0.8430  0.1207
  171SAPE  H18X19439   2.394   1.229   8.681 -0.6296 -2.0416 -0.1371
  171SAPE  H18Y19440   2.477   1.334   8.559 -1.3959 -0.2620 -2.4210
  171SAPE  H18Z19441   2.450   1.155   8.530 -0.6688 -0.1763 -1.8277
  172SAPE     N19442   0.576   6.386   6.471  0.4884 -0.5544  0.2214
  172SAPE   HN119443   0.498   6.400   6.538 -2.5730 -2.5401 -2.7606
  172SAPE   HN219444   0.576   6.289   6.435  1.5210 -0.1534 -0.8916
  172SAPE   HN319445   0.667   6.409   6.516  0.7048 -0.1127 -0.4334
  172SAPE   C1219446   0.554   6.492   6.357 -0.6000 -0.5961 -0.4314
  172SAPE  H12A19447   0.451   6.489   6.316 -1.0151 -1.2502  0.6305
  172SAPE  H12B19448   0.614   6.469   6.267 -0.6229 -1.6236 -0.1821
  172SAPE   C1119449   0.564   6.645   6.412  0.5849 -0.4075  0.4947
  172SAPE  H11A19450   0.661   6.652   6.465  0.6377 -1.9417  0.6079
  172SAPE  H11B19451   0.489   6.669   6.490 -0.0155  1.5071 -0.6159
  172SAPE     P19452   0.655   6.830   6.248 -0.0712  0.0159 -0.2041
  172SAPE   O1319453   0.788   6.783   6.289 -0.7248  0.0811 -0.3582
  172SAPE   O1419454   0.635   6.848   6.100 -0.9137  0.3343  0.2985
  172SAPE   O1219455   0.544   6.739   6.305 -0.1628 -0.0123  0.3241
  172SAPE   O1119456   0.627   6.975   6.317  0.8065 -0.0250  0.1357
  172SAPE    C119457   0.543   7.001   6.431 -0.1930 -0.2695  0.1989
  172SAPE    HA19458   0.477   7.088   6.412 -0.9157 -0.3095  2.3381
  172SAPE    HB19459   0.480   6.912   6.449  0.4472 -0.3553  2.1823
  172SAPE    C219460   0.618   7.030   6.564 -1.0492  0.2703 -0.0457
  172SAPE    HS19461   0.540   7.055   6.639  0.2155  1.8360  0.7741
  172SAPE   O2119462   0.703   7.147   6.539 -0.0385  0.7463  0.1571
  172SAPE   C2119463   0.729   7.222   6.645  0.0371 -0.6959  0.0857
  172SAPE   O2219464   0.685   7.200   6.758 -0.4910 -0.3834 -0.4896
  172SAPE   C2219465   0.801   7.350   6.605  0.1750  0.5897 -0.2430
  172SAPE   H2R19466   0.820   7.342   6.496  0.4464  2.3772 -0.3390
  172SAPE   H2S19467   0.735   7.435   6.631 -1.5422 -1.0587  0.9170
  172SAPE    C319468   0.711   6.909   6.601  0.3153  0.0491 -0.1467
  172SAPE    HX19469   0.778   6.885   6.516 -0.4053  0.1925 -0.7576
  172SAPE    HY19470   0.644   6.821   6.610 -1.7254  1.5402 -0.3290
  172SAPE   O3119471   0.788   6.929   6.718  0.0242  0.4797  0.1497
  172SAPE   C3119472   0.825   6.823   6.788  0.4254 -0.2222 -0.2170
  172SAPE   O3219473   0.795   6.707   6.758  0.3250 -0.6537  0.4668
  172SAPE   C3219474   0.893   6.867   6.925 -0.0693  0.3807  0.1566
  172SAPE   H2X19475   0.942   6.965   6.910  0.4079  0.3009  1.1460
  172SAPE   H2Y19476   0.979   6.797   6.941 -0.1031  0.8122  2.2739
  172SAPE   C2319477   0.927   7.381   6.682 -0.7711 -0.1682  0.1687
  172SAPE   H3R19478   0.927   7.333   6.783 -3.1006  0.6277  0.5664
  172SAPE   H3S19479   0.945   7.491   6.688  0.2404 -0.2591 -1.0116
  172SAPE   C2419480   1.060   7.308   6.627 -0.0053  0.1884 -0.3631
  172SAPE   H4R19481   1.067   7.336   6.520  1.7863 -0.1008 -0.3376
  172SAPE   H4S19482   1.032   7.200   6.623 -0.5753  0.3862 -2.9285
  172SAPE   C2519483   1.192   7.327   6.701  0.2155 -0.3892 -0.2596
  172SAPE   H5R19484   1.249   7.412   6.661 -0.8662 -0.0953 -1.2083
  172SAPE   C2619485   1.236   7.263   6.811 -0.4522  0.1576 -0.1864
  172SAPE   H6R19486   1.344   7.272   6.832 -0.2999  1.4487 -1.4710
  172SAPE   C2719487   1.177   7.153   6.891  0.1097 -0.3148  0.4344
  172SAPE   H7R19488   1.264   7.094   6.928  0.6913 -0.0632 -0.5346
  172SAPE   H7S19489   1.128   7.084   6.819 -0.8101 -0.0924  0.8329
  172SAPE   C2819490   1.089   7.208   6.998 -0.3043  0.1590 -0.3303
  172SAPE   H8R19491   1.003   7.272   6.974 -0.9287 -0.3680  0.4892
  172SAPE   C2919492   1.114   7.200   7.128  0.0502  0.7613  0.5612
  172SAPE   H9R19493   1.046   7.240   7.205 -0.9800  0.1197  0.0045
  172SAPE  C21019494   1.232   7.124   7.191 -1.2334  0.0837 -0.5595
  172SAPE  H10R19495   1.330   7.141   7.140  0.7567 -0.9576  2.7826
  172SAPE  H10S19496   1.220   7.016   7.166  1.2003  0.0917 -1.9346
  172SAPE  C21119497   1.250   7.147   7.336  0.5411  0.1036 -0.0053
  172SAPE  H11R19498   1.239   7.056   7.398 -1.9537  0.9292  0.8565
  172SAPE  C21219499   1.261   7.266   7.402 -0.5707 -0.0534  0.6466
  172SAPE  H12R19500   1.280   7.271   7.510 -2.9348  0.5136  1.0602
  172SAPE  C21319501   1.266   7.407   7.346 -0.5709  0.0846 -0.1899
  172SAPE  H13R19502   1.276   7.406   7.235  0.0417 -0.2773 -0.1335
  172SAPE  H13S19503   1.354   7.454   7.393  1.5194 -1.4114 -2.4669
  172SAPE  C21419504   1.147   7.484   7.375 -0.2511  0.2841 -0.4589
  172SAPE  H14R19505   1.064   7.469   7.304  0.7263  0.0678 -1.5718
  172SAPE  C21519506   1.134   7.551   7.487  0.0453  0.0448  0.3493
  172SAPE  H15R19507   1.033   7.592   7.503  0.1931  1.1068 -1.2952
  172SAPE  C21619508   1.232   7.576   7.603  0.2097  0.3580 -0.0520
  172SAPE  H16R19509   1.219   7.679   7.643 -0.0239  0.1044  0.5424
  172SAPE  H16S19510   1.339   7.573   7.572  0.7188  0.1973  1.6548
  172SAPE  C21719511   1.217   7.493   7.726 -0.0174  0.4838 -0.3379
  172SAPE  H17R19512   1.194   7.390   7.690  0.5114  0.0333  0.5685
  172SAPE  H17S19513   1.126   7.521   7.783  0.2350 -1.5252  1.1363
  172SAPE  C21819514   1.338   7.499   7.818 -0.2312  0.1942 -0.9988
  172SAPE  H18R19515   1.432   7.460   7.771 -0.1640 -0.8058 -0.0566
  172SAPE  H18S19516   1.314   7.454   7.917  0.2684 -0.3102 -1.1029
  172SAPE  C21919517   1.378   7.640   7.859 -0.1116 -1.1991  0.1931
  172SAPE  H19R19518   1.396   7.696   7.765  0.2899 -0.8733  0.4612
  172SAPE  H19S19519   1.473   7.632   7.917  0.4777 -0.8470 -0.7209
  172SAPE  C22019520   1.280   7.723   7.948 -0.2591 -0.0612 -0.3594
  172SAPE  H20R19521   1.259   7.649   8.029  0.1219 -0.7336 -0.8706
  172SAPE  H20S19522   1.189   7.753   7.891 -0.4236 -1.3096 -0.7865
  172SAPE  H20T19523   1.326   7.815   7.990  0.5190 -0.6931  0.1948
  172SAPE   C3319524   0.786   6.868   7.035  0.4845  0.4979  0.4290
  172SAPE   H3X19525   0.735   6.769   7.037 -0.2393  0.8604  0.1104
  172SAPE   H3Y19526   0.714   6.948   7.008 -1.7657 -0.4922  3.2795
  172SAPE   C3419527   0.850   6.908   7.166  0.5571  0.9873  0.1642
  172SAPE   H4X19528   0.892   7.009   7.148 -0.9425  1.5426 -0.2554
  172SAPE   H4Y19529   0.934   6.838   7.188 -0.6830 -1.0098 -1.2802
  172SAPE   C3519530   0.753   6.922   7.281  0.0018  0.0233  0.0251
  172SAPE   H5X19531   0.690   6.831   7.274 -0.7727  0.6510 -1.2380
  172SAPE   H5Y19532   0.691   7.013   7.266  0.5583  0.5721  0.9756
  172SAPE   C3619533   0.825   6.915   7.416 -0.4137 -0.0845  0.4470
  172SAPE   H6X19534   0.894   7.002   7.419  0.0190 -0.3253 -1.7458
  172SAPE   H6Y19535   0.886   6.822   7.421 -0.6325 -0.2580 -0.0351
  172SAPE   C3719536   0.731   6.902   7.528 -0.0423  0.7225  0.4171
  172SAPE   H7X19537   0.665   6.814   7.515 -0.2266  1.0664 -1.0698
  172SAPE   H7Y19538   0.670   6.995   7.528 -0.0006  0.8008  3.7092
  172SAPE   C3819539   0.795   6.881   7.665 -0.4521 -0.3972  0.4961
  172SAPE   H8X19540   0.875   6.954   7.688 -0.1711 -0.6002  0.1568
  172SAPE   H8Y19541   0.835   6.778   7.654 -0.3124 -0.1944 -0.9660
  172SAPE   C3919542   0.694   6.878   7.783 -0.8495 -0.4195 -0.9174
  172SAPE   H9X19543   0.622   6.794   7.782 -1.3027 -0.0422 -0.6910
  172SAPE   H9Y19544   0.632   6.970   7.791 -1.0005 -0.6440  0.8004
  172SAPE  C31019545   0.766   6.855   7.927  0.2405  0.1833 -0.2175
  172SAPE  H10X19546   0.796   6.954   7.969  1.8139 -0.6880  0.7785
  172SAPE  H10Y19547   0.859   6.797   7.905 -0.0720  0.2131 -1.6338
  172SAPE  C31119548   0.671   6.777   8.016  0.0771  0.1335  1.1611
  172SAPE  H11X19549   0.666   6.678   7.965 -0.9621  1.0836 -0.5911
  172SAPE  H11Y19550   0.569   6.821   8.016 -0.2059 -0.4775 -1.0707
  172SAPE  C31219551   0.723   6.748   8.158  0.2290 -0.9202  0.1217
  172SAPE  H12X19552   0.800   6.668   8.166  3.4607  2.1414  1.0969
  172SAPE  H12Y19553   0.632   6.707   8.207  0.9894 -1.8172  0.7977
  172SAPE  C31319554   0.773   6.879   8.225 -0.0533 -0.0354 -0.4523
  172SAPE  H13X19555   0.698   6.960   8.214 -0.9137 -0.7849 -0.1529
  172SAPE  H13Y19556   0.870   6.912   8.181  0.7674 -0.0444  1.3238
  172SAPE  C31419557   0.785   6.869   8.376 -0.4859 -0.3242 -0.6136
  172SAPE  H14X19558   0.824   6.959   8.429 -0.9469  1.3486 -3.0808
  172SAPE  H14Y19559   0.871   6.802   8.400 -0.6243  0.7615  3.3193
  172SAPE  C31519560   0.661   6.824   8.453  0.5662 -0.2995  0.0784
  172SAPE  H15X19561   0.689   6.835   8.560  1.4391 -1.2150 -0.0582
  172SAPE  H15Y19562   0.647   6.719   8.422 -0.8073  0.0609 -0.5826
  172SAPE  C31619563   0.532   6.906   8.420  0.2916 -0.8053  0.2218
  172SAPE  H16X19564   0.446   6.866   8.479 -0.5259 -0.1914 -0.5526
  172SAPE  H16Y19565   0.507   6.897   8.312 -1.3207 -0.8953  0.5808
  172SAPE  C31719566   0.546   7.052   8.452  0.0850  0.6383  0.2029
  172SAPE  H17X19567   0.638   7.094   8.404 -0.7800  0.4738 -1.6239
  172SAPE  H17Y19568   0.558   7.065   8.561 -2.1695 -1.0552  0.6774
  172SAPE  C31819569   0.426   7.133   8.400 -0.2108  0.2045  0.3215
  172SAPE  H18X19570   0.327   7.097   8.437  0.3241 -0.6356  0.9527
  172SAPE  H18Y19571   0.426   7.136   8.289  0.1381 -0.1557  0.3108
  172SAPE  H18Z19572   0.437   7.237   8.435 -0.8355  0.9228 -1.5658
  173SOPE     N19573   1.478   5.467  10.762  0.4289 -0.4479  0.3600
  173SOPE   HN119574   1.385   5.498  10.729  1.6446  1.1871 -1.6295
  173SOPE   HN219575   1.462   5.391  10.832  1.0363 -0.9013  0.0155
  173SOPE   HN319576   1.507   5.548  10.822 -3.2642  1.2379 -0.0059
  173SOPE   C1219577   1.569   5.429  10.657  0.5880 -0.2353  0.0458
  173SOPE  H12A19578   1.565   5.497  10.569 -2.4169 -1.2884 -0.6751
  173SOPE  H12B19579   1.545   5.331  10.609  2.8569 -0.5234 -0.5698
  173SOPE   C1119580   1.715   5.416  10.712  0.5364  0.0121 -0.5378
  173SOPE  H11A19581   1.744   5.518  10.744 -0.7615  0.8691 -2.0281
  173SOPE  H11B19582   1.793   5.389  10.637  1.7793 -0.6954  0.9769
  173SOPE     P19583   1.762   5.173  10.799  0.0763 -0.1091  0.1196
  173SOPE   O1319584   1.644   5.101  10.740  0.2750  0.4896  0.5571
  173SOPE   O1419585   1.825   5.111  10.919  0.6048 -0.5025 -0.2916
  173SOPE   O1219586   1.721   5.324  10.823  0.5752 -0.2698 -0.9844
  173SOPE   O1119587   1.861   5.176  10.679  0.2349  0.3911 -0.3847
  173SOPE    C119588   1.998   5.131  10.682  0.4588 -0.5553 -0.2902
  173SOPE    HA19589   2.037   5.142  10.785  2.8158  0.3854 -1.2394
  173SOPE    HB19590   2.058   5.208  10.629 -1.0783  0.9287  0.1013
  173SOPE    C219591   2.033   4.994  10.622 -0.0734  0.1677 -0.4770
  173SOPE    HS19592   2.141   4.981  10.603 -0.0551 -0.4829  0.0311
  173SOPE   O2119593   1.952   4.959  10.505 -0.0912  0.2268  0.6080
  173SOPE   C2119594   1.975   5.035  10.400  1.0237  0.1456  0.2422
  173SOPE   O2219595   2.060   5.123  10.388 -0.1876 -0.0741  0.2969
  173SOPE   C2219596   1.854   5.015  10.305 -0.4034  0.4206 -0.2714
  173SOPE   H2R19597   1.834   5.116  10.263  0.8447 -0.0659 -2.0740
  173SOPE   H2S19598   1.769   4.990  10.372  0.9174 -0.0843  1.2543
  173SOPE    C319599   2.012   4.883  10.732 -0.3809  0.4515  0.2768
  173SOPE    HX19600   1.905   4.886  10.760 -0.5787 -1.0584 -0.2884
  173SOPE    HY19601   2.062   4.905  10.830  0.4019 -1.1570  0.2568
  173SOPE   O3119602   2.045   4.747  10.690  0.5936  0.1033 -0.1220
  173SOPE   C3119603   2.174   4.714  10.696 -0.6733  0.2155 -0.9150
  173SOPE   O3219604   2.263   4.794  10.734  0.0501  0.6890 -0.2127
  173SOPE   C3219605   2.202   4.570  10.648  0.2193 -0.5222 -0.5280
  173SOPE   H2X19606   2.166   4.498  10.724  1.0418  0.3828  0.7297
  173SOPE   H2Y19607   2.311   4.553  10.662  0.6985  2.9970  0.4857
  173SOPE   C2319608   1.878   4.916  10.194  0.2144  0.1856 -0.0021
  173SOPE   H3R19609   1.880   4.819  10.248  1.7057 -0.3272 -0.9501
  173SOPE   H3S19610   1.983   4.929  10.158 -0.2668  0.5900 -1.2940
  173SOPE   C2419611   1.778   4.929  10.079  0.9402  0.6053 -0.1900
  173SOPE   H4R19612   1.675   4.912  10.115  1.1797 -1.9320 -0.6190
  173SOPE   H4S19613   1.780   5.029  10.030  1.8519 -0.0810 -1.6056
  173SOPE   C2519614   1.809   4.825   9.964  0.1389 -0.7730  0.4462
  173SOPE   H5R19615   1.918   4.829   9.944  0.3360 -1.9767  1.2451
  173SOPE   H5S19616   1.782   4.723  10.000 -1.2862  0.2410  2.3467
  173SOPE   C2619617   1.725   4.864   9.843 -0.4168 -0.5213 -0.2949
  173SOPE   H6R19618   1.618   4.868   9.873 -0.5592  0.5547 -0.9333
  173SOPE   H6S19619   1.751   4.970   9.824 -3.6537  0.0568 -1.7561
  173SOPE   C2719620   1.752   4.761   9.731 -0.3530  0.0552  0.5598
  173SOPE   H7R19621   1.852   4.746   9.685 -1.4961 -0.6357 -1.8095
  173SOPE   H7S19622   1.719   4.661   9.766 -0.7014  0.3904  1.1986
  173SOPE   C2819623   1.666   4.798   9.609  0.2321 -0.5554 -0.3003
  173SOPE   H8R19624   1.692   4.718   9.536  2.2442 -1.6064  1.5147
  173SOPE   H8S19625   1.562   4.777   9.642  0.5260 -0.8615  0.4379
  173SOPE   C2919626   1.670   4.938   9.552 -0.3824 -0.1296  0.0044
  173SOPE   H9119627   1.588   5.008   9.574  0.6625  0.5566  1.8312
  173SOPE  C21019628   1.768   4.997   9.479  0.0305 -0.1332 -0.4632
  173SOPE  H10119629   1.756   5.101   9.445 -1.2219 -0.7509 -2.0285
  173SOPE  C21119630   1.901   4.934   9.440 -0.0809 -0.0292 -0.1422
  173SOPE  H11R19631   1.904   4.928   9.330 -1.3477 -0.5627 -0.1485
  173SOPE  H11S19632   1.921   4.832   9.480  1.1988  0.7415  1.2757
  173SOPE  C21219633   2.021   5.021   9.502 -0.0033  0.0204  1.2465
  173SOPE  H12R19634   2.008   5.120   9.454  0.2878 -0.4230  0.2416
  173SOPE  H12S19635   2.118   4.977   9.470  0.1459  1.6022 -0.5596
  173SOPE  C21319636   2.021   5.024   9.652  0.4683  0.1518  0.3976
  173SOPE  H13R19637   2.035   4.919   9.684  1.8029  0.1935 -0.0194
  173SOPE  H13S19638   1.930   5.070   9.695  0.2418 -1.3745  1.5936
  173SOPE  C21419639   2.141   5.103   9.706  0.0288 -1.0260  0.9119
  173SOPE  H14R19640   2.137   5.207   9.668  1.1085 -1.3566 -0.1636
  173SOPE  H14S19641   2.226   5.047   9.661  1.0964  0.7446  0.6953
  173SOPE  C21519642   2.155   5.104   9.859 -0.3371  0.5024  0.2185
  173SOPE  H15R19643   2.165   4.996   9.883 -1.3033  0.2095 -0.6817
  173SOPE  H15S19644   2.065   5.140   9.913 -0.5219  1.1429 -0.5095
  173SOPE  C21619645   2.273   5.187   9.904 -0.0569  0.4610 -0.8114
  173SOPE  H16R19646   2.268   5.284   9.850  2.6148  0.3041 -1.4402
  173SOPE  H16S19647   2.369   5.136   9.880 -0.0266  0.5307 -0.8383
  173SOPE  C21719648   2.270   5.216  10.051 -0.3412  0.1216  0.2236
  173SOPE  H17R19649   2.188   5.288  10.072 -0.7603  0.0062 -0.9813
  173SOPE  H17S19650   2.360   5.280  10.067  0.2449 -0.1218 -1.9113
  173SOPE  C21819651   2.275   5.094  10.142  0.2037  0.1306  0.7436
  173SOPE  H18R19652   2.358   5.027  10.113  0.7619  1.3989 -0.6323
  173SOPE  H18S19653   2.179   5.038  10.136 -1.5103  3.0800 -0.3837
  173SOPE  H18T19654   2.293   5.130  10.246  0.1041  1.3851  0.3357
  173SOPE   C3319655   2.163   4.541  10.500 -0.3077  0.0413  0.2730
  173SOPE   H3X19656   2.055   4.566  10.490 -0.1103  0.6381 -0.4435
  173SOPE   H3Y19657   2.164   4.432  10.479  1.6587 -0.0382  0.6635
  173SOPE   C3419658   2.244   4.616  10.397 -0.1593  0.1924 -0.6783
  173SOPE   H4X19659   2.354   4.599  10.399 -0.4472 -1.7312  0.2780
  173SOPE   H4Y19660   2.218   4.724  10.405  1.1882  0.5403 -0.8846
  173SOPE   C3519661   2.208   4.587  10.252  0.0318  0.1721  0.3020
  173SOPE   H5X19662   2.099   4.588  10.230  0.3367  0.4199 -1.1942
  173SOPE   H5Y19663   2.245   4.486  10.224  2.9679  1.9887 -2.6969
  173SOPE   C3619664   2.284   4.681  10.159 -0.0880 -0.2253 -0.0877
  173SOPE   H6X19665   2.390   4.689  10.191  0.2695 -1.9758 -0.7903
  173SOPE   H6Y19666   2.244   4.784  10.173  1.7817  0.5913 -0.5821
  173SOPE   C3719667   2.290   4.647  10.006 -0.0780  0.3920 -0.3544
  173SOPE   H7X19668   2.381   4.584   9.993  0.3179  0.8451  0.1729
  173SOPE   H7Y19669   2.302   4.737   9.943  0.3332  1.2672  0.9553
  173SOPE   C3819670   2.164   4.570   9.961  0.0330 -0.1738 -0.2204
  173SOPE   H8X19671   2.065   4.613   9.988 -0.0572 -0.6474  0.2118
  173SOPE   H8Y19672   2.157   4.470  10.008 -1.0991 -1.5402 -3.1971
  173SOPE   C3919673   2.166   4.552   9.807  0.3894 -0.3278  0.1244
  173SOPE   H9X19674   2.246   4.481   9.778  0.9936  0.2730  0.3010
  173SOPE   H9Y19675   2.188   4.646   9.751  1.0826 -0.9494 -0.6603
  173SOPE  C31019676   2.029   4.496   9.759 -0.5234  0.2185  0.0880
  173SOPE  H10X19677   1.945   4.547   9.810  0.0001  1.7363 -0.5317
  173SOPE  H10Y19678   2.028   4.386   9.774 -1.9775  0.0285 -1.2312
  173SOPE  C31119679   2.004   4.518   9.614 -0.7776  0.3247 -0.3246
  173SOPE  H11X19680   2.088   4.468   9.562 -1.0788 -3.1370  2.3445
  173SOPE  H11Y19681   2.009   4.627   9.592 -1.0575  0.7053  1.4142
  173SOPE  C31219682   1.882   4.438   9.568  0.5398 -0.1545  0.0185
  173SOPE  H12X19683   1.786   4.484   9.603  1.3639  2.9081 -1.6114
  173SOPE  H12Y19684   1.884   4.331   9.597  1.0212  0.0231  0.6436
  173SOPE  C31319685   1.892   4.434   9.413 -0.3315 -0.2451 -0.1449
  173SOPE  H13X19686   1.983   4.384   9.373 -1.5110 -3.6544  1.1881
  173SOPE  H13Y19687   1.887   4.537   9.371 -0.5053 -0.9945 -2.0248
  173SOPE  C31419688   1.781   4.345   9.355 -0.7448 -0.1038  0.1668
  173SOPE  H14X19689   1.698   4.338   9.429 -0.3582  0.7538  0.6847
  173SOPE  H14Y19690   1.817   4.241   9.339  1.7231  0.7958 -0.3166
  173SOPE  C31519691   1.706   4.402   9.234 -0.0474  0.3196  0.8331
  173SOPE  H15X19692   1.651   4.494   9.264 -1.5633 -0.2829 -0.0422
  173SOPE  H15Y19693   1.627   4.325   9.223  1.3288 -1.2184  1.5130
  173SOPE  C31619694   1.777   4.432   9.099 -0.7628  0.0681  0.0663
  173SOPE  H16X19695   1.844   4.350   9.065  0.9612  1.3271  0.3505
  173SOPE  H16Y19696   1.834   4.527   9.115 -0.9475  0.1887  0.0109
  173SOPE  C31719697   1.681   4.460   8.980 -0.0562 -0.1150 -0.0632
  173SOPE  H17X19698   1.746   4.503   8.901  0.4964 -0.0915  0.3976
  173SOPE  H17Y19699   1.602   4.533   9.009 -0.5677 -0.5576 -0.3320
  173SOPE  C31819700   1.611   4.340   8.918 -0.2347  0.2260  0.0862
  173SOPE  H18X19701   1.680   4.309   8.837  0.4543  2.2520 -0.1370
  173SOPE  H18Y19702   1.520   4.371   8.861 -1.7931  1.2894  3.0655
  173SOPE  H18Z19703   1.591   4.256   8.987 -1.8576  1.1692  0.8015
  174SOPE     N19704   1.408   5.017  10.819  0.0838 -0.0388  0.3663
  174SOPE   HN119705   1.335   5.091  10.818 -0.3236 -0.4488 -1.1136
  174SOPE   HN219706   1.492   5.056  10.772 -1.1254  2.8056  0.4298
  174SOPE   HN319707   1.359   4.944  10.764 -0.2254 -0.2477  0.9134
  174SOPE   C1219708   1.441   4.948  10.953 -0.3653 -0.2350  0.3031
  174SOPE  H12A19709   1.343   4.938  11.002 -0.5320 -1.2816 -0.2343
  174SOPE  H12B19710   1.507   5.016  11.012 -2.3431  0.6570  1.5224
  174SOPE   C1119711   1.516   4.818  10.927  0.2629 -0.4359 -0.0984
  174SOPE  H11A19712   1.527   4.771  11.027  2.0009 -0.2861 -0.2129
  174SOPE  H11B19713   1.618   4.832  10.885  0.3634 -0.8576  0.0012
  174SOPE     P19714   1.501   4.602  10.793  0.3261  0.4598  0.3104
  174SOPE   O1319715   1.423   4.569  10.675 -0.3361  0.1476  0.3220
  174SOPE   O1419716   1.505   4.499  10.891  0.4264 -0.1541 -0.1184
  174SOPE   O1219717   1.437   4.735  10.846 -0.2435  0.4720  0.0735
  174SOPE   O1119718   1.648   4.642  10.750 -0.1773 -0.5876 -0.9680
  174SOPE    C119719   1.671   4.746  10.655  0.2813 -0.2425 -1.2274
  174SOPE    HA19720   1.756   4.808  10.690 -0.3182  0.8712 -1.7431
  174SOPE    HB19721   1.587   4.817  10.640  0.5866  1.1008  2.7494
  174SOPE    C219722   1.711   4.678  10.515 -0.7564 -0.0633 -0.0889
  174SOPE    HS19723   1.777   4.750  10.463 -1.3395  0.9300  0.5101
  174SOPE   O2119724   1.597   4.649  10.432 -0.5829 -0.4486  0.0039
  174SOPE   C2119725   1.527   4.749  10.378  0.4697 -0.4039  0.5493
  174SOPE   O2219726   1.552   4.868  10.382 -0.1580  0.8944 -0.2100
  174SOPE   C2219727   1.427   4.678  10.296 -0.0152 -0.4661  0.4062
  174SOPE   H2R19728   1.352   4.619  10.353  1.8621 -2.4600  0.9061
  174SOPE   H2S19729   1.480   4.614  10.223  0.0901  2.0779 -1.8177
  174SOPE    C319730   1.777   4.535  10.525  0.4575  0.1027  0.3730
  174SOPE    HX19731   1.702   4.460  10.561 -0.3411  0.8363  0.2553
  174SOPE    HY19732   1.845   4.532  10.613 -1.3758 -0.6407  1.8040
  174SOPE   O3119733   1.838   4.509  10.396  0.3938  0.2544 -0.3636
  174SOPE   C3119734   1.772   4.419  10.311 -0.1370 -0.5459 -0.0661
  174SOPE   O3219735   1.672   4.358  10.340  0.1378 -0.5248 -0.1211
  174SOPE   C3219736   1.866   4.398  10.187 -0.6765 -0.2416  0.0260
  174SOPE   H2X19737   1.951   4.334  10.217  0.8653  1.2522 -1.0392
  174SOPE   H2Y19738   1.893   4.503  10.162 -0.5654 -0.3871 -0.4535
  174SOPE   C2319739   1.345   4.787  10.211  0.1902 -0.3136  0.0791
  174SOPE   H3R19740   1.407   4.877  10.190 -0.3355  0.9821  3.7673
  174SOPE   H3S19741   1.257   4.820  10.270  0.7671 -0.3154  0.9428
  174SOPE   C2419742   1.286   4.730  10.083  0.2350 -0.4100 -0.5936
  174SOPE   H4R19743   1.224   4.640  10.102  2.1641 -1.1378  2.5290
  174SOPE   H4S19744   1.218   4.811  10.049 -1.9162 -0.6999  2.8161
  174SOPE   C2519745   1.390   4.715   9.973 -0.4458  0.0337  0.0126
  174SOPE   H5R19746   1.445   4.811   9.982 -0.2129 -0.0075 -0.9229
  174SOPE   H5S19747   1.461   4.636  10.007  1.2399  1.2294 -0.6998
  174SOPE   C2619748   1.351   4.688   9.831  0.0864 -0.1893 -0.0669
  174SOPE   H6R19749   1.324   4.782   9.779  0.5689 -0.1749 -0.2947
  174SOPE   H6S19750   1.449   4.657   9.787  0.5597  0.8691  0.2231
  174SOPE   C2719751   1.252   4.572   9.799 -0.6286 -0.0140 -0.2282
  174SOPE   H7R19752   1.275   4.477   9.853 -0.9998 -0.4073 -0.7622
  174SOPE   H7S19753   1.148   4.596   9.829 -1.0129 -0.6204 -1.0845
  174SOPE   C2819754   1.253   4.538   9.646 -0.6817  0.1545  0.6199
  174SOPE   H8R19755   1.173   4.467   9.617 -0.4248 -0.0486  0.4050
  174SOPE   H8S19756   1.223   4.636   9.603 -3.0180 -1.6894 -2.1465
  174SOPE   C2919757   1.392   4.504   9.593  0.9456  0.1768  0.1383
  174SOPE   H9119758   1.448   4.417   9.633 -1.0102 -0.5114  1.4378
  174SOPE  C21019759   1.459   4.555   9.486  0.4315  0.3257  0.8703
  174SOPE  H10119760   1.560   4.519   9.462 -0.3194 -0.6499 -0.9201
  174SOPE  C21119761   1.401   4.673   9.409 -0.5022  0.1617 -0.6006
  174SOPE  H11R19762   1.482   4.725   9.354  0.5689 -1.0968 -0.2353
  174SOPE  H11S19763   1.350   4.748   9.474 -0.0465 -1.5204  1.7719
  174SOPE  C21219764   1.302   4.640   9.294 -0.0773  0.3437 -0.1909
  174SOPE  H12R19765   1.298   4.721   9.218 -2.4017 -0.7823 -1.3181
  174SOPE  H12S19766   1.199   4.630   9.336  0.0351 -0.0417  0.0013
  174SOPE  C21319767   1.324   4.499   9.228  0.3163  0.2430 -0.4571
  174SOPE  H13R19768   1.351   4.426   9.307 -2.1060 -0.4140 -0.1861
  174SOPE  H13S19769   1.412   4.511   9.161  0.8003 -0.6301  0.0151
  174SOPE  C21419770   1.201   4.461   9.138  0.4230 -0.9235  0.7941
  174SOPE  H14R19771   1.180   4.541   9.064 -1.3744  0.7501  3.0455
  174SOPE  H14S19772   1.110   4.452   9.200  0.6089  5.3075  2.3463
  174SOPE  C21519773   1.231   4.341   9.045 -0.2193 -0.6211  0.5187
  174SOPE  H15R19774   1.248   4.266   9.126  0.9090 -0.8839  0.0427
  174SOPE  H15S19775   1.320   4.361   8.982 -1.1080 -1.8963 -1.1632
  174SOPE  C21619776   1.106   4.288   8.964  0.7592  0.4619 -0.4177
  174SOPE  H16R19777   1.064   4.367   8.898 -2.6058 -1.1279 -0.3068
  174SOPE  H16S19778   1.033   4.255   9.042  0.7667 -0.1411 -0.6624
  174SOPE  C21719779   1.133   4.160   8.881  0.2021  0.0066  0.5948
  174SOPE  H17R19780   1.224   4.167   8.818 -0.4465 -0.4441 -0.4040
  174SOPE  H17S19781   1.047   4.162   8.811  2.6024 -0.0679 -2.4513
  174SOPE  C21819782   1.122   4.021   8.944  0.2150  0.1447  0.1972
  174SOPE  H18R19783   1.135   3.934   8.877  0.1710 -0.5645  1.1027
  174SOPE  H18S19784   1.015   4.015   8.975 -0.3462 -1.8857 -2.0391
  174SOPE  H18T19785   1.184   4.007   9.035 -0.4209 -0.5556  0.5319
  174SOPE   C3319786   1.805   4.328  10.065 -0.5262  0.3959  0.2078
  174SOPE   H3X19787   1.791   4.218  10.075  0.1992  0.1112 -1.6421
  174SOPE   H3Y19788   1.881   4.351   9.987  0.4260  0.4009  1.1288
  174SOPE   C3419789   1.674   4.405  10.022  0.3314 -0.3239 -0.3934
  174SOPE   H4X19790   1.688   4.514  10.008  0.8597 -0.1933  1.0398
  174SOPE   H4Y19791   1.599   4.393  10.104 -1.3937  1.5420 -1.6517
  174SOPE   C3519792   1.622   4.356   9.891  0.8754  0.5880  0.0503
  174SOPE   H5X19793   1.702   4.381   9.818 -1.1924  1.0114 -2.0966
  174SOPE   H5Y19794   1.527   4.410   9.875 -0.0933 -0.5990  1.6135
  174SOPE   C3619795   1.604   4.205   9.874 -0.3291 -0.4352 -0.3112
  174SOPE   H6X19796   1.548   4.186   9.969  0.2914  1.4258  0.4462
  174SOPE   H6Y19797   1.702   4.153   9.878 -1.0733 -2.0386 -2.4893
  174SOPE   C3719798   1.529   4.155   9.753 -0.0530  0.1596  0.1428
  174SOPE   H7X19799   1.547   4.220   9.664 -1.8804 -1.4161 -1.4340
  174SOPE   H7Y19800   1.421   4.169   9.776  0.4685 -1.3774  3.8445
  174SOPE   C3819801   1.540   4.005   9.728 -0.0252 -1.4883 -0.0517
  174SOPE   H8X19802   1.512   3.955   9.824 -2.0993 -1.2015 -0.4821
  174SOPE   H8Y19803   1.642   3.970   9.700  0.4034  0.6605 -1.2438
  174SOPE   C3919804   1.454   3.974   9.605  0.7753 -0.3182  0.3515
  174SOPE   H9X19805   1.351   4.000   9.635  1.2425  1.5037  0.4426
  174SOPE   H9Y19806   1.452   3.865   9.585  0.9186 -0.3605  0.5624
  174SOPE  C31019807   1.516   4.049   9.485 -0.7342  0.8279  0.1739
  174SOPE  H10X19808   1.627   4.043   9.479 -0.7383  1.3176 -0.4294
  174SOPE  H10Y19809   1.496   4.158   9.479  0.7663  1.1550  0.8751
  174SOPE  C31119810   1.474   3.968   9.358  0.0755 -0.3815 -0.0722
  174SOPE  H11X19811   1.366   3.986   9.341  0.3720  2.6631  0.9248
  174SOPE  H11Y19812   1.484   3.861   9.383 -0.1527 -0.4175 -0.1341
  174SOPE  C31219813   1.555   4.003   9.235 -0.5052  0.5855  0.0504
  174SOPE  H12X19814   1.654   3.953   9.239 -0.8073 -0.0385 -0.2693
  174SOPE  H12Y19815   1.569   4.113   9.221  0.2377  0.4561 -0.2787
  174SOPE  C31319816   1.493   3.956   9.102  0.3938 -0.1461 -0.1107
  174SOPE  H13X19817   1.427   4.039   9.071  0.3768 -0.4732 -0.9534
  174SOPE  H13Y19818   1.423   3.877   9.136  2.8092 -3.1463 -1.8789
  174SOPE  C31419819   1.585   3.912   8.990 -0.4533 -0.0151  0.6299
  174SOPE  H14X19820   1.629   3.811   9.001  0.9453  0.2901 -1.7968
  174SOPE  H14Y19821   1.662   3.992   8.986 -0.1286 -0.1985  2.6689
  174SOPE  C31519822   1.502   3.911   8.861  0.2211 -0.2124  0.0906
  174SOPE  H15X19823   1.447   4.004   8.836  1.9482  0.6810 -0.4591
  174SOPE  H15Y19824   1.419   3.839   8.878 -0.9454  0.8446 -1.0564
  174SOPE  C31619825   1.584   3.881   8.731  0.5199  0.1903 -0.0566
  174SOPE  H16X19826   1.535   3.925   8.642 -0.7862 -0.9949  0.0601
  174SOPE  H16Y19827   1.588   3.775   8.699  2.7529  1.4056 -4.0797
  174SOPE  C31719828   1.729   3.935   8.730  0.0842  0.1355  0.1623
  174SOPE  H17X19829   1.778   3.892   8.820 -1.4190 -1.3904  0.2742
  174SOPE  H17Y19830   1.721   4.043   8.756  1.1288  0.0081  1.0397
  174SOPE  C31819831   1.804   3.916   8.597 -0.0811 -0.0999  0.2800
  174SOPE  H18X19832   1.911   3.936   8.619  0.0407  0.1599 -0.5425
  174SOPE  H18Y19833   1.770   3.982   8.515  1.2449 -2.0286 -1.8788
  174SOPE  H18Z19834   1.804   3.807   8.576 -0.5925 -0.1028  0.2902
  175SOPE     N19835   4.183   5.572  10.629 -0.4618  0.3822  0.2159
  175SOPE   HN119836   4.249   5.646  10.661 -0.8905  0.5423  0.7379
  175SOPE   HN219837   4.104   5.561  10.695 -1.2201  1.7925 -0.4222
  175SOPE   HN319838   4.233   5.481  10.624 -0.3619  0.4198  0.4931
  175SOPE   C1219839   4.106   5.599  10.497 -0.1322 -0.5947  0.8068
  175SOPE  H12A19840   4.102   5.501  10.444 -1.0965  0.8378 -1.8306
  175SOPE  H12B19841   4.170   5.661  10.431  0.4088 -1.2543  0.7024
  175SOPE   C1119842   3.974   5.677  10.527 -0.4148  0.1369  0.6255
  175SOPE  H11A19843   3.914   5.674  10.434  2.4295  2.4627 -1.3889
  175SOPE  H11B19844   3.990   5.784  10.550  0.8976  0.0505  0.1781
  175SOPE     P19845   3.770   5.679  10.696  0.2896  0.6071 -0.1408
  175SOPE   O1319846   3.789   5.818  10.748  0.0292  0.4921  0.8594
  175SOPE   O1419847   3.713   5.576  10.786  0.0732 -0.1631  0.2023
  175SOPE   O1219848   3.910   5.629  10.649 -0.1944 -0.2077  0.3035
  175SOPE   O1119849   3.682   5.691  10.570 -0.5688 -0.1951 -0.6326
  175SOPE    C119850   3.640   5.818  10.516  0.1533 -0.6684  0.2104
  175SOPE    HA19851   3.622   5.814  10.407  2.7069  1.2756 -0.3176
  175SOPE    HB19852   3.717   5.898  10.521 -0.1487 -0.3598 -0.0026
  175SOPE    C219853   3.510   5.882  10.579 -0.1890  0.1047  0.0800
  175SOPE    HS19854   3.531   5.911  10.684  0.9699  1.1435 -0.4269
  175SOPE   O2119855   3.416   5.771  10.569 -0.4402 -0.2075  0.5970
  175SOPE   C2119856   3.304   5.778  10.642  0.7744 -0.5872  0.2209
  175SOPE   O2219857   3.289   5.854  10.740  0.0648  0.0337  1.0857
  175SOPE   C2219858   3.188   5.699  10.570 -0.2386  0.8786  0.2433
  175SOPE   H2R19859   3.105   5.676  10.641 -0.7319  0.6491 -0.4042
  175SOPE   H2S19860   3.224   5.600  10.535  1.7798  0.8180  2.4139
  175SOPE    C319861   3.466   6.013  10.505 -0.6587 -0.0172  0.0640
  175SOPE    HX19862   3.528   6.097  10.545  0.6772  0.4802 -2.9416
  175SOPE    HY19863   3.360   6.025  10.534  0.2429  3.7871  2.2784
  175SOPE   O3119864   3.480   5.994  10.360  0.5298  0.0860 -0.6258
  175SOPE   C3119865   3.468   6.099  10.284 -0.2922 -0.9225 -0.0629
  175SOPE   O3219866   3.410   6.199  10.319 -0.1775 -0.0525 -0.5036
  175SOPE   C3219867   3.497   6.062  10.130  0.5142  0.1136  0.3501
  175SOPE   H2X19868   3.460   5.958  10.126  2.7444 -0.7321  0.8823
  175SOPE   H2Y19869   3.607   6.055  10.116  0.6533  0.2809  1.3277
  175SOPE   C2319870   3.119   5.784  10.459  0.0874  0.3135 -0.0586
  175SOPE   H3R19871   3.106   5.891  10.488  1.5837  0.1631  1.2905
  175SOPE   H3S19872   3.026   5.728  10.436  0.0166 -0.4967  2.0595
  175SOPE   C2419873   3.205   5.795  10.331  0.4271 -0.0720  0.6508
  175SOPE   H4R19874   3.310   5.824  10.351 -0.5683  2.6998  2.0219
  175SOPE   H4S19875   3.209   5.694  10.284  0.5592  0.6961 -1.0184
  175SOPE   C2519876   3.146   5.900  10.235 -0.0947 -0.4979 -0.3976
  175SOPE   H5R19877   3.171   5.997  10.283  0.1201  0.6036 -2.6628
  175SOPE   H5S19878   3.205   5.909  10.141  3.0733 -0.5508  1.5132
  175SOPE   C2619879   2.994   5.890  10.207  0.3920 -0.9880  0.0421
  175SOPE   H6R19880   2.962   5.784  10.207  2.2715 -1.5793 -1.0065
  175SOPE   H6S19881   2.939   5.939  10.290 -1.2035  0.0023 -1.5641
  175SOPE   C2719882   2.959   5.971  10.083 -1.4744 -0.0020  0.2102
  175SOPE   H7R19883   2.850   5.991  10.072 -1.3202  1.1147  0.6512
  175SOPE   H7S19884   2.996   6.068  10.121 -2.0043 -0.7239  2.6974
  175SOPE   C2819885   3.005   5.908   9.953  0.4083 -0.0563 -0.7546
  175SOPE   H8R19886   3.114   5.909   9.934  0.2735 -0.0216 -1.5353
  175SOPE   H8S19887   2.972   5.802   9.961  1.7835 -0.3894  0.6389
  175SOPE   C2919888   2.936   5.986   9.839  0.1637 -0.0773 -0.7506
  175SOPE   H9119889   2.987   6.083   9.841 -1.3680  0.7415 -0.6097
  175SOPE  C21019890   2.827   5.961   9.755  0.1211 -0.1079 -0.2131
  175SOPE  H10119891   2.796   6.043   9.689  0.3504 -1.4245 -2.0043
  175SOPE  C21119892   2.742   5.839   9.751 -0.2202 -0.0019 -0.3769
  175SOPE  H11R19893   2.648   5.878   9.796  1.5147  1.5672  2.0589
  175SOPE  H11S19894   2.791   5.758   9.809 -0.4418 -0.9758 -1.5604
  175SOPE  C21219895   2.705   5.786   9.609  0.1783 -0.2948 -0.2010
  175SOPE  H12R19896   2.626   5.840   9.553 -0.0883  1.4856  1.8264
  175SOPE  H12S19897   2.639   5.697   9.618 -0.1342 -0.0317  0.1445
  175SOPE  C21319898   2.830   5.755   9.526 -0.1971  0.0769 -0.9149
  175SOPE  H13R19899   2.905   5.710   9.594 -1.7863 -2.6200 -0.8508
  175SOPE  H13S19900   2.867   5.851   9.484  1.5905  0.9426  2.4832
  175SOPE  C21419901   2.814   5.646   9.424  0.5760 -0.0507 -0.1722
  175SOPE  H14R19902   2.795   5.550   9.478 -0.4294 -0.2983 -0.9622
  175SOPE  H14S19903   2.903   5.635   9.359 -1.2958 -1.3274 -2.6113
  175SOPE  C21519904   2.686   5.670   9.338 -0.1032  0.1699 -0.3843
  175SOPE  H15R19905   2.689   5.773   9.296  1.5911  0.2495 -0.0985
  175SOPE  H15S19906   2.596   5.654   9.401  1.2449 -1.0958  1.2263
  175SOPE  C21619907   2.665   5.583   9.215 -0.4413  0.0156 -0.1250
  175SOPE  H16R19908   2.664   5.477   9.246  1.4748 -0.4440 -1.4699
  175SOPE  H16S19909   2.759   5.597   9.157  0.7517 -0.2348  1.7311
  175SOPE  C21719910   2.549   5.629   9.135  0.3239 -0.5547  0.0148
  175SOPE  H17R19911   2.560   5.735   9.103  0.7916 -0.3900  0.7181
  175SOPE  H17S19912   2.460   5.621   9.201  1.7624 -0.7731  1.9614
  175SOPE  C21819913   2.521   5.539   9.016 -0.0929  0.1067  0.1048
  175SOPE  H18R19914   2.594   5.563   8.936 -0.6596  2.4770  0.2412
  175SOPE  H18S19915   2.420   5.560   8.976 -0.0104  0.8308  0.2700
  175SOPE  H18T19916   2.527   5.431   9.042  2.6998  0.6379  1.8727
  175SOPE   C3319917   3.424   6.161  10.028  0.2356 -0.4042  0.5868
  175SOPE   H3X19918   3.469   6.260  10.051 -1.4557  0.6460 -0.5012
  175SOPE   H3Y19919   3.314   6.168  10.045  0.4105 -0.3689  1.7567
  175SOPE   C3419920   3.454   6.126   9.880 -0.6861  0.8586 -0.4771
  175SOPE   H4X19921   3.552   6.074   9.881 -0.5106  1.1866  2.2568
  175SOPE   H4Y19922   3.471   6.217   9.819  0.2673 -0.1613 -1.7569
  175SOPE   C3519923   3.353   6.048   9.806 -0.0226 -0.5522  0.2505
  175SOPE   H5X19924   3.266   6.110   9.779  0.3205 -1.4639 -3.1253
  175SOPE   H5Y19925   3.317   5.962   9.867  0.2795 -2.0569 -1.6280
  175SOPE   C3619926   3.404   5.992   9.675  0.0451 -0.7177 -0.4835
  175SOPE   H6X19927   3.488   5.924   9.702  0.0922  0.4487  2.5247
  175SOPE   H6Y19928   3.439   6.078   9.615 -0.7347 -0.8233 -1.0950
  175SOPE   C3719929   3.299   5.919   9.593 -0.0649  0.9574  0.4058
  175SOPE   H7X19930   3.208   5.979   9.575 -1.1049 -0.8233 -0.4866
  175SOPE   H7Y19931   3.269   5.836   9.661  2.2242  2.0885  2.8347
  175SOPE   C3819932   3.344   5.854   9.459 -0.0150  1.0253  0.5958
  175SOPE   H8X19933   3.434   5.789   9.468  0.0915  1.0356 -0.3143
  175SOPE   H8Y19934   3.366   5.931   9.383 -0.1615 -1.5263 -2.1150
  175SOPE   C3919935   3.227   5.769   9.413  0.4465 -0.3276  0.0835
  175SOPE   H9X19936   3.141   5.836   9.393  0.2380 -0.0952  1.6526
  175SOPE   H9Y19937   3.202   5.696   9.494 -0.5684  0.3856  0.4236
  175SOPE  C31019938   3.262   5.674   9.296  0.1438  0.0278  0.1952
  175SOPE  H10X19939   3.195   5.585   9.301  1.4342 -0.8543  2.8736
  175SOPE  H10Y19940   3.366   5.640   9.313 -1.0818 -3.4339  1.1882
  175SOPE  C31119941   3.250   5.738   9.163  0.4292  0.0233  0.4311
  175SOPE  H11X19942   3.306   5.834   9.161 -0.0084  0.2586 -2.5249
  175SOPE  H11Y19943   3.147   5.769   9.133  1.1511 -0.4079 -2.6042
  175SOPE  C31219944   3.315   5.657   9.051 -1.0878 -0.9288 -0.6073
  175SOPE  H12X19945   3.416   5.629   9.088  0.1677  2.7019 -1.0628
  175SOPE  H12Y19946   3.339   5.719   8.962  0.7627  0.9050  1.1071
  175SOPE  C31319947   3.233   5.542   9.010 -0.0375 -0.1334 -0.0132
  175SOPE  H13X19948   3.124   5.556   8.993  0.0482 -0.5813 -0.9560
  175SOPE  H13Y19949   3.240   5.475   9.099 -1.0242  3.5550  2.9882
  175SOPE  C31419950   3.273   5.471   8.878 -0.2471 -0.4859 -0.0305
  175SOPE  H14X19951   3.261   5.361   8.885  0.8515 -0.6729 -1.0778
  175SOPE  H14Y19952   3.382   5.492   8.873 -0.0962 -0.5219  2.3079
  175SOPE  C31519953   3.197   5.536   8.754 -1.0211 -0.4644  0.4255
  175SOPE  H15X19954   3.217   5.644   8.772  0.6683 -0.5661 -0.6165
  175SOPE  H15Y19955   3.091   5.504   8.756 -1.3402  0.5595  0.1487
  175SOPE  C31619956   3.246   5.493   8.611 -0.3744  0.1959 -0.8230
  175SOPE  H16X19957   3.200   5.393   8.594 -1.1828 -0.0220  2.2946
  175SOPE  H16Y19958   3.355   5.480   8.622 -0.8365 -1.2478  2.5974
  175SOPE  C31719959   3.222   5.596   8.500 -2.1398  0.2721  0.3312
  175SOPE  H17X19960   3.236   5.697   8.544  0.2474  0.0571  0.1254
  175SOPE  H17Y19961   3.113   5.585   8.479 -1.7110 -2.0003 -0.8763
  175SOPE  C31819962   3.296   5.579   8.365  0.1145  0.2380 -0.3743
  175SOPE  H18X19963   3.400   5.613   8.382 -0.8089  2.3607  1.2764
  175SOPE  H18Y19964   3.248   5.648   8.292 -0.8794 -0.8165 -0.7465
  175SOPE  H18Z19965   3.293   5.480   8.316  1.1840  1.0569 -2.1471
  176SOPE     N19966   2.781   5.728  10.819 -0.8720 -0.1194 -0.3060
  176SOPE   HN119967   2.873   5.687  10.844 -0.3456 -0.7619 -3.1164
  176SOPE   HN219968   2.739   5.647  10.770 -1.5786  0.6236 -0.9465
  176SOPE   HN319969   2.799   5.803  10.750 -2.3029  0.4502 -0.0776
  176SOPE   C1219970   2.704   5.766  10.942  0.2856 -0.0876  0.0751
  176SOPE  H12A19971   2.607   5.812  10.913  0.0476 -0.3382  0.4537
  176SOPE  H12B19972   2.757   5.841  11.004 -1.4216  0.8760  0.4245
  176SOPE   C1119973   2.668   5.634  11.024 -0.8132  0.5392 -0.0955
  176SOPE  H11A19974   2.618   5.562  10.955  0.1975  0.7283 -1.0489
  176SOPE  H11B19975   2.597   5.665  11.104 -1.6010  0.6145 -0.8158
  176SOPE     P19976   2.803   5.418  11.091  0.1794  0.1096 -0.6452
  176SOPE   O1319977   2.720   5.361  11.201 -0.3335  0.0654 -0.0341
  176SOPE   O1419978   2.947   5.388  11.102 -0.1516 -0.1829 -0.0439
  176SOPE   O1219979   2.781   5.576  11.085  0.0892  0.3614  0.1928
  176SOPE   O1119980   2.748   5.375  10.947 -0.0789 -0.3422  0.0294
  176SOPE    C119981   2.737   5.230  10.916  0.4566 -0.7107 -0.1823
  176SOPE    HA19982   2.640   5.204  10.869  1.0893 -0.6021 -1.6026
  176SOPE    HB19983   2.761   5.174  11.009  0.1314  0.2005  0.4548
  176SOPE    C219984   2.842   5.176  10.819  0.1581 -0.0198  0.1601
  176SOPE    HS19985   2.938   5.220  10.855  0.1651 -0.4043  0.6107
  176SOPE   O2119986   2.812   5.232  10.692  0.0990 -0.0864 -0.1343
  176SOPE   C2119987   2.919   5.246  10.614  0.7774  0.4438  0.8304
  176SOPE   O2219988   3.035   5.242  10.652  0.1663  0.3013 -0.0413
  176SOPE   C2219989   2.871   5.297  10.479 -0.4482 -0.4350 -0.3138
  176SOPE   H2R19990   2.786   5.367  10.494  1.9875  2.4549  0.5267
  176SOPE   H2S19991   2.838   5.203  10.430  0.9719 -0.0226 -2.1122
  176SOPE    C319992   2.851   5.026  10.816  0.1669  0.5769  0.1639
  176SOPE    HX19993   2.863   4.979  10.917 -2.8612  1.5117  0.9796
  176SOPE    HY19994   2.941   4.983  10.767 -1.3086  0.3286 -2.3760
  176SOPE   O3119995   2.735   4.971  10.751  0.2316  0.0497 -0.4408
  176SOPE   C3119996   2.738   4.947  10.623 -0.0859 -0.6489  0.1964
  176SOPE   O3219997   2.841   4.939  10.564 -0.0552 -0.4523 -0.4294
  176SOPE   C3219998   2.596   4.922  10.570 -0.4359  0.3495  0.1856
  176SOPE   H2X19999   2.532   5.009  10.595  0.9219  1.6106 -0.6308
  176SOPE   H2Y20000   2.552   4.842  10.633 -0.8794 -0.1330 -0.7387
  176SOPE   C2320001   2.985   5.380  10.408 -0.1574 -1.0460  0.0527
  176SOPE   H3R20002   3.082   5.337  10.438  0.0594  0.5790  1.7779
  176SOPE   H3S20003   2.981   5.480  10.455  0.2778 -2.0957  2.3532
  176SOPE   C2420004   2.965   5.393  10.259  0.8447  0.0305 -0.2857
  176SOPE   H4R20005   2.855   5.392  10.244  0.9088  2.7902 -1.1876
  176SOPE   H4S20006   2.989   5.496  10.224 -0.5324 -0.5774 -3.2286
  176SOPE   C2520007   3.044   5.288  10.188 -0.3990 -0.5930  0.6207
  176SOPE   H5R20008   3.150   5.311  10.212  0.1314 -1.0490 -1.1955
  176SOPE   H5S20009   3.031   5.184  10.225  1.1253 -1.8449 -2.2732
  176SOPE   C2620010   3.007   5.296  10.041  0.3577  0.1149  0.4420
  176SOPE   H6R20011   2.906   5.252  10.042  0.9911 -1.3861 -0.3077
  176SOPE   H6S20012   2.992   5.399  10.001  1.5310 -1.3633 -4.1184
  176SOPE   C2720013   3.090   5.214   9.947 -0.2141 -0.6607  0.1951
  176SOPE   H7R20014   3.193   5.252   9.937  0.1626 -1.9954 -1.2951
  176SOPE   H7S20015   3.113   5.116   9.993 -2.2511 -1.0229  0.5024
  176SOPE   C2820016   3.023   5.195   9.819 -0.4846  0.3251  0.0715
  176SOPE   H8R20017   3.105   5.150   9.758 -0.5818  0.4138 -0.1258
  176SOPE   H8S20018   2.937   5.125   9.816  0.8265 -1.2788 -3.2535
  176SOPE   C2920019   2.976   5.323   9.760  0.5909 -0.4864 -0.4815
  176SOPE   H9120020   2.919   5.396   9.819 -1.2023 -1.8569 -0.5087
  176SOPE  C21020021   2.998   5.364   9.630  1.0718  0.2597  0.1395
  176SOPE  H10120022   2.966   5.465   9.600 -0.8127 -1.2151 -3.0528
  176SOPE  C21120023   3.068   5.289   9.521  0.9741  0.1192  0.3179
  176SOPE  H11R20024   3.055   5.181   9.547 -1.9405  0.8994  2.3331
  176SOPE  H11S20025   3.173   5.324   9.521  0.9909  0.0817  1.5404
  176SOPE  C21220026   3.024   5.315   9.375  0.6368  0.0511  0.7564
  176SOPE  H12R20027   3.096   5.276   9.299 -2.3032 -1.2735 -1.4354
  176SOPE  H12S20028   3.025   5.423   9.350  1.8491  0.3307  1.9665
  176SOPE  C21320029   2.883   5.262   9.330  0.7856  0.4559 -0.1939
  176SOPE  H13R20030   2.803   5.337   9.344  0.4140  0.2972 -1.4032
  176SOPE  H13S20031   2.860   5.173   9.392 -0.8212  0.4829 -0.7398
  176SOPE  C21420032   2.871   5.204   9.190  0.4939 -0.1968 -1.3388
  176SOPE  H14R20033   2.773   5.152   9.192  0.9240 -0.9435  1.5637
  176SOPE  H14S20034   2.945   5.121   9.180 -1.3929 -2.0608 -0.3730
  176SOPE  C21520035   2.886   5.309   9.076 -0.0975 -0.7885  0.0034
  176SOPE  H15R20036   2.958   5.388   9.106  0.5424 -0.1876 -2.9682
  176SOPE  H15S20037   2.787   5.359   9.061  0.4842 -0.0950 -1.6039
  176SOPE  C21620038   2.934   5.258   8.940  0.7938  1.2137  0.0286
  176SOPE  H16R20039   3.041   5.232   8.954  0.4273  0.4767  1.6118
  176SOPE  H16S20040   2.924   5.338   8.864  0.1047 -0.3275 -1.5421
  176SOPE  C21720041   2.877   5.129   8.885 -0.0069  0.9053 -0.5824
  176SOPE  H17R20042   2.885   5.052   8.965 -1.8966 -2.4166 -3.4403
  176SOPE  H17S20043   2.936   5.100   8.795  0.5926  1.6138 -0.4210
  176SOPE  C21820044   2.728   5.141   8.860  0.4020  0.0107 -0.6132
  176SOPE  H18R20045   2.685   5.191   8.949  2.1483  0.8200 -0.2121
  176SOPE  H18S20046   2.671   5.046   8.851  1.8381 -1.0442  1.0179
  176SOPE  H18T20047   2.710   5.212   8.777 -2.2094  1.4409  1.0915
  176SOPE   C3320048   2.590   4.891  10.422 -0.2629  0.0201  0.3855
  176SOPE   H3X20049   2.489   4.846  10.405  0.2423 -0.7491 -0.6184
  176SOPE   H3Y20050   2.669   4.815  10.402 -0.7663 -0.7414  1.2016
  176SOPE   C3420051   2.602   5.011  10.330  0.0625  0.2679  0.4156
  176SOPE   H4X20052   2.696   5.064  10.355  2.0937 -1.4646 -3.2372
  176SOPE   H4Y20053   2.514   5.080  10.331  0.6923  1.0847  0.0076
  176SOPE   C3520054   2.615   4.960  10.186  0.5048  0.1927  0.0358
  176SOPE   H5X20055   2.530   4.891  10.167  1.5157 -0.5278 -2.0797
  176SOPE   H5Y20056   2.702   4.891  10.184 -0.3439 -0.9100  0.4053
  176SOPE   C3620057   2.640   5.070  10.082  0.1375  0.2269  0.5111
  176SOPE   H6X20058   2.708   5.140  10.135 -1.1308  1.7426  0.1419
  176SOPE   H6Y20059   2.544   5.122  10.063  0.3188  0.2594 -0.3092
  176SOPE   C3720060   2.685   5.017   9.950  0.1359  0.5500  0.3550
  176SOPE   H7X20061   2.782   4.964   9.956  0.6939  1.6506  1.4530
  176SOPE   H7Y20062   2.697   5.096   9.872  2.1843 -1.1103 -1.0422
  176SOPE   C3820063   2.580   4.919   9.898  0.4238  0.0272  0.2372
  176SOPE   H8X20064   2.488   4.972   9.931 -0.0851 -0.8967  0.3127
  176SOPE   H8Y20065   2.585   4.822   9.952  2.2955  0.8867  1.6593
  176SOPE   C3920066   2.591   4.891   9.744  0.0334 -0.2000  0.0291
  176SOPE   H9X20067   2.677   4.824   9.726 -0.9625 -1.8741  1.2990
  176SOPE   H9Y20068   2.603   4.992   9.701 -2.3450  0.1487  0.1032
  176SOPE  C31020069   2.456   4.856   9.685 -0.0836  0.3344 -0.3349
  176SOPE  H10X20070   2.395   4.946   9.659 -2.6203 -1.1824  0.1708
  176SOPE  H10Y20071   2.396   4.798   9.759 -2.7376  1.6861 -1.3649
  176SOPE  C31120072   2.481   4.769   9.567 -0.1222 -0.2717  0.6440
  176SOPE  H11X20073   2.511   4.665   9.594  0.9339  0.1380  1.0686
  176SOPE  H11Y20074   2.565   4.813   9.510  1.2326 -2.8244  0.5859
  176SOPE  C31220075   2.355   4.762   9.482 -0.6021  1.2195  0.0584
  176SOPE  H12X20076   2.324   4.867   9.463  1.5835  1.9002  0.1184
  176SOPE  H12Y20077   2.277   4.705   9.537 -0.0201  1.5616  1.2533
  176SOPE  C31320078   2.371   4.700   9.343 -0.0954  0.5901  0.2938
  176SOPE  H13X20079   2.384   4.590   9.351 -0.6038  0.5610  0.7956
  176SOPE  H13Y20080   2.464   4.741   9.299 -0.7777  1.3147 -0.4687
  176SOPE  C31420081   2.244   4.729   9.265  0.2960  0.0999  0.1979
  176SOPE  H14X20082   2.212   4.835   9.278 -1.6694 -0.5927  1.2547
  176SOPE  H14Y20083   2.158   4.668   9.300  0.6300  0.5012  1.7523
  176SOPE  C31520084   2.258   4.702   9.113 -0.5044  0.5414  0.2033
  176SOPE  H15X20085   2.301   4.600   9.100 -3.6157 -0.7318 -0.6900
  176SOPE  H15Y20086   2.332   4.778   9.078  0.6366 -0.0602  1.2529
  176SOPE  C31620087   2.122   4.692   9.040  0.0880 -0.3048  0.0621
  176SOPE  H16X20088   2.068   4.788   9.054 -0.8146 -0.3421 -2.7029
  176SOPE  H16Y20089   2.062   4.610   9.084 -2.5829  0.4251 -2.0417
  176SOPE  C31720090   2.139   4.671   8.886 -0.0575  0.0287 -0.3305
  176SOPE  H17X20091   2.190   4.573   8.874  0.4898  0.1562  0.8911
  176SOPE  H17Y20092   2.204   4.753   8.849 -1.5354 -0.2655 -3.7801
  176SOPE  C31820093   2.012   4.670   8.803 -0.0457  0.2698 -0.0965
  176SOPE  H18X20094   2.031   4.694   8.696  1.4741 -2.5909 -0.5171
  176SOPE  H18Y20095   1.945   4.752   8.836 -0.2983  0.3912 -0.8943
  176SOPE  H18Z20096   1.963   4.571   8.812  0.8538 -0.3337 -1.7607
  177SOPE     N20097   2.618   3.724  10.897  0.3358  0.1740 -0.3484
  177SOPE   HN120098   2.515   3.712  10.904  0.7740 -3.0963  2.4571
  177SOPE   HN220099   2.655   3.651  10.962 -1.2723  0.0114  0.4210
  177SOPE   HN320100   2.647   3.808  10.951  4.4798  0.0678 -2.2133
  177SOPE   C1220101   2.657   3.722  10.758  0.8433 -0.2510 -0.0583
  177SOPE  H12A20102   2.751   3.779  10.742  0.0554  1.2903  0.8042
  177SOPE  H12B20103   2.576   3.768  10.697 -0.0947  0.3036  1.5978
  177SOPE   C1120104   2.676   3.576  10.699  0.0776 -0.3662  0.5912
  177SOPE  H11A20105   2.710   3.577  10.593  1.9810 -2.9690  1.1170
  177SOPE  H11B20106   2.578   3.524  10.698 -0.6960  1.0590  0.5859
  177SOPE     P20107   2.922   3.514  10.789  0.3619  0.3105  0.0291
  177SOPE   O1320108   2.978   3.382  10.846 -0.6484 -0.2812  0.1305
  177SOPE   O1420109   2.944   3.632  10.869 -0.5704 -0.1533  0.3277
  177SOPE   O1220110   2.764   3.496  10.780  0.7741  0.4618 -0.6988
  177SOPE   O1120111   2.958   3.541  10.636  0.5504  0.0136 -0.3481
  177SOPE    C120112   3.043   3.446  10.569  0.3252 -0.7867 -0.4443
  177SOPE    HA20113   2.996   3.346  10.581 -2.7296  0.7591  1.1100
  177SOPE    HB20114   3.143   3.437  10.617 -0.7164 -0.1894  1.9372
  177SOPE    C220115   3.043   3.464  10.417 -0.1034  0.1329 -0.5997
  177SOPE    HS20116   3.101   3.388  10.361 -0.1604  0.3897 -1.0139
  177SOPE   O2120117   3.111   3.590  10.391  0.0337  0.0194  0.0298
  177SOPE   C2120118   3.242   3.582  10.380 -0.8426  1.0867 -0.1799
  177SOPE   O2220119   3.310   3.479  10.381  0.4928 -0.2208  0.4756
  177SOPE   C2220120   3.302   3.725  10.379 -0.0321 -0.3126  0.0312
  177SOPE   H2R20121   3.390   3.733  10.447  0.7936 -0.8896 -0.9583
  177SOPE   H2S20122   3.231   3.805  10.408  0.0637  0.1387 -0.9763
  177SOPE    C320123   2.892   3.458  10.377 -0.7637 -0.6396  0.6992
  177SOPE    HX20124   2.842   3.551  10.410  1.8717  0.9231  0.4460
  177SOPE    HY20125   2.848   3.367  10.424 -1.3306 -0.4917  0.4612
  177SOPE   O3120126   2.895   3.437  10.238 -0.2771  0.0932  0.4718
  177SOPE   C3120127   2.772   3.418  10.187 -0.5189 -0.9617 -0.1342
  177SOPE   O3220128   2.676   3.390  10.259  0.2466  0.3714  0.3725
  177SOPE   C3220129   2.775   3.427  10.036 -0.2847  0.4025  0.1422
  177SOPE   H2X20130   2.680   3.389   9.993 -0.8381  0.8057  0.9910
  177SOPE   H2Y20131   2.845   3.353   9.993 -1.4593 -2.1635  2.4660
  177SOPE   C2320132   3.353   3.762  10.238 -0.1972  0.5174  0.5679
  177SOPE   H3R20133   3.439   3.695  10.217 -2.3243 -2.8999  2.3299
  177SOPE   H3S20134   3.397   3.864  10.229 -1.4710  0.8470 -2.7849
  177SOPE   C2420135   3.249   3.743  10.117 -0.9158  0.5848 -0.2855
  177SOPE   H4R20136   3.214   3.638  10.104 -0.1715  0.7890 -4.7719
  177SOPE   H4S20137   3.167   3.815  10.136  0.2729  0.9993  3.8232
  177SOPE   C2520138   3.306   3.790   9.984  0.4961  0.8419 -0.0068
  177SOPE   H5R20139   3.354   3.890   9.992 -1.0233  1.5422  0.5597
  177SOPE   H5S20140   3.392   3.721   9.965 -1.0972 -1.5831  1.2707
  177SOPE   C2620141   3.208   3.783   9.864 -0.0609 -0.2698 -0.1404
  177SOPE   H6R20142   3.162   3.682   9.865 -3.0201  1.0278 -0.5426
  177SOPE   H6S20143   3.125   3.855   9.882 -0.0142 -0.3103  0.2600
  177SOPE   C2720144   3.281   3.818   9.734  0.6903 -0.4370  0.5307
  177SOPE   H7R20145   3.311   3.925   9.741 -0.7580  0.2360 -2.3741
  177SOPE   H7S20146   3.372   3.755   9.728  0.8981 -0.0901 -0.0560
  177SOPE   C2820147   3.185   3.799   9.614  0.1702 -0.0528  1.0564
  177SOPE   H8R20148   3.135   3.701   9.628 -0.0701 -0.5476 -2.7180
  177SOPE   H8S20149   3.105   3.873   9.634  0.2199  0.0676  0.8062
  177SOPE   C2920150   3.256   3.819   9.482 -0.2117  0.4610 -0.2068
  177SOPE   H9120151   3.313   3.913   9.473  0.3258  0.2575  1.0829
  177SOPE  C21020152   3.277   3.730   9.389 -0.6796 -0.4499  0.1015
  177SOPE  H10120153   3.344   3.760   9.306 -1.0567  2.1633  0.7141
  177SOPE  C21120154   3.225   3.591   9.387 -0.5205  0.5433  0.1880
  177SOPE  H11R20155   3.123   3.582   9.431 -1.0241 -1.9448 -1.3858
  177SOPE  H11S20156   3.296   3.519   9.432 -0.6250  0.5498  0.3659
  177SOPE  C21220157   3.202   3.559   9.244 -0.0925 -0.0172  0.6291
  177SOPE  H12R20158   3.175   3.454   9.218 -1.3441  0.7406 -1.2164
  177SOPE  H12S20159   3.292   3.575   9.181  0.2352  1.8834  1.5472
  177SOPE  C21320160   3.091   3.645   9.168  0.1808 -0.4582 -0.8836
  177SOPE  H13R20161   3.115   3.753   9.176 -0.7028 -0.2956 -0.3490
  177SOPE  H13S20162   2.997   3.620   9.221  0.5460  1.4915  0.7242
  177SOPE  C21420163   3.086   3.602   9.018  0.1413  0.1227 -0.0077
  177SOPE  H14R20164   3.050   3.497   9.014 -1.6051  0.6301  1.5061
  177SOPE  H14S20165   3.189   3.611   8.979 -0.7426  1.4125 -2.1433
  177SOPE  C21520166   2.999   3.701   8.941 -0.4425 -0.0162  0.1572
  177SOPE  H15R20167   3.045   3.801   8.950  0.5266 -0.4519  0.1943
  177SOPE  H15S20168   2.902   3.710   8.994 -0.1866 -3.3793  1.3259
  177SOPE  C21620169   2.984   3.671   8.788 -0.2039  0.0107 -1.0258
  177SOPE  H16R20170   2.907   3.591   8.785 -1.0077  0.7614 -0.8422
  177SOPE  H16S20171   3.080   3.627   8.755 -0.4159  0.0197 -1.6647
  177SOPE  C21720172   2.950   3.794   8.703 -0.2430 -0.1733 -0.2792
  177SOPE  H17R20173   3.025   3.874   8.722  0.7326 -1.4255  1.3505
  177SOPE  H17S20174   2.849   3.833   8.727 -1.2714 -1.1061 -2.9229
  177SOPE  C21820175   2.957   3.755   8.549 -0.1426  0.1890 -0.7436
  177SOPE  H18R20176   2.882   3.677   8.526 -1.3825  1.2647 -0.4327
  177SOPE  H18S20177   3.061   3.720   8.528 -0.8981 -2.5069 -0.1533
  177SOPE  H18T20178   2.936   3.847   8.490 -2.3003  1.7030  2.2040
  177SOPE   C3320179   2.822   3.568   9.990 -0.5898  0.4889  0.6759
  177SOPE   H3X20180   2.921   3.589  10.037  0.1829  0.8046 -1.0463
  177SOPE   H3Y20181   2.761   3.656  10.017 -1.3899  0.5625 -1.2972
  177SOPE   C3420182   2.839   3.584   9.831 -0.4443 -0.4390 -0.1286
  177SOPE   H4X20183   2.925   3.520   9.801 -0.7426 -1.4234  1.0702
  177SOPE   H4Y20184   2.859   3.687   9.796  0.2902 -0.8468 -0.9323
  177SOPE   C3520185   2.715   3.536   9.745  0.3847 -1.2003  0.0875
  177SOPE   H5X20186   2.624   3.597   9.760  1.4460 -0.0444  1.9665
  177SOPE   H5Y20187   2.691   3.429   9.764  1.2575 -1.3648  0.2576
  177SOPE   C3620188   2.752   3.530   9.596  0.0183  0.9619 -0.2004
  177SOPE   H6X20189   2.863   3.518   9.599 -0.1335 -0.8621 -1.1102
  177SOPE   H6Y20190   2.737   3.634   9.559  0.8222  2.5214  3.6879
  177SOPE   C3720191   2.679   3.438   9.503 -0.0169  0.1937  0.0089
  177SOPE   H7X20192   2.576   3.482   9.499  0.1113  0.5337  0.3819
  177SOPE   H7Y20193   2.672   3.329   9.523 -0.6526 -0.4803 -3.4925
  177SOPE   C3820194   2.739   3.452   9.366 -0.1019  0.2060  0.4786
  177SOPE   H8X20195   2.839   3.402   9.366 -1.2456 -2.1712  0.0530
  177SOPE   H8Y20196   2.752   3.560   9.345 -1.3986  0.2236 -0.3065
  177SOPE   C3920197   2.658   3.390   9.249 -0.3822  0.2842  0.6026
  177SOPE   H9X20198   2.561   3.445   9.253  0.4578  1.7457  1.1959
  177SOPE   H9Y20199   2.639   3.285   9.280 -3.6092 -0.1801 -2.4998
  177SOPE  C31020200   2.716   3.389   9.105 -0.3073 -0.1717 -0.3007
  177SOPE  H10X20201   2.820   3.350   9.115 -1.0561 -1.7128  1.9365
  177SOPE  H10Y20202   2.714   3.492   9.063  2.0845  0.5540  1.2647
  177SOPE  C31120203   2.636   3.301   9.015 -0.4536  0.2507  0.3417
  177SOPE  H11X20204   2.528   3.326   9.021 -1.0724 -1.5950 -2.3100
  177SOPE  H11Y20205   2.645   3.193   9.039 -1.4031 -0.6790 -3.2207
  177SOPE  C31220206   2.674   3.304   8.865  0.4236 -0.0940  0.0976
  177SOPE  H12X20207   2.655   3.408   8.831 -1.6382 -0.6520 -0.5204
  177SOPE  H12Y20208   2.610   3.231   8.811 -0.7832 -0.1730  1.6196
  177SOPE  C31320209   2.823   3.264   8.828  0.1419 -1.0047 -0.7720
  177SOPE  H13X20210   2.835   3.158   8.860  1.2090 -0.7692 -0.3667
  177SOPE  H13Y20211   2.891   3.319   8.896 -0.0050 -2.2635  0.4196
  177SOPE  C31420212   2.855   3.284   8.685  0.1675  0.4563 -0.2549
  177SOPE  H14X20213   2.835   3.389   8.655 -1.3809  0.3295  0.3140
  177SOPE  H14Y20214   2.785   3.227   8.620  1.3280 -0.9022 -0.3439
  177SOPE  C31520215   2.999   3.249   8.644 -0.1985  0.1733 -0.6368
  177SOPE  H15X20216   3.005   3.248   8.534 -0.0335 -1.1761 -0.6239
  177SOPE  H15Y20217   3.027   3.152   8.690  1.9477  1.1731  0.2632
  177SOPE  C31620218   3.105   3.361   8.675  0.4885 -0.4443  0.0237
  177SOPE  H16X20219   3.105   3.380   8.784  0.6817 -2.1875  0.3456
  177SOPE  H16Y20220   3.078   3.451   8.616 -1.1818 -0.0304  1.3840
  177SOPE  C31720221   3.251   3.325   8.642 -0.3345  0.3423 -0.6514
  177SOPE  H17X20222   3.265   3.305   8.534  0.5500 -1.4282 -0.2358
  177SOPE  H17Y20223   3.267   3.224   8.685  1.0886  1.3181  1.1941
  177SOPE  C31820224   3.350   3.425   8.700  0.0552  0.0530 -0.0310
  177SOPE  H18X20225   3.362   3.421   8.810  5.2133  1.0076 -0.4159
  177SOPE  H18Y20226   3.325   3.531   8.678 -0.0596 -0.5751 -3.2058
  177SOPE  H18Z20227   3.447   3.387   8.659  0.4925  1.1034  0.0252
  178SOPE     N20228   6.500   1.299  10.829 -0.1387  0.0763  0.2603
  178SOPE   HN120229   6.499   1.197  10.808 -0.3016  0.3778 -1.2484
  178SOPE   HN220230   6.594   1.326  10.862  1.6567 -2.2927 -2.7059
  178SOPE   HN320231   6.426   1.313  10.901  1.0217 -0.3972  1.5540
  178SOPE   C1220232   6.474   1.352  10.690  0.1924 -0.0942  0.2452
  178SOPE  H12A20233   6.430   1.455  10.693 -2.8315 -1.2855 -1.1127
  178SOPE  H12B20234   6.404   1.283  10.638  0.2568  0.3494 -0.4456
  178SOPE   C1120235   6.610   1.356  10.601 -0.3810 -0.0238 -0.5359
  178SOPE  H11A20236   6.581   1.367  10.494  0.6192  1.7260 -0.6457
  178SOPE  H11B20237   6.653   1.254  10.601 -0.6285 -0.1352 -1.4014
  178SOPE     P20238   6.813   1.427  10.744  0.1570  0.0989  0.1825
  178SOPE   O1320239   6.754   1.372  10.872 -0.3500  0.7680 -0.0219
  178SOPE   O1420240   6.900   1.550  10.755 -0.0638 -0.0999 -0.3463
  178SOPE   O1220241   6.693   1.461  10.644 -0.1565 -0.0094  0.5431
  178SOPE   O1120242   6.889   1.315  10.671  0.0621 -0.7094 -0.6720
  178SOPE    C120243   6.992   1.342  10.577 -0.0792  0.4305  0.2490
  178SOPE    HA20244   7.057   1.255  10.601 -1.7125 -0.1534  2.6792
  178SOPE    HB20245   7.065   1.425  10.592  0.1273  0.3990 -0.5336
  178SOPE    C220246   6.952   1.327  10.426  0.3255  0.0828  0.5155
  178SOPE    HS20247   6.874   1.248  10.424  0.5087 -0.0855 -0.6019
  178SOPE   O2120248   7.070   1.294  10.346 -0.5696 -0.0438 -0.4402
  178SOPE   C2120249   7.076   1.161  10.327 -0.4949  0.2086 -0.1776
  178SOPE   O2220250   6.999   1.079  10.375 -0.4700  0.2144  0.0622
  178SOPE   C2220251   7.198   1.139  10.236  0.4742  0.5310 -0.2362
  178SOPE   H2R20252   7.236   1.035  10.241 -1.2389 -0.0034  2.6680
  178SOPE   H2S20253   7.279   1.210  10.263  1.1142 -0.0334 -0.6677
  178SOPE    C320254   6.896   1.459  10.381  0.1617  0.3130 -0.1009
  178SOPE    HX20255   6.941   1.545  10.435 -0.2287  0.3996  0.0904
  178SOPE    HY20256   6.795   1.451  10.427 -0.7026 -2.0255 -2.3008
  178SOPE   O3120257   6.874   1.479  10.241 -0.8177  0.0864 -0.3908
  178SOPE   C3120258   6.873   1.596  10.197 -0.1265 -0.0133 -0.5155
  178SOPE   O3220259   6.909   1.696  10.255 -0.2770  0.1027 -0.2850
  178SOPE   C3220260   6.841   1.592  10.054 -0.7807 -0.2893  0.2831
  178SOPE   H2X20261   6.743   1.540  10.044 -1.4000  0.5366  1.8574
  178SOPE   H2Y20262   6.916   1.538   9.993 -2.2900 -0.4665 -1.4612
  178SOPE   C2320263   7.162   1.167  10.087 -0.6134 -0.6701  0.1832
  178SOPE   H3R20264   7.262   1.183  10.041 -1.0559 -0.1373 -0.6141
  178SOPE   H3S20265   7.115   1.268  10.084  1.4625  0.4060  1.9277
  178SOPE   C2420266   7.088   1.062  10.017 -0.0846 -0.0290  0.3376
  178SOPE   H4R20267   7.131   0.961  10.038  0.0602 -0.4445 -1.8357
  178SOPE   H4S20268   6.983   1.052  10.052 -0.1173 -2.3740 -0.2723
  178SOPE   C2520269   7.095   1.082   9.862 -0.8268 -0.2118  1.0943
  178SOPE   H5R20270   7.202   1.069   9.834 -0.5815  0.9504  1.4587
  178SOPE   H5S20271   7.030   1.001   9.822  0.8782 -1.6440  1.1859
  178SOPE   C2620272   7.036   1.215   9.816  0.3829  0.1444 -0.3190
  178SOPE   H6R20273   6.937   1.225   9.865  0.2771  0.5368 -0.6017
  178SOPE   H6S20274   7.106   1.296   9.847  0.7135 -0.6655  1.0814
  178SOPE   C2720275   6.994   1.221   9.672 -0.1101  0.2763  0.0656
  178SOPE   H7R20276   6.966   1.119   9.638  1.8049  0.3224 -1.7804
  178SOPE   H7S20277   6.923   1.305   9.655  1.4278  2.2209  2.9329
  178SOPE   C2820278   7.109   1.255   9.579  0.1351  0.2997 -0.4190
  178SOPE   H8R20279   7.152   1.354   9.604  1.7967 -0.8868  1.5610
  178SOPE   H8S20280   7.189   1.180   9.596 -1.9284 -2.1295 -1.0981
  178SOPE   C2920281   7.078   1.258   9.428  0.0939  0.2199  0.4736
  178SOPE   H9120282   7.036   1.351   9.387 -2.2226  0.7439  3.8257
  178SOPE  C21020283   7.099   1.159   9.335  0.3063 -0.6553  0.5972
  178SOPE  H10120284   7.069   1.177   9.231  0.5210  2.2361  1.0181
  178SOPE  C21120285   7.151   1.021   9.362  0.1593 -0.2577 -0.3696
  178SOPE  H11R20286   7.215   1.028   9.453 -1.9099 -0.2469  1.1246
  178SOPE  H11S20287   7.219   0.998   9.278  0.2547  0.6900 -0.5609
  178SOPE  C21220288   7.048   0.914   9.375 -0.5884 -0.2116  0.3279
  178SOPE  H12R20289   6.975   0.954   9.448  0.0740 -0.6272  1.2309
  178SOPE  H12S20290   7.097   0.822   9.415  0.4503  0.3749  0.4230
  178SOPE  C21320291   6.969   0.864   9.248 -0.2098  0.1297  0.3741
  178SOPE  H13R20292   6.918   0.949   9.198 -2.2151 -2.7146 -2.6238
  178SOPE  H13S20293   6.886   0.793   9.270  0.3213 -0.3107  1.0008
  178SOPE  C21420294   7.062   0.788   9.155  0.2453  0.1712  0.4981
  178SOPE  H14R20295   7.095   0.697   9.210 -0.5459 -0.2225  0.3194
  178SOPE  H14S20296   7.156   0.840   9.126 -0.5738  0.5366 -1.5393
  178SOPE  C21520297   6.988   0.752   9.024 -0.0490 -0.0304  0.4971
  178SOPE  H15R20298   6.940   0.848   8.994  0.5973 -0.0457 -0.6035
  178SOPE  H15S20299   6.908   0.681   9.053 -0.8492  1.0254  0.9250
  178SOPE  C21620300   7.079   0.698   8.908 -0.4695  0.2668  0.8071
  178SOPE  H16R20301   7.154   0.624   8.945  1.5622  0.3344 -2.9527
  178SOPE  H16S20302   7.134   0.777   8.853 -1.4310 -0.6364 -1.5333
  178SOPE  C21720303   6.999   0.632   8.801  0.8159 -0.2814  0.0775
  178SOPE  H17R20304   6.928   0.710   8.767  1.3592  0.3067  0.2989
  178SOPE  H17S20305   6.946   0.547   8.851  0.3237 -0.9747 -1.5662
  178SOPE  C21820306   7.077   0.583   8.683  0.5534  0.7716  0.2247
  178SOPE  H18R20307   7.011   0.542   8.603 -0.9563 -1.0748  2.3574
  178SOPE  H18S20308   7.145   0.505   8.723  2.5212  2.4558  0.2804
  178SOPE  H18T20309   7.129   0.671   8.638  1.6396 -0.9373 -1.9643
  178SOPE   C3320310   6.822   1.728   9.976  0.2574  0.3754  0.2713
  178SOPE   H3X20311   6.908   1.795   9.995  0.3877  0.3301 -0.1466
  178SOPE   H3Y20312   6.733   1.774  10.023  0.3195 -1.0692  1.8821
  178SOPE   C3420313   6.807   1.722   9.819  0.7085  0.6551 -0.0222
  178SOPE   H4X20314   6.874   1.639   9.785 -1.6808 -2.1056  1.7441
  178SOPE   H4Y20315   6.821   1.816   9.762 -0.4919 -0.1330 -1.6784
  178SOPE   C3520316   6.668   1.656   9.784  0.3974  0.1521  0.1756
  178SOPE   H5X20317   6.590   1.722   9.828  0.6200  1.5511 -1.4437
  178SOPE   H5Y20318   6.670   1.548   9.809  2.0244 -0.3119 -1.7698
  178SOPE   C3620319   6.639   1.666   9.634 -0.2180 -0.1568 -0.2933
  178SOPE   H6X20320   6.679   1.766   9.607  4.1369 -0.6944  3.5592
  178SOPE   H6Y20321   6.529   1.656   9.622 -0.1422 -3.0996  1.0485
  178SOPE   C3720322   6.726   1.566   9.551 -0.2520  0.0175  0.4629
  178SOPE   H7X20323   6.693   1.463   9.575  0.1229 -0.2093  0.0112
  178SOPE   H7Y20324   6.832   1.583   9.581 -0.5479 -0.1592  1.6552
  178SOPE   C3820325   6.717   1.595   9.407  0.3829  0.3213 -0.4213
  178SOPE   H8X20326   6.752   1.699   9.388 -1.4770  0.7770 -1.5233
  178SOPE   H8Y20327   6.607   1.607   9.399  0.3839  1.7887  1.4949
  178SOPE   C3920328   6.781   1.490   9.311  0.9389  0.1983 -0.4166
  178SOPE   H9X20329   6.738   1.391   9.336 -1.4385  1.1487 -0.6509
  178SOPE   H9Y20330   6.891   1.480   9.322  0.6420 -0.8668  2.0423
  178SOPE  C31020331   6.749   1.535   9.164  0.7065 -0.0950  0.0336
  178SOPE  H10X20332   6.786   1.639   9.150  0.5776 -0.0079  0.3318
  178SOPE  H10Y20333   6.638   1.533   9.155  0.4270  2.2162  2.4018
  178SOPE  C31120334   6.811   1.438   9.061  0.5028 -0.1151  0.0909
  178SOPE  H11X20335   6.920   1.460   9.063  0.0924  2.0883 -0.6779
  178SOPE  H11Y20336   6.763   1.471   8.967 -2.0978  0.2349  1.4957
  178SOPE  C31220337   6.762   1.299   9.075 -0.4931  0.2103 -0.6291
  178SOPE  H12X20338   6.657   1.279   9.047 -0.5378  0.9842 -1.0138
  178SOPE  H12Y20339   6.787   1.248   9.171  0.1555  0.4126 -0.6853
  178SOPE  C31320340   6.839   1.204   8.988  0.0357  0.5767  0.1898
  178SOPE  H13X20341   6.853   1.104   9.033 -0.0969  1.2701  1.8145
  178SOPE  H13Y20342   6.944   1.239   8.974 -0.2623  0.3515 -2.9021
  178SOPE  C31420343   6.776   1.187   8.849  0.2874  0.6296 -0.5668
  178SOPE  H14X20344   6.750   1.280   8.794  0.1091 -0.5126 -2.4550
  178SOPE  H14Y20345   6.674   1.143   8.858  1.3150 -1.3854  1.5498
  178SOPE  C31520346   6.846   1.084   8.757 -0.1606  0.3391 -0.0641
  178SOPE  H15X20347   6.780   1.041   8.678  0.3304  0.3530 -0.4856
  178SOPE  H15Y20348   6.862   0.994   8.820 -2.0008  1.2692  1.7862
  178SOPE  C31620349   6.974   1.143   8.699 -0.0481 -0.1504 -0.2987
  178SOPE  H16X20350   7.026   1.054   8.658 -0.5636 -1.0047  0.8926
  178SOPE  H16Y20351   7.039   1.181   8.781  1.6323  2.2302 -2.6332
  178SOPE  C31720352   6.954   1.250   8.597 -0.2866  0.2147  0.4849
  178SOPE  H17X20353   6.915   1.334   8.659  0.0474  0.8049 -0.0943
  178SOPE  H17Y20354   6.870   1.219   8.532 -0.3845  0.7272  0.3654
  178SOPE  C31820355   7.073   1.293   8.515  0.0516  0.2765 -0.0737
  178SOPE  H18X20356   7.158   1.301   8.587  1.8038  0.6934 -2.1243
  178SOPE  H18Y20357   7.071   1.390   8.460  0.6141 -0.6853 -1.8297
  178SOPE  H18Z20358   7.100   1.221   8.435 -0.3504  1.3256 -1.1794
  179SOPE     N20359   5.051   2.317   6.349  0.4667 -0.0295 -0.6208
  179SOPE   HN120360   5.086   2.222   6.371  1.9229  0.1946 -1.8396
  179SOPE   HN220361   5.009   2.353   6.437 -2.3359 -0.6961 -1.6464
  179SOPE   HN320362   4.973   2.305   6.282 -0.3227 -1.5586  0.5684
  179SOPE   C1220363   5.158   2.404   6.299 -0.0447  0.3121  0.2126
  179SOPE  H12A20364   5.125   2.457   6.207  0.7676  3.0501  1.4341
  179SOPE  H12B20365   5.236   2.342   6.250  0.7699  0.3061  1.4635
  179SOPE   C1120366   5.209   2.510   6.397  0.0569  0.3642 -0.2713
  179SOPE  H11A20367   5.299   2.559   6.356  2.0144 -2.8460 -0.0427
  179SOPE  H11B20368   5.253   2.452   6.482 -0.8879  0.3923  0.2419
  179SOPE     P20369   5.103   2.740   6.421  0.0051  0.1244  0.1730
  179SOPE   O1320370   4.961   2.773   6.396 -0.0853  0.3169 -0.2913
  179SOPE   O1420371   5.201   2.771   6.318 -0.3719  0.4220 -0.6195
  179SOPE   O1220372   5.106   2.595   6.452 -0.2649  0.0041  0.2913
  179SOPE   O1120373   5.142   2.801   6.566 -0.0135 -0.4750  0.2605
  179SOPE    C120374   5.197   2.711   6.665 -0.3929  0.7499 -0.4432
  179SOPE    HA20375   5.290   2.663   6.629 -1.4597 -1.9359  0.3116
  179SOPE    HB20376   5.121   2.633   6.683 -0.2490  0.7692  0.2833
  179SOPE    C220377   5.216   2.787   6.804  0.2044  0.3912  0.6668
  179SOPE    HS20378   5.308   2.849   6.798 -0.7897  1.9277  0.9124
  179SOPE   O2120379   5.218   2.683   6.897 -0.1323 -0.1275  0.4168
  179SOPE   C2120380   5.332   2.619   6.915  0.1128 -0.4844  0.6338
  179SOPE   O2220381   5.443   2.647   6.866  0.0147 -0.1578  0.2755
  179SOPE   C2220382   5.302   2.498   6.999 -0.0218 -0.2275  0.2180
  179SOPE   H2R20383   5.333   2.407   6.943 -1.9099 -1.0278  0.4466
  179SOPE   H2S20384   5.191   2.494   7.007  0.0569  0.2704  1.6962
  179SOPE    C320385   5.108   2.888   6.838  0.1725 -0.1064 -0.6148
  179SOPE    HX20386   5.006   2.848   6.851  0.0396  0.4913  0.1593
  179SOPE    HY20387   5.099   2.952   6.748  0.6024  1.0636  0.1598
  179SOPE   O3120388   5.139   2.950   6.969 -0.6885  0.2893  0.8014
  179SOPE   C3120389   5.223   3.045   6.981 -0.2626 -0.6059  0.7267
  179SOPE   O3220390   5.282   3.097   6.883 -0.1331  0.3757  0.0446
  179SOPE   C3220391   5.236   3.074   7.125  0.1591  0.0723 -0.2835
  179SOPE   H2X20392   5.141   3.123   7.157  0.3144  0.1738  0.0202
  179SOPE   H2Y20393   5.327   3.133   7.145 -0.2768  1.0568 -1.1600
  179SOPE   C2320394   5.375   2.511   7.142 -0.4537  0.5291  0.6294
  179SOPE   H3R20395   5.350   2.604   7.197  0.9634  0.8850  0.6755
  179SOPE   H3S20396   5.484   2.518   7.127 -0.8806  0.4017 -3.0080
  179SOPE   C2420397   5.334   2.389   7.231  0.0772 -0.1639  0.3008
  179SOPE   H4R20398   5.223   2.392   7.237 -0.1070  1.1098 -3.2225
  179SOPE   H4S20399   5.376   2.299   7.182  0.5157  0.4800 -0.5083
  179SOPE   C2520400   5.387   2.395   7.365 -0.2053 -0.1925 -0.3097
  179SOPE   H5R20401   5.494   2.366   7.370  0.1095  0.9821 -0.1775
  179SOPE   H5S20402   5.389   2.498   7.407 -1.6441 -1.2442  2.4633
  179SOPE   C2620403   5.321   2.299   7.472 -0.1252 -0.3096  0.1600
  179SOPE   H6R20404   5.219   2.338   7.490 -0.2286 -0.7524  0.5161
  179SOPE   H6S20405   5.333   2.197   7.431  1.7481 -0.9970  2.2715
  179SOPE   C2720406   5.402   2.295   7.603  0.2852  0.5263  0.2659
  179SOPE   H7R20407   5.474   2.212   7.589 -1.1374 -0.5420 -0.8855
  179SOPE   H7S20408   5.443   2.397   7.615 -3.1735  2.0441 -0.2502
  179SOPE   C2820409   5.324   2.265   7.735 -0.8482 -0.1363  0.1177
  179SOPE   H8R20410   5.240   2.338   7.744 -0.5326  0.2347  0.0443
  179SOPE   H8S20411   5.269   2.168   7.734  0.0853 -0.6782 -3.6867
  179SOPE   C2920412   5.412   2.282   7.859 -0.2574  0.1038 -0.0490
  179SOPE   H9120413   5.491   2.359   7.858  1.4835 -1.6056 -3.4212
  179SOPE  C21020414   5.403   2.198   7.967  0.6712 -0.6380  0.1264
  179SOPE  H10120415   5.478   2.212   8.046  0.0472  0.3386  0.5570
  179SOPE  C21120416   5.306   2.084   7.984  0.3958  1.2260 -1.0222
  179SOPE  H11R20417   5.269   2.030   7.894 -2.5000 -0.2422  0.9824
  179SOPE  H11S20418   5.220   2.125   8.042  0.7835 -0.0128  0.4650
  179SOPE  C21220419   5.374   1.967   8.060  0.9038  0.0143  0.2768
  179SOPE  H12R20420   5.395   1.991   8.166  0.4312 -0.2229  0.4244
  179SOPE  H12S20421   5.463   1.926   8.006  0.4022 -1.5266  0.6001
  179SOPE  C21320422   5.267   1.850   8.076  0.3685  1.4871  1.1265
  179SOPE  H13R20423   5.231   1.835   7.972  0.9241  0.0196  1.1358
  179SOPE  H13S20424   5.187   1.876   8.148  0.0177  2.9684  0.2483
  179SOPE  C21420425   5.338   1.713   8.115 -0.1740 -0.5924 -0.1136
  179SOPE  H14R20426   5.400   1.689   8.026 -0.1144  2.0918 -0.8546
  179SOPE  H14S20427   5.265   1.630   8.122 -1.2065  0.2515 -0.6542
  179SOPE  C21520428   5.431   1.715   8.234 -0.0626 -0.0075  0.4422
  179SOPE  H15R20429   5.385   1.757   8.326 -1.6344  0.1551 -0.4038
  179SOPE  H15S20430   5.521   1.769   8.198  0.0853 -0.7022 -0.2325
  179SOPE  C21620431   5.478   1.569   8.260 -0.6198  0.3234  0.2955
  179SOPE  H16R20432   5.527   1.545   8.163  0.7847 -3.5280  1.8501
  179SOPE  H16S20433   5.392   1.499   8.273  0.9018 -1.0235  3.6451
  179SOPE  C21720434   5.584   1.552   8.362  0.4577 -0.1578  0.0401
  179SOPE  H17R20435   5.564   1.614   8.452  0.6808  1.7999 -1.2481
  179SOPE  H17S20436   5.675   1.602   8.323  1.9600 -0.8596  2.4940
  179SOPE  C21820437   5.614   1.412   8.401  0.1350 -0.1605 -0.1733
  179SOPE  H18R20438   5.686   1.404   8.485  0.8146 -0.8061 -0.8046
  179SOPE  H18S20439   5.665   1.362   8.315  1.5094 -1.7499  1.5172
  179SOPE  H18T20440   5.516   1.363   8.418  0.0592  0.8847  2.5479
  179SOPE   C3320441   5.257   2.942   7.203  0.5510  0.3456  0.3652
  179SOPE   H3X20442   5.354   2.904   7.164  1.3343  1.8884  0.7657
  179SOPE   H3Y20443   5.171   2.874   7.183  0.6597  1.0462 -2.7558
  179SOPE   C3420444   5.275   2.967   7.354 -0.1368  0.4812  0.1642
  179SOPE   H4X20445   5.184   3.015   7.397  0.6525  2.2543 -0.1005
  179SOPE   H4Y20446   5.349   3.049   7.363  0.1002  0.5355 -2.0864
  179SOPE   C3520447   5.309   2.839   7.431 -0.2472  0.1959  0.1246
  179SOPE   H5X20448   5.410   2.811   7.393 -0.3417 -0.4377  0.3331
  179SOPE   H5Y20449   5.243   2.757   7.396 -1.1558  0.9167  0.1324
  179SOPE   C3620450   5.316   2.857   7.587 -0.2804 -0.0362  0.1661
  179SOPE   H6X20451   5.219   2.898   7.623 -1.0893 -1.1828 -0.6473
  179SOPE   H6Y20452   5.390   2.934   7.618 -0.6748  0.6183 -0.4926
  179SOPE   C3720453   5.335   2.721   7.663 -0.7104  0.8791 -0.4607
  179SOPE   H7X20454   5.424   2.677   7.613  1.0216  1.7633  1.7417
  179SOPE   H7Y20455   5.250   2.651   7.655  0.3525 -0.6372  0.8981
  179SOPE   C3820456   5.377   2.760   7.810  0.6411 -0.0150  0.0665
  179SOPE   H8X20457   5.473   2.816   7.818  0.4251  0.1750  1.5426
  179SOPE   H8Y20458   5.393   2.662   7.859 -0.6613 -0.9466 -1.3244
  179SOPE   C3920459   5.262   2.826   7.890 -0.0875  0.3866  0.0873
  179SOPE   H9X20460   5.164   2.791   7.852  1.2883 -2.4226 -1.0271
  179SOPE   H9Y20461   5.262   2.936   7.874  2.7315  0.3540 -0.3308
  179SOPE  C31020462   5.279   2.804   8.044  0.5040 -0.4140  0.1107
  179SOPE  H10X20463   5.305   2.698   8.066 -0.7332 -0.9213 -0.7961
  179SOPE  H10Y20464   5.184   2.821   8.100  1.3310 -0.6824  1.6055
  179SOPE  C31120465   5.384   2.892   8.100  0.4428  0.3064 -0.4513
  179SOPE  H11X20466   5.354   2.999   8.112  1.3787  0.6074 -0.7146
  179SOPE  H11Y20467   5.468   2.910   8.029 -1.3232  1.9889 -2.1628
  179SOPE  C31220468   5.440   2.857   8.246 -0.1455  0.1484 -0.4686
  179SOPE  H12X20469   5.478   2.753   8.236 -0.4691  0.0525 -0.6918
  179SOPE  H12Y20470   5.351   2.851   8.313  0.2363 -0.3548 -0.0032
  179SOPE  C31320471   5.554   2.942   8.296  0.6894 -0.1402  0.1339
  179SOPE  H13X20472   5.519   3.047   8.302  0.2238 -0.3975  2.3475
  179SOPE  H13Y20473   5.635   2.916   8.225 -0.2667 -0.1256 -0.9803
  179SOPE  C31420474   5.591   2.911   8.446  0.3838 -0.5132  0.2073
  179SOPE  H14X20475   5.620   2.804   8.453  1.0338 -0.5330 -2.3693
  179SOPE  H14Y20476   5.503   2.937   8.509  1.1326 -0.8584  1.3969
  179SOPE  C31520477   5.717   2.990   8.493  0.0404 -0.5763  0.4957
  179SOPE  H15X20478   5.715   3.092   8.451 -0.6136 -1.9731 -3.0797
  179SOPE  H15Y20479   5.806   2.941   8.449 -0.0177  0.1551 -0.4466
  179SOPE  C31620480   5.718   2.984   8.651 -0.6825 -0.0709  0.3143
  179SOPE  H16X20481   5.761   2.889   8.688 -1.1150 -0.4380 -0.1197
  179SOPE  H16Y20482   5.618   2.992   8.698  0.0130  0.4430  1.7481
  179SOPE  C31720483   5.812   3.088   8.708  0.1777 -0.0348 -0.7302
  179SOPE  H17X20484   5.769   3.191   8.698  2.2315  0.8086 -1.1459
  179SOPE  H17Y20485   5.900   3.085   8.640 -0.5064  0.2859 -1.6453
  179SOPE  C31820486   5.840   3.069   8.854 -0.0635 -0.6147 -0.6475
  179SOPE  H18X20487   5.870   3.165   8.902 -0.2558 -2.1615  2.7031
  179SOPE  H18Y20488   5.915   2.987   8.863 -1.9832 -2.1602  2.2134
  179SOPE  H18Z20489   5.747   3.032   8.904  1.2815 -1.8387  1.0156
  180SOPE     N20490   4.298   2.686   6.521  0.5219 -0.5677  0.0640
  180SOPE   HN120491   4.221   2.752   6.545  0.2737 -0.5062 -0.9203
  180SOPE   HN220492   4.315   2.655   6.619  0.5199 -1.7732 -0.3114
  180SOPE   HN320493   4.382   2.731   6.480 -1.0322  2.0448 -0.3354
  180SOPE   C1220494   4.259   2.566   6.444  0.0642  0.4511  0.6385
  180SOPE  H12A20495   4.171   2.520   6.495  0.9921 -0.5349  1.3950
  180SOPE  H12B20496   4.341   2.491   6.439 -1.2208 -0.9590  0.4507
  180SOPE   C1120497   4.222   2.604   6.301  0.0380  0.2420  0.0688
  180SOPE  H11A20498   4.186   2.515   6.246  0.7039  0.3705 -0.5796
  180SOPE  H11B20499   4.324   2.619   6.260  0.4631 -0.6108  0.8061
  180SOPE     P20500   3.982   2.714   6.315  0.2492 -0.3967 -0.2639
  180SOPE   O1320501   3.910   2.601   6.257  0.0890  0.4350  0.4557
  180SOPE   O1420502   3.925   2.849   6.278  0.8365 -0.1604  0.2236
  180SOPE   O1220503   4.132   2.717   6.271  0.0234  0.2470 -0.1895
  180SOPE   O1120504   3.996   2.710   6.474  0.0545 -0.4630 -0.0770
  180SOPE    C120505   3.900   2.775   6.553  0.1812 -0.0920 -0.5049
  180SOPE    HA20506   3.795   2.746   6.533  0.1213  0.4014 -0.9220
  180SOPE    HB20507   3.904   2.884   6.534 -0.3969 -0.0880 -0.6028
  180SOPE    C220508   3.928   2.746   6.705 -0.1423  0.5014 -0.3993
  180SOPE    HS20509   4.023   2.795   6.735 -1.1994  1.5205  1.3750
  180SOPE   O2120510   3.916   2.605   6.729 -0.2022  0.8354 -0.4657
  180SOPE   C2120511   4.029   2.550   6.740  0.5384  1.2073  0.4924
  180SOPE   O2220512   4.136   2.603   6.744 -1.1443  0.3094 -0.0093
  180SOPE   C2220513   4.009   2.399   6.752  0.8581  0.1244 -0.2669
  180SOPE   H2R20514   4.107   2.346   6.744  0.7353 -0.0994 -0.2900
  180SOPE   H2S20515   3.938   2.368   6.672  0.8134  0.3041 -0.2972
  180SOPE    C320516   3.815   2.820   6.787  0.6293  0.2850 -0.1217
  180SOPE    HX20517   3.727   2.768   6.746  0.7118 -0.2992  0.4308
  180SOPE    HY20518   3.821   2.927   6.757  0.8445  0.5175  0.7077
  180SOPE   O3120519   3.836   2.816   6.927  0.6159 -0.3419  0.0283
  180SOPE   C3120520   3.768   2.725   7.001  0.1851  0.3961 -0.0864
  180SOPE   O3220521   3.679   2.656   6.954  0.0391 -0.2735 -0.1292
  180SOPE   C3220522   3.817   2.716   7.147 -0.3773  0.3600 -0.1816
  180SOPE   H2X20523   3.913   2.770   7.163  0.2536 -0.6808 -0.4206
  180SOPE   H2Y20524   3.823   2.606   7.159  0.2765  0.4859  0.6700
  180SOPE   C2320525   3.961   2.355   6.896  0.7226  0.2570 -0.3969
  180SOPE   H3R20526   3.908   2.258   6.880 -0.8281  1.4420 -2.8979
  180SOPE   H3S20527   3.878   2.423   6.925  0.2650 -0.5430  0.1931
  180SOPE   C2420528   4.065   2.344   7.009 -0.2182  0.0873 -0.8758
  180SOPE   H4R20529   4.133   2.256   7.002 -0.6664 -0.4168  0.9814
  180SOPE   H4S20530   4.126   2.435   6.989 -0.8291  0.5689 -0.5732
  180SOPE   C2520531   4.025   2.364   7.152  0.6056  0.2762 -0.1081
  180SOPE   H5R20532   3.968   2.458   7.165  0.9975  0.7558 -1.7164
  180SOPE   H5S20533   3.960   2.283   7.189 -1.3989  2.4553  1.2933
  180SOPE   C2620534   4.150   2.380   7.243  0.1513  0.0012 -0.8611
  180SOPE   H6R20535   4.199   2.281   7.236 -0.0891 -0.1996  0.1881
  180SOPE   H6S20536   4.216   2.464   7.213 -2.3037  2.0347 -0.7747
  180SOPE   C2720537   4.108   2.419   7.387  0.6497 -0.0653 -0.0239
  180SOPE   H7R20538   4.073   2.524   7.387  0.0605 -0.2539 -1.0380
  180SOPE   H7S20539   4.028   2.348   7.417  1.0564 -0.4695  0.1122
  180SOPE   C2820540   4.222   2.395   7.487 -0.1731  0.0324  0.0869
  180SOPE   H8R20541   4.262   2.293   7.467 -0.2085  0.0293  0.0300
  180SOPE   H8S20542   4.298   2.473   7.470 -0.6452  0.3205 -0.7604
  180SOPE   C2920543   4.174   2.393   7.627 -0.0421 -0.3493 -0.7649
  180SOPE   H9120544   4.115   2.303   7.650  2.3397 -2.0061 -0.9223
  180SOPE  C21020545   4.189   2.490   7.720 -0.2144 -0.4644  0.3920
  180SOPE  H10120546   4.150   2.468   7.821 -0.5195  0.1547  0.4111
  180SOPE  C21120547   4.262   2.619   7.718 -0.3934  0.4323  0.1472
  180SOPE  H11R20548   4.283   2.659   7.616 -2.5435 -2.2018 -1.4155
  180SOPE  H11S20549   4.364   2.609   7.761  0.0364  0.2118 -0.8875
  180SOPE  C21220550   4.194   2.720   7.801  0.4605  0.5906  0.3344
  180SOPE  H12R20551   4.085   2.723   7.781  0.5564 -4.1229 -1.5818
  180SOPE  H12S20552   4.224   2.826   7.785  0.1642  0.6755  0.3563
  180SOPE  C21320553   4.204   2.705   7.955  0.3791  0.5606 -0.0836
  180SOPE  H13R20554   4.268   2.617   7.979 -0.5975  0.4771  2.3801
  180SOPE  H13S20555   4.101   2.685   7.994  1.2806 -0.7870  1.6770
  180SOPE  C21420556   4.278   2.821   8.025 -0.7813 -0.3254 -0.0557
  180SOPE  H14R20557   4.272   2.820   8.136  2.5141 -1.5498  0.1886
  180SOPE  H14S20558   4.225   2.914   7.999  0.0587  0.8733  2.3196
  180SOPE  C21520559   4.428   2.825   7.987  0.5211  0.2641  0.7487
  180SOPE  H15R20560   4.436   2.866   7.884 -1.3794  1.4886  1.0516
  180SOPE  H15S20561   4.463   2.720   7.997  0.8983  0.2199 -0.9132
  180SOPE  C21620562   4.510   2.891   8.096  0.4562 -0.2312 -0.0802
  180SOPE  H16R20563   4.617   2.896   8.068  0.8068  0.8290  1.4217
  180SOPE  H16S20564   4.501   2.842   8.195 -3.4355  0.8666  0.1721
  180SOPE  C21720565   4.475   3.040   8.109 -0.2515 -0.1334 -1.0824
  180SOPE  H17R20566   4.368   3.041   8.138 -0.0903 -3.8139 -0.1157
  180SOPE  H17S20567   4.480   3.080   8.005  0.5269 -1.4760 -1.5676
  180SOPE  C21820568   4.561   3.114   8.212 -1.1126 -0.5425 -1.4069
  180SOPE  H18R20569   4.570   3.053   8.304 -1.2781 -1.0070 -1.6967
  180SOPE  H18S20570   4.542   3.220   8.239 -2.9040 -1.6651  2.0238
  180SOPE  H18T20571   4.666   3.111   8.176 -0.1575  0.5639  1.1810
  180SOPE   C3320572   3.718   2.778   7.250 -0.2285  0.3127 -0.8018
  180SOPE   H3X20573   3.620   2.727   7.236 -0.1000 -0.4917  1.1379
  180SOPE   H3Y20574   3.708   2.889   7.243  0.1499  0.3598 -0.5667
  180SOPE   C3420575   3.759   2.745   7.397  0.6795 -0.4024 -0.2901
  180SOPE   H4X20576   3.680   2.789   7.460  0.1112 -1.6289 -0.1292
  180SOPE   H4Y20577   3.860   2.788   7.417  0.6100 -0.2440 -0.2799
  180SOPE   C3520578   3.773   2.601   7.420 -0.5036 -0.0951 -0.6863
  180SOPE   H5X20579   3.856   2.564   7.356 -0.3166 -0.0675 -0.4585
  180SOPE   H5Y20580   3.675   2.557   7.391 -0.7905  0.0668  0.0488
  180SOPE   C3620581   3.813   2.576   7.568  0.4768 -0.4259  0.0266
  180SOPE   H6X20582   3.915   2.618   7.584  0.3064  0.8527 -2.0659
  180SOPE   H6Y20583   3.820   2.469   7.596  2.7432 -0.3429 -0.1464
  180SOPE   C3720584   3.727   2.653   7.674  0.0333 -0.2083  0.5192
  180SOPE   H7X20585   3.618   2.638   7.659  0.1242  0.5898 -1.0021
  180SOPE   H7Y20586   3.752   2.760   7.663  0.5914 -0.4034 -0.2355
  180SOPE   C3820587   3.765   2.611   7.826 -0.3967 -0.2657  0.4486
  180SOPE   H8X20588   3.874   2.612   7.845  0.2094 -1.6425 -2.6528
  180SOPE   H8Y20589   3.716   2.512   7.838 -0.0686 -0.5946 -0.8567
  180SOPE   C3920590   3.694   2.707   7.928 -0.9424 -0.7225  0.7079
  180SOPE   H9X20591   3.585   2.716   7.907 -0.8354 -0.8057  0.1089
  180SOPE   H9Y20592   3.732   2.808   7.900 -2.1820 -0.7380 -1.1756
  180SOPE  C31020593   3.704   2.674   8.078  0.0498 -0.5126  0.0961
  180SOPE  H10X20594   3.734   2.570   8.100  0.2863 -0.6264 -0.7230
  180SOPE  H10Y20595   3.607   2.686   8.130 -0.1315 -2.6915  0.3102
  180SOPE  C31120596   3.808   2.761   8.148 -0.2536  0.2392  0.1766
  180SOPE  H11X20597   3.774   2.864   8.124 -1.7525 -0.1251  0.7215
  180SOPE  H11Y20598   3.903   2.751   8.090 -0.9765  0.4148 -1.0564
  180SOPE  C31220599   3.836   2.733   8.297  0.3360 -0.3337  0.4025
  180SOPE  H12X20600   3.848   2.625   8.317 -0.1658 -0.3450  0.6649
  180SOPE  H12Y20601   3.747   2.765   8.357 -0.6894 -0.5574 -0.9866
  180SOPE  C31320602   3.970   2.795   8.339 -0.0424 -0.7495  0.4336
  180SOPE  H13X20603   4.059   2.766   8.280  0.7626  2.4414 -0.0101
  180SOPE  H13Y20604   3.997   2.765   8.443  0.8866 -0.8570  0.1596
  180SOPE  C31420605   3.974   2.950   8.337 -0.1714 -0.0182  0.3219
  180SOPE  H14X20606   3.921   2.982   8.429  0.8863  1.1325  0.5485
  180SOPE  H14Y20607   3.913   2.995   8.255  1.9498 -0.4508 -1.5358
  180SOPE  C31520608   4.114   3.000   8.341 -0.0029 -0.0012  0.2057
  180SOPE  H15X20609   4.126   3.058   8.247  0.9628  0.9150  0.8872
  180SOPE  H15Y20610   4.198   2.929   8.326 -0.5530 -0.8236  0.9254
  180SOPE  C31620611   4.153   3.080   8.471  0.4416 -0.6978 -0.3543
  180SOPE  H16X20612   4.158   3.006   8.554  3.0393  0.9506  1.0118
  180SOPE  H16Y20613   4.075   3.157   8.488  0.7421 -0.5878  0.5563
  180SOPE  C31720614   4.278   3.166   8.463 -0.6270  0.0390  0.3542
  180SOPE  H17X20615   4.276   3.219   8.366  0.8112  2.5564  1.6433
  180SOPE  H17Y20616   4.367   3.098   8.462 -0.3308  0.3806  2.1784
  180SOPE  C31820617   4.298   3.264   8.580  0.0519  0.0320 -0.2894
  180SOPE  H18X20618   4.300   3.208   8.677  0.0434 -0.6072 -0.6536
  180SOPE  H18Y20619   4.208   3.329   8.586 -1.0925 -1.6437  1.6831
  180SOPE  H18Z20620   4.387   3.326   8.557  0.2303  0.6766  1.9727
  181SOPE     N20621   3.015   0.930   5.779  0.5997 -0.5041 -0.2392
  181SOPE   HN120622   3.003   0.827   5.776 -0.0044 -0.4261 -0.9124
  181SOPE   HN220623   3.034   0.967   5.683  2.3109 -1.4567 -0.2768
  181SOPE   HN320624   3.099   0.944   5.837 -0.4082 -1.5826  1.5265
  181SOPE   C1220625   2.903   1.011   5.836 -1.1243  0.3741  0.4815
  181SOPE  H12A20626   2.810   0.982   5.783 -2.3311  0.8305  2.3058
  181SOPE  H12B20627   2.925   1.115   5.804 -1.3490  0.2566 -0.0714
  181SOPE   C1120628   2.871   1.002   5.988 -0.6939  0.1275 -0.2146
  181SOPE  H11A20629   2.786   1.071   6.005  0.1498  1.1578 -0.1228
  181SOPE  H11B20630   2.956   1.039   6.050  0.1889 -0.3447 -1.1283
  181SOPE     P20631   2.917   0.755   6.063 -0.0384 -0.2153  0.2540
  181SOPE   O1320632   2.958   0.692   5.937 -0.5056 -0.0685  0.4431
  181SOPE   O1420633   2.857   0.655   6.159  0.3241 -0.1820 -0.2737
  181SOPE   O1220634   2.821   0.872   6.023 -0.9147  0.4633 -0.3419
  181SOPE   O1120635   3.042   0.824   6.128 -0.4277 -0.0660  0.7509
  181SOPE    C120636   3.078   0.815   6.257 -0.2207  0.0136  0.5636
  181SOPE    HA20637   2.983   0.818   6.315  0.9155  0.2215  2.4732
  181SOPE    HB20638   3.139   0.906   6.276  0.4182 -0.4754  0.8762
  181SOPE    C220639   3.167   0.694   6.293 -0.0865  0.9728  0.4511
  181SOPE    HS20640   3.104   0.610   6.330  1.2020  0.7724  2.2409
  181SOPE   O2120641   3.265   0.722   6.393 -0.5635 -0.4678  0.3118
  181SOPE   C2120642   3.220   0.717   6.512 -1.0190  0.0644  0.9479
  181SOPE   O2220643   3.106   0.703   6.551  0.3850  0.2370 -0.1456
  181SOPE   C2220644   3.345   0.728   6.607 -0.5810  0.0827  0.1009
  181SOPE   H2R20645   3.393   0.828   6.602 -0.7304  0.2264  1.3984
  181SOPE   H2S20646   3.421   0.653   6.575  0.0568  0.4422  0.7637
  181SOPE    C320647   3.257   0.643   6.168  0.4771 -0.3592 -0.3232
  181SOPE    HX20648   3.300   0.735   6.122 -2.8615 -0.2242 -3.4236
  181SOPE    HY20649   3.196   0.601   6.084 -1.2779  1.6736 -0.1048
  181SOPE   O3120650   3.367   0.555   6.205 -0.5152 -0.6018 -0.2185
  181SOPE   C3120651   3.329   0.432   6.247  1.0052 -0.7343  0.6719
  181SOPE   O3220652   3.212   0.396   6.256 -0.1091  0.0430  0.1313
  181SOPE   C3220653   3.453   0.351   6.274 -0.1207 -0.2304  0.5087
  181SOPE   H2X20654   3.536   0.376   6.205  0.5304  0.2284  1.4505
  181SOPE   H2Y20655   3.441   0.243   6.254  0.3043 -0.2195  0.1973
  181SOPE   C2320656   3.321   0.699   6.760  0.0461  0.2198 -0.3349
  181SOPE   H3R20657   3.267   0.606   6.790  0.4265  0.2971  0.5969
  181SOPE   H3S20658   3.242   0.767   6.796 -1.7865  0.1332 -3.9707
  181SOPE   C2420659   3.449   0.703   6.844 -0.6347  0.1054 -0.1789
  181SOPE   H4R20660   3.517   0.789   6.824  0.0245 -0.4173 -0.2266
  181SOPE   H4S20661   3.411   0.714   6.948  2.1761 -0.0287  0.9327
  181SOPE   C2520662   3.535   0.579   6.852  0.3137  0.2415 -1.0502
  181SOPE   H5R20663   3.481   0.482   6.846  1.8036 -0.7073  0.3238
  181SOPE   H5S20664   3.603   0.592   6.765  1.7403  0.4575  0.0799
  181SOPE   C2620665   3.629   0.586   6.976  0.2412  1.1332 -0.3251
  181SOPE   H6R20666   3.722   0.545   6.934  2.2684  4.3952  0.7455
  181SOPE   H6S20667   3.646   0.693   7.003  1.3080  0.6892  0.8116
  181SOPE   C2720668   3.577   0.509   7.096  0.7521  0.0634 -0.0086
  181SOPE   H7R20669   3.468   0.523   7.114  0.8790 -0.5672  1.3515
  181SOPE   H7S20670   3.586   0.403   7.067  2.1984  0.2631 -0.3156
  181SOPE   C2820671   3.659   0.528   7.227  0.1447  0.0673  0.8581
  181SOPE   H8R20672   3.759   0.488   7.203  0.9364  2.2923  0.2854
  181SOPE   H8S20673   3.665   0.637   7.248  1.7009  0.1840 -0.1556
  181SOPE   C2920674   3.600   0.431   7.328 -0.1378  0.0472 -0.2995
  181SOPE   H9120675   3.533   0.350   7.297  1.6754 -2.0240  1.0943
  181SOPE  C21020676   3.638   0.415   7.458 -0.8960  0.0285  0.4824
  181SOPE  H10120677   3.594   0.340   7.525  0.8030 -1.2747  0.1458
  181SOPE  C21120678   3.745   0.497   7.527  0.6746  0.3359  0.0026
  181SOPE  H11R20679   3.781   0.579   7.461  1.7168 -0.8045 -0.8799
  181SOPE  H11S20680   3.835   0.433   7.536 -0.4097 -1.1794  0.3081
  181SOPE  C21220681   3.702   0.567   7.660 -0.7463  0.0276  0.4442
  181SOPE  H12R20682   3.626   0.643   7.632 -0.3709  1.1735  2.4299
  181SOPE  H12S20683   3.788   0.626   7.697 -0.5618  0.7065 -1.0227
  181SOPE  C21320684   3.638   0.474   7.763 -0.9252  0.6892 -0.8636
  181SOPE  H13R20685   3.678   0.371   7.748  1.3329  1.6340 -1.3737
  181SOPE  H13S20686   3.528   0.463   7.751 -0.9297  2.3622 -2.5727
  181SOPE  C21420687   3.687   0.507   7.901 -0.5213  0.7543 -0.7041
  181SOPE  H14R20688   3.658   0.613   7.911  1.0041  0.9492  2.2421
  181SOPE  H14S20689   3.798   0.514   7.896 -0.3919  0.0999  0.8633
  181SOPE  C21520690   3.654   0.400   8.008 -0.2911  0.4992  0.6506
  181SOPE  H15R20691   3.699   0.304   7.974  1.8138  1.0954  1.6531
  181SOPE  H15S20692   3.546   0.379   8.023 -0.7191  0.4317 -2.2550
  181SOPE  C21620693   3.712   0.433   8.144  0.0896 -0.4290  0.2052
  181SOPE  H16R20694   3.649   0.504   8.202  0.4189  0.3599 -0.3931
  181SOPE  H16S20695   3.816   0.469   8.134  0.4292 -1.8054 -1.4607
  181SOPE  C21720696   3.710   0.304   8.238 -0.2577  0.3604 -0.1727
  181SOPE  H17R20697   3.794   0.233   8.222 -0.6653 -0.4345  1.1219
  181SOPE  H17S20698   3.616   0.246   8.221  0.7662 -1.7168  1.0376
  181SOPE  C21820699   3.709   0.353   8.383  0.2381 -0.0654 -0.1931
  181SOPE  H18R20700   3.722   0.272   8.458  1.1929 -0.5065 -0.8268
  181SOPE  H18S20701   3.616   0.413   8.399 -0.5109 -1.4724  0.8941
  181SOPE  H18T20702   3.795   0.420   8.402  1.1800 -0.9174 -1.3336
  181SOPE   C3320703   3.496   0.366   6.420 -0.3169  0.7441 -0.4251
  181SOPE   H3X20704   3.409   0.359   6.488  1.0612  2.1966  1.5511
  181SOPE   H3Y20705   3.531   0.467   6.448 -0.5487  0.3477  1.3770
  181SOPE   C3420706   3.602   0.260   6.471  0.8746  0.0596  0.0890
  181SOPE   H4X20707   3.688   0.275   6.402  0.5904  0.4437 -0.1834
  181SOPE   H4Y20708   3.546   0.166   6.455  1.4785  0.2032 -3.2526
  181SOPE   C3520709   3.622   0.299   6.616 -0.2961 -0.3637 -0.2850
  181SOPE   H5X20710   3.528   0.347   6.653 -0.3666 -1.4384  0.9711
  181SOPE   H5Y20711   3.700   0.377   6.627  0.9551 -1.4078 -1.5782
  181SOPE   C3620712   3.656   0.176   6.700 -0.6212  0.0753  0.7209
  181SOPE   H6X20713   3.760   0.155   6.668 -0.3912  1.0187  0.8443
  181SOPE   H6Y20714   3.582   0.100   6.668  0.8149 -0.9335 -0.2530
  181SOPE   C3720715   3.653   0.197   6.847  0.5466 -0.2443 -0.5872
  181SOPE   H7X20716   3.547   0.220   6.872  1.2150  0.7143  1.4737
  181SOPE   H7Y20717   3.712   0.288   6.871  0.1972 -0.8135  2.7115
  181SOPE   C3820718   3.696   0.072   6.922  0.5036  0.2702 -0.7916
  181SOPE   H8X20719   3.806   0.062   6.909  0.4082 -0.9544 -0.7097
  181SOPE   H8Y20720   3.640  -0.016   6.883 -1.8268  1.0171  0.7145
  181SOPE   C3920721   3.679   0.094   7.072  0.0543  0.5845 -0.0594
  181SOPE   H9X20722   3.572   0.068   7.085  0.3348 -0.3999  0.3395
  181SOPE   H9Y20723   3.704   0.198   7.103  0.1782  0.1498  1.3111
  181SOPE  C31020724   3.773  -0.006   7.154 -0.4059 -0.6996  0.4025
  181SOPE  H10X20725   3.881  -0.000   7.133 -0.3988 -1.2366  0.2754
  181SOPE  H10Y20726   3.741  -0.110   7.128 -2.8215  0.0228  0.3251
  181SOPE  C31120727   3.735   0.010   7.303 -0.1560 -0.5603 -0.4975
  181SOPE  H11X20728   3.628   0.026   7.326  0.1788  0.9111  0.1015
  181SOPE  H11Y20729   3.790   0.103   7.331  0.0829 -0.8648  0.0661
  181SOPE  C31220730   3.792  -0.112   7.392  0.0462  1.0548 -0.1616
  181SOPE  H12X20731   3.894  -0.125   7.348 -1.2429  0.6477 -3.1774
  181SOPE  H12Y20732   3.728  -0.201   7.377  0.4836  0.3256  2.1987
  181SOPE  C31320733   3.805  -0.097   7.543  0.1408  0.4060  0.0027
  181SOPE  H13X20734   3.882  -0.018   7.556  1.9575 -1.0686 -1.3501
  181SOPE  H13Y20735   3.839  -0.191   7.592 -0.3607  0.6474  0.8256
  181SOPE  C31420736   3.685  -0.050   7.618 -1.0535 -0.0912 -0.2281
  181SOPE  H14X20737   3.592  -0.106   7.595 -1.4509  0.3920  0.1850
  181SOPE  H14Y20738   3.665   0.055   7.588 -2.3726 -0.5549 -0.9834
  181SOPE  C31520739   3.707  -0.054   7.774 -0.0288  0.1234 -0.0625
  181SOPE  H15X20740   3.812  -0.024   7.793  0.3029 -0.7974 -0.4250
  181SOPE  H15Y20741   3.696  -0.156   7.817 -0.5605  0.4394  0.5731
  181SOPE  C31620742   3.613   0.046   7.838  0.0766 -0.1799  0.3260
  181SOPE  H16X20743   3.648   0.145   7.802  0.5581  0.4324  2.3964
  181SOPE  H16Y20744   3.623   0.051   7.949 -3.3364  1.4220  0.5991
  181SOPE  C31720745   3.467   0.030   7.794  0.4334  0.3133  0.1325
  181SOPE  H17X20746   3.432  -0.073   7.819 -1.1521  0.9911  0.8153
  181SOPE  H17Y20747   3.461   0.027   7.684 -3.2198 -2.9542  0.3132
  181SOPE  C31820748   3.371   0.132   7.851 -1.0485  0.4253 -0.0970
  181SOPE  H18X20749   3.356   0.126   7.961 -1.1852  0.8865 -0.0883
  181SOPE  H18Y20750   3.277   0.142   7.793 -1.6341  1.3966  0.9877
  181SOPE  H18Z20751   3.427   0.228   7.839  0.1410 -0.5828 -3.1262
  182SOPE     N20752   4.451   2.365   5.773 -0.0324  0.1397 -0.1116
  182SOPE   HN120753   4.464   2.335   5.674 -0.1542  3.0224 -1.0635
  182SOPE   HN220754   4.468   2.467   5.782  0.5403  0.1864 -1.5137
  182SOPE   HN320755   4.526   2.319   5.829  0.3530  0.2068 -0.5670
  182SOPE   C1220756   4.317   2.332   5.832  0.5681  0.0210 -0.5369
  182SOPE  H12A20757   4.306   2.221   5.828 -1.2900  0.1483  0.5893
  182SOPE  H12B20758   4.236   2.389   5.784  1.4793  2.1808  0.4294
  182SOPE   C1120759   4.321   2.385   5.983  0.1406 -0.0442  0.4736
  182SOPE  H11A20760   4.217   2.410   6.011 -0.1951 -2.7616  1.7746
  182SOPE  H11B20761   4.381   2.477   6.002 -0.7008  0.6546 -0.2252
  182SOPE     P20762   4.509   2.249   6.097 -0.0392  0.1523 -0.5185
  182SOPE   O1320763   4.550   2.337   6.205  0.3235 -0.1069 -0.1576
  182SOPE   O1420764   4.596   2.260   5.976 -0.2715  0.6768 -0.2580
  182SOPE   O1220765   4.359   2.278   6.066 -0.0775  0.9365  0.5198
  182SOPE   O1120766   4.513   2.103   6.153  0.7693  0.5282 -0.2872
  182SOPE    C120767   4.398   2.018   6.170 -0.2186 -0.0683  0.4408
  182SOPE    HA20768   4.425   1.911   6.169  1.1070  0.2465 -3.7283
  182SOPE    HB20769   4.327   2.031   6.086 -0.2577 -1.2305  0.2963
  182SOPE    C220770   4.324   2.050   6.302  0.4939 -0.4749  1.2017
  182SOPE    HS20771   4.269   2.144   6.279  1.6455 -0.0472  0.0839
  182SOPE   O2120772   4.414   2.061   6.416  0.2987 -0.6053 -0.3613
  182SOPE   C2120773   4.384   2.159   6.502 -0.0464  1.0975 -0.2111
  182SOPE   O2220774   4.292   2.237   6.495 -0.1163  0.5312 -0.0333
  182SOPE   C2220775   4.486   2.153   6.619 -0.4840  0.2493  0.0407
  182SOPE   H2R20776   4.556   2.239   6.606 -4.9224  3.7404 -1.9120
  182SOPE   H2S20777   4.548   2.061   6.614 -1.7493 -0.5830 -0.3676
  182SOPE    C320778   4.212   1.944   6.333  0.2036 -0.2441 -0.0670
  182SOPE    HX20779   4.265   1.853   6.367 -2.1943 -1.5308  0.3475
  182SOPE    HY20780   4.165   1.911   6.238 -1.4080 -0.8613  0.9195
  182SOPE   O3120781   4.122   1.984   6.433 -0.3686  0.0893  0.4425
  182SOPE   C3120782   3.991   1.981   6.405 -0.0045  0.4544  0.8325
  182SOPE   O3220783   3.936   1.947   6.294  0.0378  0.0585 -0.3621
  182SOPE   C3220784   3.924   2.045   6.529 -0.4270  0.0743 -0.0579
  182SOPE   H2X20785   3.826   2.081   6.490  0.9306  2.0558 -1.7256
  182SOPE   H2Y20786   3.970   2.140   6.562 -0.3560 -0.4235  1.3064
  182SOPE   C2320787   4.426   2.143   6.760  0.3888 -0.8769 -0.2924
  182SOPE   H3R20788   4.401   2.037   6.782  3.9817 -1.9748 -1.1335
  182SOPE   H3S20789   4.338   2.208   6.778  1.2887  0.1959  0.2146
  182SOPE   C2420790   4.524   2.198   6.862  0.0924 -0.7428  0.1541
  182SOPE   H4R20791   4.621   2.145   6.856  0.4602 -0.1959  1.2334
  182SOPE   H4S20792   4.538   2.308   6.854  0.3933 -0.7252  0.9089
  182SOPE   C2520793   4.462   2.182   7.004 -0.1378 -0.2902  0.5496
  182SOPE   H5R20794   4.363   2.232   7.013 -0.6700 -0.8630 -1.9406
  182SOPE   H5S20795   4.436   2.074   7.010  0.1618 -0.4044 -0.2648
  182SOPE   C2620796   4.551   2.216   7.130 -0.1399 -0.7061  0.6668
  182SOPE   H6R20797   4.657   2.190   7.112 -0.0460 -0.5435  0.9866
  182SOPE   H6S20798   4.541   2.326   7.143  0.1277 -0.5683 -0.2433
  182SOPE   C2720799   4.494   2.153   7.265 -0.5795 -0.7034 -0.3577
  182SOPE   H7R20800   4.385   2.172   7.272 -0.5398 -0.6184  0.0382
  182SOPE   H7S20801   4.507   2.045   7.240  0.7387 -0.1326 -2.2313
  182SOPE   C2820802   4.578   2.204   7.385  0.5450  0.2110 -0.1223
  182SOPE   H8R20803   4.680   2.224   7.346 -1.3263  1.9185 -4.5383
  182SOPE   H8S20804   4.542   2.303   7.422  1.3050  0.2870  0.4200
  182SOPE   C2920805   4.592   2.110   7.511  0.2083  0.4458  0.1694
  182SOPE   H9120806   4.589   2.003   7.486  2.6287  0.7328 -1.5542
  182SOPE  C21020807   4.620   2.142   7.635 -0.6231 -0.6437  0.1755
  182SOPE  H10120808   4.630   2.063   7.711  0.4556 -0.3873  0.2957
  182SOPE  C21120809   4.640   2.281   7.680  0.2602  0.0286 -0.1004
  182SOPE  H11R20810   4.637   2.355   7.597 -0.9480  1.3078  1.0575
  182SOPE  H11S20811   4.739   2.299   7.727  1.7042 -4.3507 -1.2634
  182SOPE  C21220812   4.537   2.323   7.787 -0.7287 -0.2385  0.2935
  182SOPE  H12R20813   4.438   2.281   7.760  0.0368 -1.4347 -0.6901
  182SOPE  H12S20814   4.532   2.434   7.785  0.4121 -0.1781  0.6449
  182SOPE  C21320815   4.584   2.285   7.928 -0.2019  0.0380  0.1452
  182SOPE  H13R20816   4.675   2.347   7.941 -0.0083 -0.2011 -0.0624
  182SOPE  H13S20817   4.612   2.177   7.935 -0.3593  0.0240  0.6135
  182SOPE  C21420818   4.485   2.316   8.045  0.1382 -0.4760 -0.1692
  182SOPE  H14R20819   4.401   2.243   8.044 -1.7834  1.6883 -1.4602
  182SOPE  H14S20820   4.447   2.419   8.027 -0.6440 -0.8463 -0.6612
  182SOPE  C21520821   4.558   2.319   8.176  0.4742  0.1110  0.0279
  182SOPE  H15R20822   4.656   2.372   8.172  1.3441 -1.4792 -0.0005
  182SOPE  H15S20823   4.591   2.215   8.198  1.2565  0.8122  2.2672
  182SOPE  C21620824   4.472   2.367   8.289  0.2169 -0.3472 -0.1857
  182SOPE  H16R20825   4.532   2.366   8.383  2.2694 -0.7663 -1.4865
  182SOPE  H16S20826   4.388   2.295   8.294  2.4173 -3.0705 -1.5628
  182SOPE  C21720827   4.418   2.510   8.270 -0.4912 -0.2697  0.4332
  182SOPE  H17R20828   4.347   2.528   8.187  1.1752 -0.3546 -1.0233
  182SOPE  H17S20829   4.509   2.567   8.241  0.0341  0.0755  2.6438
  182SOPE  C21820830   4.352   2.567   8.393  0.5512 -0.7678  0.2969
  182SOPE  H18R20831   4.267   2.500   8.417  0.4674 -0.5462  0.6233
  182SOPE  H18S20832   4.327   2.674   8.377  1.4087 -0.8000 -1.3701
  182SOPE  H18T20833   4.424   2.552   8.477 -0.8125  1.3692  1.8963
  182SOPE   C3320834   3.892   1.947   6.641 -0.0100  0.2045  0.6069
  182SOPE   H3X20835   3.878   1.844   6.603  5.1054 -0.9258  1.5557
  182SOPE   H3Y20836   3.798   1.986   6.688 -1.2405  0.8796 -2.2856
  182SOPE   C3420837   4.000   1.950   6.752  0.3024  0.2506 -0.0251
  182SOPE   H4X20838   4.032   2.053   6.779 -0.7144  0.5857 -0.0867
  182SOPE   H4Y20839   4.100   1.913   6.720  1.0936  1.8456  0.5619
  182SOPE   C3520840   3.970   1.884   6.885 -0.0368  0.1242  0.3581
  182SOPE   H5X20841   3.990   1.775   6.878 -0.5482  0.1912 -3.0375
  182SOPE   H5Y20842   3.865   1.890   6.919 -0.6600  1.6277 -1.6916
  182SOPE   C3620843   4.063   1.933   6.995  0.9720  0.0031 -0.8785
  182SOPE   H6X20844   4.044   2.042   7.006  2.0089  0.2220 -1.2035
  182SOPE   H6Y20845   4.166   1.922   6.955  0.3015 -0.3597 -2.5667
  182SOPE   C3720846   4.043   1.869   7.139 -0.4746  0.2828  1.3235
  182SOPE   H7X20847   4.062   1.761   7.124  1.7446  0.6135  1.6140
  182SOPE   H7Y20848   3.941   1.903   7.169 -2.2608 -3.1882 -0.4585
  182SOPE   C3820849   4.136   1.930   7.241  0.6467 -0.4570  0.1202
  182SOPE   H8X20850   4.122   2.040   7.252 -1.0887 -0.7532  1.1223
  182SOPE   H8Y20851   4.236   1.905   7.201  1.3710  1.1925  0.8302
  182SOPE   C3920852   4.109   1.878   7.383 -0.3694 -0.6148 -0.3001
  182SOPE   H9X20853   4.121   1.769   7.372  1.6679 -0.4461  0.0114
  182SOPE   H9Y20854   4.010   1.907   7.423 -1.0980 -0.2004 -2.3675
  182SOPE  C31020855   4.220   1.925   7.473 -0.2996  0.3801  0.7370
  182SOPE  H10X20856   4.194   2.032   7.491  1.0307  0.4015  2.6935
  182SOPE  H10Y20857   4.322   1.929   7.430 -0.7693  1.1288 -0.3588
  182SOPE  C31120858   4.221   1.854   7.603 -0.3319  0.4602  0.5243
  182SOPE  H11X20859   4.221   1.744   7.589  1.1888  0.5224 -0.0265
  182SOPE  H11Y20860   4.131   1.888   7.660 -0.6213 -0.5393  0.6679
  182SOPE  C31220861   4.341   1.889   7.688 -0.0570  0.3738 -0.4132
  182SOPE  H12X20862   4.357   1.999   7.697 -2.1681  0.7914 -1.5996
  182SOPE  H12Y20863   4.439   1.852   7.652  0.5649  0.8593  0.7263
  182SOPE  C31320864   4.325   1.860   7.838  1.1596  0.3604 -0.7470
  182SOPE  H13X20865   4.308   1.751   7.849 -0.2807  0.4625 -1.7072
  182SOPE  H13Y20866   4.230   1.906   7.872  1.2971  0.5695 -0.6438
  182SOPE  C31420867   4.446   1.915   7.914  0.5090  0.7388 -0.1960
  182SOPE  H14X20868   4.452   2.024   7.892 -0.5102  0.6182 -1.1624
  182SOPE  H14Y20869   4.534   1.861   7.874 -0.2066 -1.0238  0.5476
  182SOPE  C31520870   4.448   1.879   8.059  0.6602 -0.5874 -0.1856
  182SOPE  H15X20871   4.538   1.928   8.102 -1.5432  3.3964  0.1654
  182SOPE  H15Y20872   4.463   1.770   8.071 -0.0299 -0.5451  1.0747
  182SOPE  C31620873   4.322   1.928   8.134 -0.5508  0.4164  1.1110
  182SOPE  H16X20874   4.223   1.888   8.103 -0.7610  1.8766 -0.1827
  182SOPE  H16Y20875   4.320   2.037   8.115 -0.8344 -0.0253 -1.6673
  182SOPE  C31720876   4.338   1.897   8.278 -0.1285  0.5902  0.0280
  182SOPE  H17X20877   4.431   1.948   8.311  0.7029 -0.2059 -1.0409
  182SOPE  H17Y20878   4.338   1.793   8.315  0.0325  1.0592  1.3763
  182SOPE  C31820879   4.230   1.978   8.354 -0.1066  0.1341  0.4961
  182SOPE  H18X20880   4.215   1.940   8.458 -1.6193  0.2586  0.3341
  182SOPE  H18Y20881   4.139   1.992   8.292 -0.8050  0.8442  1.6682
  182SOPE  H18Z20882   4.268   2.082   8.366 -1.0793  0.2898  2.5277
  183SOPE     N20883   6.321   6.294   6.402 -0.1052  0.1446  0.1050
  183SOPE   HN120884   6.288   6.206   6.448 -1.0687  0.1198 -0.6010
  183SOPE   HN220885   6.424   6.287   6.408 -0.3895 -3.0877  2.1249
  183SOPE   HN320886   6.287   6.375   6.457  2.4786  0.9052  0.6041
  183SOPE   C1220887   6.313   6.298   6.248  0.2548 -0.9077  0.0098
  183SOPE  H12A20888   6.221   6.352   6.219 -0.3140 -0.1494  3.0058
  183SOPE  H12B20889   6.319   6.194   6.210  1.0392 -0.2988 -1.5680
  183SOPE   C1120890   6.446   6.373   6.207  0.3540 -0.0383 -0.2138
  183SOPE  H11A20891   6.435   6.479   6.235  0.0300 -0.3541  0.8878
  183SOPE  H11B20892   6.455   6.356   6.098  1.3779 -1.8458  0.1185
  183SOPE     P20893   6.696   6.383   6.241  0.1720 -0.0657 -0.5279
  183SOPE   O1320894   6.669   6.511   6.178  0.2949 -1.2921 -0.5348
  183SOPE   O1420895   6.792   6.288   6.174 -0.5917 -0.9696 -0.0010
  183SOPE   O1220896   6.562   6.315   6.272 -0.2447  0.4204  0.0872
  183SOPE   O1120897   6.740   6.415   6.388 -0.0258 -0.4379  0.1421
  183SOPE    C120898   6.856   6.486   6.423 -0.5452  0.1699 -0.8112
  183SOPE    HA20899   6.858   6.585   6.371  1.1560 -0.4420 -1.9403
  183SOPE    HB20900   6.946   6.426   6.398  0.2575  1.2013 -0.4346
  183SOPE    C220901   6.857   6.512   6.577 -0.3924 -1.0185  0.0815
  183SOPE    HS20902   6.948   6.572   6.601 -0.0774 -1.3066 -0.3837
  183SOPE   O2120903   6.869   6.381   6.643 -0.2090  0.3875  0.3081
  183SOPE   C2120904   6.986   6.325   6.631 -0.8490 -0.0245 -0.2951
  183SOPE   O2220905   7.088   6.368   6.576 -0.1507  0.3315  0.0229
  183SOPE   C2220906   6.987   6.190   6.701 -0.3430 -0.6046 -0.9503
  183SOPE   H2R20907   6.989   6.112   6.622 -0.5118 -0.7547 -0.8066
  183SOPE   H2S20908   6.892   6.174   6.756  0.3988  0.5346  0.7252
  183SOPE    C320909   6.736   6.589   6.627  0.5774 -0.3573  0.0112
  183SOPE    HX20910   6.647   6.530   6.595 -0.4309  1.0803  0.0757
  183SOPE    HY20911   6.740   6.690   6.580  1.9002 -1.2512 -1.8183
  183SOPE   O3120912   6.753   6.594   6.776  0.3059 -0.0898  0.6179
  183SOPE   C3120913   6.635   6.607   6.833  0.4279  0.6377 -0.2533
  183SOPE   O3220914   6.527   6.607   6.775  0.0892 -0.3795 -0.1292
  183SOPE   C3220915   6.658   6.609   6.986 -0.4296  0.3769  0.0891
  183SOPE   H2X20916   6.571   6.550   7.021  0.7324 -1.6511 -0.3645
  183SOPE   H2Y20917   6.668   6.719   7.002  0.5315  0.1963  0.7945
  183SOPE   C2320918   7.109   6.176   6.793  0.8150  0.7462 -0.3701
  183SOPE   H3R20919   7.188   6.250   6.768 -0.3569  1.8182 -0.9549
  183SOPE   H3S20920   7.153   6.074   6.794  0.8711  0.7643  2.2107
  183SOPE   C2420921   7.078   6.215   6.934  0.2904  0.0179  0.4791
  183SOPE   H4R20922   7.025   6.312   6.945  2.3509  0.7690  4.5822
  183SOPE   H4S20923   7.002   6.144   6.974  1.9530 -2.3339 -0.4157
  183SOPE   C2520924   7.203   6.214   7.029  0.4109  0.4564 -0.0208
  183SOPE   H5R20925   7.250   6.114   7.043 -1.0012  0.0163  1.7643
  183SOPE   H5S20926   7.282   6.280   6.988  1.0240  1.0497  2.0730
  183SOPE   C2620927   7.168   6.271   7.170  0.5172  0.5233 -0.3802
  183SOPE   H6R20928   7.087   6.211   7.214  1.5653 -0.9432 -0.4171
  183SOPE   H6S20929   7.259   6.264   7.234  0.9933  2.9005 -0.7244
  183SOPE   C2720930   7.138   6.424   7.176 -0.3034 -0.5306  0.2794
  183SOPE   H7R20931   7.217   6.493   7.141 -1.2829 -0.4950 -1.9225
  183SOPE   H7S20932   7.045   6.453   7.122 -0.6303  0.9902  1.6059
  183SOPE   C2820933   7.121   6.474   7.318  0.7226 -0.0428 -0.1065
  183SOPE   H8R20934   7.049   6.557   7.329  0.6703 -0.2645  1.2453
  183SOPE   H8S20935   7.083   6.393   7.383  0.3116  0.1841 -0.0665
  183SOPE   C2920936   7.257   6.526   7.377  0.1760 -0.2278 -0.3548
  183SOPE   H9120937   7.320   6.580   7.305  0.3120 -0.4164 -0.3773
  183SOPE  C21020938   7.302   6.513   7.506  0.2018  0.3306  0.2166
  183SOPE  H10120939   7.390   6.568   7.541  0.6579 -0.5800  0.5302
  183SOPE  C21120940   7.233   6.435   7.612  0.3711 -0.4418 -0.4729
  183SOPE  H11R20941   7.298   6.389   7.689  1.1551  2.4110  0.6569
  183SOPE  H11S20942   7.190   6.348   7.558 -2.9557  0.5819  0.3837
  183SOPE  C21220943   7.123   6.514   7.683  0.1230  0.3756  0.1690
  183SOPE  H12R20944   7.067   6.445   7.750  0.1890  0.2294  0.0732
  183SOPE  H12S20945   7.056   6.554   7.605  3.3734  0.2210 -2.7921
  183SOPE  C21320946   7.180   6.633   7.760  0.0921 -0.6051 -0.2193
  183SOPE  H13R20947   7.218   6.716   7.698 -1.8154 -0.6680 -1.5403
  183SOPE  H13S20948   7.270   6.595   7.813 -0.8819 -1.7098  0.6770
  183SOPE  C21420949   7.079   6.703   7.853 -0.4926  0.1705 -0.4805
  183SOPE  H14R20950   6.983   6.684   7.802 -0.7607 -2.1213  0.8203
  183SOPE  H14S20951   7.097   6.813   7.851  1.8469 -0.1681  0.0435
  183SOPE  C21520952   7.084   6.651   7.999  0.2266  0.5260 -0.7910
  183SOPE  H15R20953   7.182   6.677   8.044  0.9515 -2.0794 -0.7673
  183SOPE  H15S20954   7.068   6.541   8.001  0.1481  0.5567  0.8761
  183SOPE  C21620955   6.979   6.720   8.092  0.2964 -0.1371  0.2228
  183SOPE  H16R20956   6.985   6.671   8.192  0.3973  0.6708  0.6257
  183SOPE  H16S20957   6.880   6.708   8.044  0.0736 -0.3463  0.7242
  183SOPE  C21720958   6.999   6.870   8.109 -0.9413  0.2075 -0.1483
  183SOPE  H17R20959   6.991   6.928   8.014 -1.3122  1.8374  0.8586
  183SOPE  H17S20960   7.101   6.885   8.151 -0.2500  0.6508 -1.9328
  183SOPE  C21820961   6.894   6.928   8.207 -0.3321  0.0557 -0.3350
  183SOPE  H18R20962   6.900   6.863   8.297 -0.0621  0.7066  0.1210
  183SOPE  H18S20963   6.790   6.926   8.167 -0.7192  4.0027  0.3507
  183SOPE  H18T20964   6.914   7.034   8.233  2.4555 -0.6398  0.5528
  183SOPE   C3320965   6.785   6.541   7.037  0.2077  0.0971  0.3893
  183SOPE   H3X20966   6.806   6.592   7.134  2.5673 -1.8713  0.9587
  183SOPE   H3Y20967   6.879   6.541   6.977 -0.7302 -2.9955 -1.1658
  183SOPE   C3420968   6.766   6.391   7.071  0.3970 -0.1445  0.2214
  183SOPE   H4X20969   6.860   6.336   7.091 -1.4517 -2.9146  1.6888
  183SOPE   H4Y20970   6.705   6.345   6.990  2.0257  0.0893 -1.1758
  183SOPE   C3520971   6.682   6.386   7.203  0.2782  0.2149  0.1579
  183SOPE   H5X20972   6.654   6.279   7.205  0.9540 -0.0233 -1.8118
  183SOPE   H5Y20973   6.586   6.441   7.211 -1.1126 -2.0959 -0.1028
  183SOPE   C3620974   6.763   6.412   7.332 -0.4281  0.2453  0.2953
  183SOPE   H6X20975   6.788   6.520   7.334 -0.0502  0.2153 -1.8049
  183SOPE   H6Y20976   6.860   6.358   7.330 -0.7657 -0.3133 -2.1034
  183SOPE   C3720977   6.677   6.379   7.458  0.2124 -0.3619  0.8013
  183SOPE   H7X20978   6.644   6.274   7.443 -1.6086  0.2995 -0.0174
  183SOPE   H7Y20979   6.597   6.455   7.468  0.0825 -0.6036  1.6287
  183SOPE   C3820980   6.763   6.375   7.583  0.6734  0.5945  0.1278
  183SOPE   H8X20981   6.808   6.473   7.609 -2.0758  1.4278  1.9705
  183SOPE   H8Y20982   6.856   6.315   7.573  0.1286 -0.5330  1.6599
  183SOPE   C3920983   6.665   6.331   7.700  0.0944  0.4168 -0.0508
  183SOPE   H9X20984   6.621   6.230   7.683 -1.8634  0.8089  2.3467
  183SOPE   H9Y20985   6.580   6.402   7.707 -1.0554 -0.9148 -0.1657
  183SOPE  C31020986   6.724   6.327   7.844 -0.4421 -0.9728  0.5644
  183SOPE  H10X20987   6.772   6.427   7.856  0.6045 -1.5661  1.4000
  183SOPE  H10Y20988   6.792   6.239   7.848  1.9999  0.7075 -2.0431
  183SOPE  C31120989   6.636   6.323   7.968 -0.2521 -0.2193 -0.4375
  183SOPE  H11X20990   6.709   6.329   8.051 -0.1220  0.8409 -0.6141
  183SOPE  H11Y20991   6.582   6.226   7.968 -0.6496 -0.0150  2.0922
  183SOPE  C31220992   6.531   6.437   7.983  0.3661 -0.6717  0.1515
  183SOPE  H12X20993   6.445   6.407   7.919  0.7035  0.5827 -0.9127
  183SOPE  H12Y20994   6.567   6.532   7.938  0.6181 -0.8292  0.0141
  183SOPE  C31320995   6.497   6.477   8.132 -0.1250 -0.4429  0.2763
  183SOPE  H13X20996   6.584   6.462   8.200  0.0391  0.4500  0.2674
  183SOPE  H13Y20997   6.411   6.412   8.159  0.0001 -1.5132 -1.8014
  183SOPE  C31420998   6.454   6.623   8.144  0.4679  0.2549  0.5324
  183SOPE  H14X20999   6.370   6.636   8.073  0.6295 -1.0805  0.0753
  183SOPE  H14Y21000   6.535   6.684   8.100  0.0291  0.8227  0.5123
  183SOPE  C31521001   6.446   6.668   8.289  0.1774 -0.3397 -0.1115
  183SOPE  H15X21002   6.536   6.648   8.351  1.3919 -0.1968 -1.8143
  183SOPE  H15Y21003   6.373   6.605   8.345 -1.5478  2.1079  0.4588
  183SOPE  C31621004   6.404   6.821   8.316  0.0963 -0.4288 -0.4657
  183SOPE  H16X21005   6.314   6.844   8.255 -0.5758 -2.1560 -0.1751
  183SOPE  H16Y21006   6.484   6.880   8.266  0.5520 -2.1308 -1.8408
  183SOPE  C31721007   6.378   6.861   8.460 -0.4453  0.1568  0.2820
  183SOPE  H17X21008   6.341   6.965   8.447  1.2696  0.5763 -1.4948
  183SOPE  H17Y21009   6.466   6.869   8.527  0.4647 -0.6294 -0.8153
  183SOPE  C31821010   6.273   6.767   8.523  0.0083 -0.6845  1.1816
  183SOPE  H18X21011   6.190   6.766   8.449  0.5195  0.8258  0.5659
  183SOPE  H18Y21012   6.237   6.817   8.615  1.1810  1.7931  0.3371
  183SOPE  H18Z21013   6.309   6.664   8.545  0.8184 -0.8466 -0.7864
  184SOPE     N21014   5.713   6.744   6.043  0.4916  0.3048 -0.7438
  184SOPE   HN121015   5.658   6.831   6.056 -0.5470 -0.3995 -0.4210
  184SOPE   HN221016   5.746   6.745   5.944  1.9108 -0.8460 -0.3016
  184SOPE   HN321017   5.643   6.667   6.042 -0.7032  1.3455  1.2975
  184SOPE   C1221018   5.822   6.704   6.152  0.5864 -0.4970 -0.4980
  184SOPE  H12A21019   5.757   6.688   6.241  0.4122  0.7398 -0.3907
  184SOPE  H12B21020   5.897   6.786   6.154 -0.9858  0.9704  3.5677
  184SOPE   C1121021   5.883   6.567   6.103  0.5642 -0.0305  0.1241
  184SOPE  H11A21022   5.961   6.540   6.177  0.1894 -1.5585 -0.0137
  184SOPE  H11B21023   5.923   6.583   6.001 -0.0289  2.3016  0.2249
  184SOPE     P21024   5.831   6.309   6.086  0.1258  0.0687  0.0556
  184SOPE   O1321025   5.873   6.281   5.949 -0.5722 -0.1167  0.1124
  184SOPE   O1421026   5.717   6.226   6.144  0.2238 -0.3778  0.0339
  184SOPE   O1221027   5.784   6.459   6.100 -0.5573 -0.1405  0.3220
  184SOPE   O1121028   5.950   6.312   6.187 -0.7994 -0.3968 -0.7797
  184SOPE    C121029   5.957   6.269   6.327  0.5354 -0.3073 -0.1538
  184SOPE    HA21030   6.058   6.227   6.349  1.7109  2.0843 -0.7710
  184SOPE    HB21031   5.891   6.180   6.330 -0.3204  0.1454 -3.1261
  184SOPE    C221032   5.909   6.376   6.427 -0.0581 -0.4252 -0.6918
  184SOPE    HS21033   5.962   6.470   6.403  0.6085 -0.8679 -0.9480
  184SOPE   O2121034   5.949   6.338   6.559  0.2910  0.5373  0.1205
  184SOPE   C2121035   6.069   6.364   6.600  0.0020  0.5905  0.5933
  184SOPE   O2221036   6.146   6.440   6.543 -0.2425  0.1998  0.0856
  184SOPE   C2221037   6.097   6.298   6.732 -0.0992  0.3397  0.4391
  184SOPE   H2R21038   6.171   6.218   6.710 -1.0711  0.1068 -2.0776
  184SOPE   H2S21039   6.006   6.247   6.770 -0.4262  1.0176  0.5666
  184SOPE    C321040   5.755   6.402   6.422  0.1409  0.4642  0.1444
  184SOPE    HX21041   5.710   6.301   6.410  1.1707  0.1568 -1.2121
  184SOPE    HY21042   5.737   6.462   6.330  1.4673 -0.7879 -0.9652
  184SOPE   O3121043   5.709   6.475   6.535  0.4666  0.1421  0.4433
  184SOPE   C3121044   5.741   6.600   6.543  0.8052 -0.4518  0.1768
  184SOPE   O3221045   5.802   6.665   6.464 -0.6970 -0.4525  0.6003
  184SOPE   C3221046   5.692   6.640   6.676 -0.9103 -0.1080  0.0619
  184SOPE   H2X21047   5.750   6.583   6.751  1.0922 -0.8850 -2.0394
  184SOPE   H2Y21048   5.585   6.611   6.687 -0.9157 -1.0991 -2.3505
  184SOPE   C2321049   6.160   6.400   6.838 -0.1200 -0.2477  0.0488
  184SOPE   H3R21050   6.246   6.453   6.791 -0.4367 -0.4619 -0.7954
  184SOPE   H3S21051   6.184   6.350   6.934 -0.9913  1.9276  1.4301
  184SOPE   C2421052   6.075   6.515   6.886  0.2303 -0.2538 -0.2882
  184SOPE   H4R21053   6.017   6.566   6.805  0.7573  0.1965 -0.3903
  184SOPE   H4S21054   5.989   6.482   6.948  0.0085  0.8044 -0.0183
  184SOPE   C2521055   6.146   6.629   6.957 -0.3175 -0.0317 -0.5391
  184SOPE   H5R21056   6.231   6.661   6.892 -0.8469  0.2194 -1.1084
  184SOPE   H5S21057   6.071   6.709   6.969 -2.5338 -1.9564 -1.2439
  184SOPE   C2621058   6.215   6.597   7.091 -0.3217  0.4539 -0.0242
  184SOPE   H6R21059   6.141   6.542   7.154 -0.3909  1.6212  0.9228
  184SOPE   H6S21060   6.296   6.521   7.080 -0.8457 -0.0517 -0.4730
  184SOPE   C2721061   6.276   6.720   7.157 -0.5948  0.0513 -0.0679
  184SOPE   H7R21062   6.366   6.758   7.105  1.1373 -2.8225  0.7402
  184SOPE   H7S21063   6.206   6.806   7.155  0.0900  0.6030 -0.4369
  184SOPE   C2821064   6.306   6.710   7.308  0.6833 -0.5545  0.4644
  184SOPE   H8R21065   6.368   6.620   7.326  1.5630  0.1821  1.1572
  184SOPE   H8S21066   6.360   6.802   7.342  1.4309 -0.5501 -0.7236
  184SOPE   C2921067   6.177   6.699   7.396  0.4131 -0.4327  0.4366
  184SOPE   H9121068   6.097   6.649   7.340  0.7221 -0.0621 -0.3525
  184SOPE  C21021069   6.162   6.724   7.524 -0.5544  0.1296 -0.7886
  184SOPE  H10121070   6.064   6.710   7.572 -0.6085  0.6077 -0.7615
  184SOPE  C21121071   6.277   6.772   7.615 -0.9643 -0.2307 -0.3667
  184SOPE  H11R21072   6.253   6.865   7.671  1.2083 -0.4080  0.9253
  184SOPE  H11S21073   6.369   6.793   7.556  0.8147 -1.8138  1.7831
  184SOPE  C21221074   6.330   6.662   7.718  0.2851 -0.1502  0.0663
  184SOPE  H12R21075   6.421   6.705   7.765 -1.4480  4.1519 -0.2558
  184SOPE  H12S21076   6.368   6.577   7.658 -1.5803 -0.5512 -0.5869
  184SOPE  C21321077   6.224   6.624   7.814 -0.0334  0.4470 -0.2152
  184SOPE  H13R21078   6.257   6.541   7.880 -2.6557 -0.0257  0.5814
  184SOPE  H13S21079   6.132   6.584   7.765 -0.1233  1.3373 -0.7935
  184SOPE  C21421080   6.168   6.739   7.894  0.7313 -0.4922 -0.8284
  184SOPE  H14R21081   6.110   6.813   7.834  0.3675 -0.7880 -0.8408
  184SOPE  H14S21082   6.257   6.791   7.935  2.1576 -2.8939 -0.8072
  184SOPE  C21521083   6.062   6.701   8.005 -0.1953 -0.6053  0.4945
  184SOPE  H15R21084   6.092   6.615   8.069  2.9513  1.7123  2.2612
  184SOPE  H15S21085   5.972   6.675   7.945  0.4542  0.4803 -0.9821
  184SOPE  C21621086   6.027   6.815   8.102  0.1957 -0.3097 -0.5471
  184SOPE  H16R21087   6.004   6.902   8.037 -1.5728  0.2766  0.8387
  184SOPE  H16S21088   6.124   6.830   8.154  0.7841 -1.7680 -1.1804
  184SOPE  C21721089   5.915   6.791   8.199  0.2862  0.4187  0.4170
  184SOPE  H17R21090   5.941   6.699   8.255 -0.3976  0.1217  0.2552
  184SOPE  H17S21091   5.824   6.781   8.136  0.7837  2.2561 -0.6181
  184SOPE  C21821092   5.897   6.903   8.312 -0.1908 -0.0560 -0.5109
  184SOPE  H18R21093   5.888   7.008   8.276  1.6008 -0.0174 -0.9124
  184SOPE  H18S21094   5.990   6.904   8.373 -0.2046 -1.0802 -0.4685
  184SOPE  H18T21095   5.819   6.888   8.389  0.7060  2.7016  0.9923
  184SOPE   C3321096   5.703   6.795   6.693 -0.7551  0.5199  0.0854
  184SOPE   H3X21097   5.650   6.841   6.607 -2.5862 -1.3837  0.1605
  184SOPE   H3Y21098   5.809   6.828   6.683 -0.4679 -0.2809  0.4803
  184SOPE   C3421099   5.659   6.852   6.830  0.4526 -0.2297  0.8563
  184SOPE   H4X21100   5.551   6.834   6.851 -0.0826  0.4837 -1.1606
  184SOPE   H4Y21101   5.661   6.961   6.811 -3.0934 -0.2571 -0.0342
  184SOPE   C3521102   5.746   6.829   6.946  0.4114  0.1847 -0.6961
  184SOPE   H5X21103   5.851   6.838   6.912  0.3967  0.2166 -0.7320
  184SOPE   H5Y21104   5.733   6.727   6.987  1.4081  0.9666  1.6948
  184SOPE   C3621105   5.725   6.923   7.059  0.6002 -0.0341 -0.5361
  184SOPE   H6X21106   5.643   6.883   7.122  2.3303 -0.8308  1.2682
  184SOPE   H6Y21107   5.706   7.029   7.030 -0.3113 -0.7356 -2.5483
  184SOPE   C3721108   5.829   6.929   7.167  0.1771 -0.7391 -0.4208
  184SOPE   H7X21109   5.919   6.973   7.119 -0.5861 -1.2805 -2.3859
  184SOPE   H7Y21110   5.861   6.827   7.198  0.3943 -0.8617 -1.0400
  184SOPE   C3821111   5.787   6.988   7.307 -0.0214  0.7354  0.1508
  184SOPE   H8X21112   5.726   6.912   7.360  0.9929 -0.1160  0.1126
  184SOPE   H8Y21113   5.730   7.083   7.294  0.8872  1.0559 -1.6337
  184SOPE   C3921114   5.907   7.005   7.398  0.6779 -0.3678 -0.2076
  184SOPE   H9X21115   5.984   7.071   7.352 -1.1856  0.6359 -1.9412
  184SOPE   H9Y21116   5.947   6.903   7.419 -2.3086 -1.6460 -0.5486
  184SOPE  C31021117   5.868   7.078   7.525  0.6263  0.0086  0.0060
  184SOPE  H10X21118   5.772   7.031   7.555  0.1601  0.3491 -0.9267
  184SOPE  H10Y21119   5.830   7.180   7.503  0.7767 -0.4447 -2.5523
  184SOPE  C31121120   5.983   7.073   7.629  0.3358  0.7430  0.0273
  184SOPE  H11X21121   6.076   7.129   7.605  0.6050  0.4471  0.3568
  184SOPE  H11Y21122   6.019   6.969   7.645  2.0162  1.3096  0.0060
  184SOPE  C31221123   5.946   7.125   7.772  0.4656  0.5708  0.1657
  184SOPE  H12X21124   5.870   7.059   7.818 -0.1578  1.1532 -0.0340
  184SOPE  H12Y21125   5.895   7.222   7.759 -0.7214 -0.0007  0.5030
  184SOPE  C31321126   6.074   7.148   7.862  0.8348 -0.2115 -0.2877
  184SOPE  H13X21127   6.142   7.221   7.812  1.6321 -0.1830  0.8097
  184SOPE  H13Y21128   6.119   7.047   7.859  0.0224 -0.6905  2.2753
  184SOPE  C31421129   6.058   7.183   8.009  0.1223  0.1163  0.1643
  184SOPE  H14X21130   5.972   7.119   8.040  0.8924 -2.5068 -2.7715
  184SOPE  H14Y21131   6.031   7.290   8.014 -3.0030 -0.5981 -0.3261
  184SOPE  C31521132   6.181   7.176   8.095  0.2567  0.4706 -0.2938
  184SOPE  H15X21133   6.266   7.183   8.023 -1.0447  2.3015 -1.6897
  184SOPE  H15Y21134   6.184   7.084   8.157 -2.6425 -1.5112 -2.9518
  184SOPE  C31621135   6.205   7.303   8.182  0.2046  0.1963 -0.1323
  184SOPE  H16X21136   6.108   7.320   8.235 -0.0407 -0.5781 -0.3279
  184SOPE  H16Y21137   6.230   7.391   8.119 -0.8120  1.1282  0.7406
  184SOPE  C31721138   6.316   7.280   8.282  0.4185 -0.3958  0.3813
  184SOPE  H17X21139   6.291   7.206   8.361  1.6687 -0.8552  0.3560
  184SOPE  H17Y21140   6.330   7.379   8.329 -0.1341 -1.1834  2.2369
  184SOPE  C31821141   6.453   7.244   8.231  0.6342  0.2563 -0.7325
  184SOPE  H18X21142   6.492   7.330   8.172 -1.3794  0.9737 -1.0709
  184SOPE  H18Y21143   6.456   7.158   8.161 -1.0526 -0.4230 -0.0086
  184SOPE  H18Z21144   6.520   7.217   8.314 -0.1450  0.4080 -0.0462
  185SAPI   C1221145   2.470   4.031  11.078  0.5181  0.3616 -0.1494
  185SAPI    H221146   2.492   4.054  10.971 -0.7332  3.5230  0.2008
  185SAPI    O221147   2.390   3.912  11.086  0.0513  0.3377 -0.5223
  185SAPI   HO221148   2.383   3.863  11.004  3.0882 -0.2502 -0.5122
  185SAPI   C1321149   2.611   4.014  11.143  0.1672 -0.5339  0.6436
  185SAPI    H321150   2.658   4.115  11.132  1.0771 -1.0103  0.0842
  185SAPI    O321151   2.699   3.925  11.075 -0.2886  0.2181 -0.2870
  185SAPI   HO321152   2.780   3.976  11.066 -1.1231  1.7470  0.7317
  185SAPI   C1421153   2.597   3.991  11.287  0.3005  0.6586  0.1884
  185SAPI    H421154   2.535   3.900  11.298  1.5068 -0.0227  1.6395
  185SAPI    O421155   2.723   3.957  11.348  0.3193 -0.0615 -0.1328
  185SAPI   HO421156   2.725   3.866  11.317 -0.3339 -0.2079  0.2508
  185SAPI   C1521157   2.519   4.102  11.354 -0.0428 -0.5374 -0.7375
  185SAPI    H521158   2.587   4.189  11.340  0.0996 -0.3162  1.2340
  185SAPI    O521159   2.512   4.082  11.497  0.2289 -0.5714  0.4045
  185SAPI   HO521160   2.589   4.126  11.532  0.5332 -1.6619  1.1445
  185SAPI   C1621161   2.382   4.128  11.294  0.4519  0.4628 -0.2435
  185SAPI    H621162   2.316   4.039  11.304 -1.5778  1.6800 -2.2433
  185SAPI    O621163   2.319   4.240  11.347 -0.0863 -0.5670 -0.0812
  185SAPI   HO621164   2.294   4.295  11.272 -1.7417 -1.2512 -0.0463
  185SAPI   C1121165   2.398   4.150  11.151 -0.1298 -0.2399  0.4671
  185SAPI    H121166   2.471   4.230  11.129 -1.7809  0.9509 -0.8537
  185SAPI     P21167   2.221   4.313  11.032 -0.1523  0.0147 -0.0502
  185SAPI   O1321168   2.279   4.422  11.114  0.8938 -0.3744  0.2154
  185SAPI   O1421169   2.078   4.310  11.025 -0.5841  0.6025 -0.2468
  185SAPI   O1221170   2.276   4.166  11.080  0.4087 -0.2449  0.0925
  185SAPI   O1121171   2.279   4.322  10.886  0.0991  0.3021  0.4799
  185SAPI    C121172   2.241   4.231  10.779  0.0698  0.4752  0.7017
  185SAPI    HA21173   2.143   4.181  10.788 -0.2022  1.1894  1.9111
  185SAPI    HB21174   2.224   4.294  10.689  0.7281  0.8377  0.8264
  185SAPI    C221175   2.344   4.120  10.731  0.4528  0.0706 -0.4421
  185SAPI    HS21176   2.357   4.039  10.806 -0.4546 -1.8720 -2.3220
  185SAPI   O2121177   2.467   4.195  10.715 -0.2923  0.6505 -0.2126
  185SAPI   C2121178   2.573   4.117  10.717  0.9442 -0.1511  0.6222
  185SAPI   O2221179   2.570   3.999  10.757 -0.7657 -0.8238  0.4247
  185SAPI   C2221180   2.699   4.204  10.701  0.2235 -0.2902 -0.3411
  185SAPI   H2R21181   2.666   4.296  10.647 -1.2095 -0.3534  0.3965
  185SAPI   H2S21182   2.722   4.230  10.807  0.1065 -0.9455 -0.1564
  185SAPI    C321183   2.304   4.055  10.593  0.2583  0.1165 -0.0166
  185SAPI    HX21184   2.195   4.033  10.604  0.4276 -0.9103 -0.3327
  185SAPI    HY21185   2.345   3.952  10.586 -1.1038 -0.6052  1.9626
  185SAPI   O3121186   2.320   4.139  10.482  0.2204 -0.3210  0.4324
  185SAPI   C3121187   2.427   4.112  10.400 -0.5420 -0.0902  0.0912
  185SAPI   O3221188   2.516   4.039  10.431  0.1953 -0.1030  0.2332
  185SAPI   C3221189   2.429   4.207  10.281 -0.5727 -0.3635  0.4218
  185SAPI   H2X21190   2.510   4.167  10.216 -1.0403 -3.0985  1.4415
  185SAPI   H2Y21191   2.447   4.305  10.331  1.1732 -1.4368  1.9737
  185SAPI   C2321192   2.814   4.123  10.640 -0.4386 -0.2878 -0.2180
  185SAPI   H3R21193   2.791   4.058  10.552  0.2260  0.0208 -0.6264
  185SAPI   H3S21194   2.849   4.044  10.710  1.6355  0.2441 -0.6306
  185SAPI   C2421195   2.932   4.218  10.593 -1.0098  0.7634  0.2350
  185SAPI   H4R21196   2.974   4.270  10.681  0.5159  1.0928 -0.6797
  185SAPI   H4S21197   2.887   4.291  10.521 -1.2122 -0.2724 -0.7028
  185SAPI   C2521198   3.046   4.138  10.540 -0.0706 -0.4275  0.1970
  185SAPI   H5R21199   3.125   4.126  10.616 -1.3348  0.2209  1.6313
  185SAPI   C2621200   3.068   4.081  10.419 -0.2059 -0.1686  0.2682
  185SAPI   H6R21201   3.159   4.020  10.406 -1.2052 -1.1495 -2.6588
  185SAPI   C2721202   2.983   4.080  10.293 -0.0229  0.0329  0.5276
  185SAPI   H7R21203   2.877   4.063  10.319 -1.3508  2.5901 -2.8211
  185SAPI   H7S21204   3.020   4.003  10.222  2.0003  1.5000 -0.0562
  185SAPI   C2821205   2.976   4.214  10.230  0.2407  0.0895 -0.5100
  185SAPI   H8R21206   2.975   4.298  10.300  0.0644 -0.1781 -0.1907
  185SAPI   C2921207   3.000   4.239  10.101 -0.1432 -0.0412 -0.1951
  185SAPI   H9R21208   2.987   4.341  10.062  3.3102  1.1870  1.6080
  185SAPI  C21021209   3.037   4.129   9.997  0.0816 -0.1467  0.3053
  185SAPI  H10R21210   2.999   4.032  10.035  2.6991 -0.2824  2.7629
  185SAPI  H10S21211   3.146   4.110  10.003 -0.3418 -2.9054  0.0782
  185SAPI  C21121212   2.992   4.167   9.862  0.3570 -0.1825 -0.6579
  185SAPI  H11R21213   3.029   4.262   9.822  1.9611  0.4042  2.0770
  185SAPI  C21221214   2.920   4.095   9.778 -0.1506  0.2708  0.1576
  185SAPI  H12R21215   2.920   4.127   9.673  2.3098  1.0263  0.3445
  185SAPI  C21321216   2.846   3.969   9.795  0.9709  0.0371  0.4714
  185SAPI  H13R21217   2.901   3.884   9.841 -0.0751 -0.3604  1.0247
  185SAPI  H13S21218   2.815   3.932   9.695 -1.6338  0.8888  0.9265
  185SAPI  C21421219   2.730   3.998   9.893 -0.3610  0.2233 -0.2374
  185SAPI  H14R21220   2.763   4.010   9.997  0.7512  0.0962 -0.5701
  185SAPI  C21521221   2.594   4.008   9.862 -0.4080  0.1169  0.6842
  185SAPI  H15R21222   2.517   4.006   9.941  1.8765  2.4229  3.0601
  185SAPI  C21621223   2.542   3.991   9.720 -0.1081 -0.4250 -1.2695
  185SAPI  H16R21224   2.625   3.998   9.647  0.5488 -3.3245 -0.8720
  185SAPI  H16S21225   2.473   4.075   9.699 -0.4915 -0.3658  0.1895
  185SAPI  C21721226   2.477   3.856   9.694  0.0879 -0.2178  0.3594
  185SAPI  H17R21227   2.368   3.867   9.711 -0.0975 -0.0489 -0.8357
  185SAPI  H17S21228   2.517   3.780   9.765 -0.7258 -0.5691  0.4389
  185SAPI  C21821229   2.505   3.795   9.553 -0.0430 -0.1982  0.3025
  185SAPI  H18R21230   2.458   3.696   9.537  4.0192 -1.9328 -1.5004
  185SAPI  H18S21231   2.614   3.777   9.546  0.2996  1.6074  0.7892
  185SAPI  C21921232   2.451   3.886   9.438 -0.1046  0.0757  0.8337
  185SAPI  H19R21233   2.502   3.985   9.440 -1.2489  0.6686  2.2060
  185SAPI  H19S21234   2.343   3.899   9.462  0.2377 -0.5365  2.8129
  185SAPI  C22021235   2.459   3.828   9.297  0.7201 -0.2591  0.5272
  185SAPI  H20R21236   2.408   3.730   9.298  1.2824 -0.5487  1.2901
  185SAPI  H20S21237   2.565   3.799   9.277  0.3414 -1.5010  0.2606
  185SAPI  H20T21238   2.413   3.888   9.216  1.5096 -2.1864 -1.4108
  185SAPI   C3321239   2.299   4.219  10.194  0.6159  0.5866 -0.5346
  185SAPI   H3X21240   2.324   4.303  10.125  0.6587  0.9537 -0.0761
  185SAPI   H3Y21241   2.220   4.236  10.270  2.6527  3.0765  1.0917
  185SAPI   C3421242   2.268   4.092  10.110  1.2468 -0.4130  0.2934
  185SAPI   H4X21243   2.260   3.999  10.170  1.7502 -0.4232  0.3421
  185SAPI   H4Y21244   2.352   4.085  10.038  2.0884  0.5012  1.1588
  185SAPI   C3521245   2.143   4.110  10.019  0.1880 -0.2405 -0.5499
  185SAPI   H5X21246   2.145   4.200   9.953 -2.9155  0.1608 -0.1296
  185SAPI   H5Y21247   2.053   4.124  10.081  0.9344  0.3424  0.4054
  185SAPI   C3621248   2.127   3.989   9.923  0.9807 -0.5369 -0.2047
  185SAPI   H6X21249   2.120   3.902   9.991  2.6770 -1.9548 -1.7878
  185SAPI   H6Y21250   2.219   3.992   9.860  0.7661 -0.7098 -0.5295
  185SAPI   C3721251   1.990   3.979   9.852 -0.1970  0.8041 -0.4647
  185SAPI   H7X21252   1.909   3.993   9.927  1.7712  0.0961  1.8527
  185SAPI   H7Y21253   1.990   3.871   9.824 -0.8044  0.2622  1.4937
  185SAPI   C3821254   1.958   4.061   9.724 -0.7380  0.9590  0.8541
  185SAPI   H8X21255   1.962   4.171   9.740 -0.9282  1.4941 -2.4279
  185SAPI   H8Y21256   1.850   4.050   9.699 -0.2035 -0.9152 -0.6290
  185SAPI   C3921257   2.037   4.023   9.596  0.5627  0.2397  0.0459
  185SAPI   H9X21258   2.068   3.920   9.624 -1.1154 -0.4369 -0.5056
  185SAPI   H9Y21259   2.125   4.088   9.576  1.0908 -0.6443 -0.5747
  185SAPI  C31021260   1.946   4.016   9.468  0.1491  0.1316 -0.5845
  185SAPI  H10X21261   1.871   4.097   9.478 -0.8466 -0.9708  1.1284
  185SAPI  H10Y21262   1.883   3.925   9.480 -2.0181  1.5995 -0.6171
  185SAPI  C31121263   2.020   4.019   9.332 -0.6098 -0.0169  1.1986
  185SAPI  H11X21264   2.107   3.952   9.347  0.4158  1.0439  0.0763
  185SAPI  H11Y21265   2.056   4.123   9.315  0.0592 -0.6309 -1.4266
  185SAPI  C31221266   1.937   3.977   9.215 -0.2778 -0.5484  0.5089
  185SAPI  H12X21267   1.874   4.069   9.211  1.4346  0.6233 -0.5539
  185SAPI  H12Y21268   1.872   3.891   9.237 -0.9018  0.4901  2.8207
  185SAPI  C31321269   2.008   3.962   9.078 -0.2657  0.8377  0.8159
  185SAPI  H13X21270   1.929   3.968   8.999 -0.9550 -1.2353  1.3069
  185SAPI  H13Y21271   2.036   3.856   9.063 -2.2015  0.5153 -0.8340
  185SAPI  C31421272   2.118   4.064   9.045  0.3090 -0.5090 -0.6289
  185SAPI  H14X21273   2.187   4.067   9.132 -0.0722 -1.6094 -0.2823
  185SAPI  H14Y21274   2.073   4.166   9.041  1.2007 -0.1408 -1.7458
  185SAPI  C31521275   2.193   4.039   8.918 -0.6539  0.1946 -1.0425
  185SAPI  H15X21276   2.106   4.005   8.859 -1.4438 -1.3396  0.9474
  185SAPI  H15Y21277   2.266   3.955   8.928 -2.5305 -1.1304  2.7612
  185SAPI  C31621278   2.272   4.152   8.867 -0.9927  0.2120 -0.3989
  185SAPI  H16X21279   2.212   4.240   8.896 -1.1471 -0.3326  0.9723
  185SAPI  H16Y21280   2.277   4.147   8.756 -0.3758 -4.8410 -0.2707
  185SAPI  C31721281   2.415   4.177   8.936 -0.3582 -0.3076  0.6518
  185SAPI  H17X21282   2.495   4.105   8.907 -1.5778 -1.1182 -0.7997
  185SAPI  H17Y21283   2.401   4.176   9.046  0.7298  2.4965  0.8694
  185SAPI  C31821284   2.470   4.317   8.906  0.0268  1.0481 -0.3453
  185SAPI  H18X21285   2.509   4.323   8.802 -0.6647  0.9502 -0.6076
  185SAPI  H18Y21286   2.553   4.338   8.976  0.9409  1.6140 -1.5717
  185SAPI  H18Z21287   2.386   4.389   8.908 -0.8489  0.0272  0.0635
  186SAPI   C1221288   4.058   2.534  10.735 -0.2947  0.5548  0.6155
  186SAPI    H221289   4.019   2.528  10.631 -2.0591  0.5438  1.2661
  186SAPI    O221290   4.034   2.408  10.794 -0.3979 -0.4383 -0.5634
  186SAPI   HO221291   3.951   2.412  10.843  2.2941  0.4062  4.3053
  186SAPI   C1321292   4.210   2.557  10.716  0.3320 -0.1372 -0.2689
  186SAPI    H321293   4.230   2.654  10.666 -0.3834  0.6002  0.8372
  186SAPI    O321294   4.273   2.449  10.648  0.5401 -0.7638  0.3510
  186SAPI   HO321295   4.365   2.448  10.678 -0.3578 -0.1105  3.2702
  186SAPI   C1421296   4.267   2.565  10.860  0.2697 -0.0664 -0.3013
  186SAPI    H421297   4.258   2.473  10.921 -1.0772 -0.2361 -0.7285
  186SAPI    O421298   4.404   2.588  10.853 -0.4071 -0.0669 -0.1635
  186SAPI   HO421299   4.438   2.505  10.886 -0.1832  0.1454  0.1344
  186SAPI   C1521300   4.204   2.673  10.947  0.0261  0.2012  1.0823
  186SAPI    H521301   4.216   2.768  10.891  0.4184  0.2233  1.1971
  186SAPI    O521302   4.269   2.692  11.075 -0.2571  0.1948  0.2605
  186SAPI   HO521303   4.326   2.769  11.063  2.2541 -1.7738 -1.1457
  186SAPI   C1621304   4.049   2.641  10.957 -0.2995 -0.7274  0.6584
  186SAPI    H621305   4.033   2.551  11.021 -0.5626  0.1181  1.8153
  186SAPI    O621306   4.002   2.754  11.023 -0.5868 -0.3698 -0.3454
  186SAPI   HO621307   3.917   2.729  11.060 -0.9618  0.3753 -0.6822
  186SAPI   C1121308   3.986   2.634  10.821 -0.6312  0.2668 -0.4742
  186SAPI    H121309   4.010   2.730  10.769  1.6540 -0.4749 -0.8181
  186SAPI     P21310   3.744   2.652  10.702  0.1466 -0.0498  0.0457
  186SAPI   O1321311   3.811   2.741  10.606 -0.2589 -0.6896  0.6415
  186SAPI   O1421312   3.617   2.703  10.756  0.0861  0.2724 -0.0526
  186SAPI   O1221313   3.842   2.626  10.824  0.4274  0.3142  0.3697
  186SAPI   O1121314   3.727   2.504  10.647 -0.0689  0.1845  0.0209
  186SAPI    C121315   3.763   2.448  10.522 -0.4061  0.5259 -0.0900
  186SAPI    HA21316   3.819   2.524  10.463 -0.8259  0.5585 -0.4470
  186SAPI    HB21317   3.844   2.371  10.525  0.2641  1.2394  0.4433
  186SAPI    C221318   3.649   2.383  10.439  0.3369  0.0549 -0.3910
  186SAPI    HS21319   3.687   2.345  10.341 -1.8080  2.1611 -2.0957
  186SAPI   O2121320   3.542   2.480  10.414 -1.1992  0.7380 -0.1810
  186SAPI   C2121321   3.469   2.451  10.313  0.6090  0.0825  0.4468
  186SAPI   O2221322   3.497   2.374  10.221 -0.1895  0.2918 -0.2668
  186SAPI   C2221323   3.336   2.531  10.324  0.0318 -0.0562 -0.1344
  186SAPI   H2R21324   3.274   2.474  10.397 -1.6895  1.1221 -0.6461
  186SAPI   H2S21325   3.345   2.639  10.346 -1.0911 -0.5100  2.7139
  186SAPI    C321326   3.597   2.265  10.521  0.0607 -0.0741 -0.1674
  186SAPI    HX21327   3.553   2.305  10.615  0.9053 -0.8904  0.5791
  186SAPI    HY21328   3.683   2.206  10.559  0.2586  1.2666  1.5189
  186SAPI   O3121329   3.492   2.186  10.458  0.0259  0.7583 -0.4651
  186SAPI   C3121330   3.550   2.111  10.373  0.1291  0.6987 -0.3630
  186SAPI   O3221331   3.674   2.103  10.360  0.7512  0.0844 -0.3285
  186SAPI   C3221332   3.442   2.033  10.289  0.3549 -0.1098  0.4236
  186SAPI   H2X21333   3.452   2.057  10.181  1.4408 -1.1703  0.2689
  186SAPI   H2Y21334   3.337   2.058  10.314 -0.3992  0.0810 -2.7262
  186SAPI   C2321335   3.240   2.534  10.200  0.1767  0.5031  0.3120
  186SAPI   H3R21336   3.148   2.590  10.227 -0.9807  0.1656 -2.7295
  186SAPI   H3S21337   3.203   2.432  10.176  1.4245  0.4906 -1.6316
  186SAPI   C2421338   3.299   2.613  10.076 -0.3614  0.2847  0.1576
  186SAPI   H4R21339   3.373   2.691  10.106  1.4816 -0.7612 -1.5303
  186SAPI   H4S21340   3.215   2.679  10.047 -1.5357 -0.4913  1.7459
  186SAPI   C2521341   3.367   2.527   9.967  0.2499 -0.3690 -0.5720
  186SAPI   H5R21342   3.451   2.465  10.005  1.0285 -0.5389 -2.5302
  186SAPI   C2621343   3.352   2.545   9.837  0.4643 -0.0798  0.1576
  186SAPI   H6R21344   3.415   2.479   9.776  0.5725  2.2329 -2.3413
  186SAPI   C2721345   3.258   2.632   9.757  0.4211  0.0520 -1.3734
  186SAPI   H7R21346   3.315   2.715   9.709 -0.9298  1.1142 -1.1740
  186SAPI   H7S21347   3.193   2.683   9.831  1.5691 -0.5008  0.0397
  186SAPI   C2821348   3.179   2.572   9.639 -0.0484  0.4108  0.3440
  186SAPI   H8R21349   3.070   2.563   9.652 -0.3190  2.1155 -0.4709
  186SAPI   C2921350   3.218   2.555   9.508 -0.2439 -0.2126  0.0089
  186SAPI   H9R21351   3.147   2.513   9.436 -1.1693  1.1728  0.1038
  186SAPI  C21021352   3.359   2.584   9.453  0.5205  0.1083 -0.4970
  186SAPI  H10R21353   3.411   2.488   9.429  1.4222  0.0684  1.5158
  186SAPI  H10S21354   3.427   2.622   9.531  0.7871 -0.5697 -0.3964
  186SAPI  C21121355   3.352   2.667   9.323  0.4058 -0.3799 -0.1863
  186SAPI  H11R21356   3.310   2.766   9.346 -0.8952 -1.6352  3.1987
  186SAPI  C21221357   3.387   2.637   9.197 -0.2002  0.3354  0.3661
  186SAPI  H12R21358   3.373   2.713   9.119 -0.3422  1.5284  1.5362
  186SAPI  C21321359   3.439   2.499   9.154 -0.8613  0.0825 -0.3890
  186SAPI  H13R21360   3.456   2.433   9.242  0.0527  1.9928  0.8986
  186SAPI  H13S21361   3.540   2.499   9.108  0.2800 -0.7738  2.0145
  186SAPI  C21421362   3.336   2.434   9.058 -0.5171 -0.6317 -0.0843
  186SAPI  H14R21363   3.256   2.369   9.098 -0.5696 -0.2596  0.4239
  186SAPI  C21521364   3.319   2.463   8.932 -0.2695  0.0898  0.7088
  186SAPI  H15R21365   3.239   2.411   8.878  1.1418 -1.0838 -0.2866
  186SAPI  C21621366   3.400   2.566   8.848 -0.1779 -0.6469 -0.0085
  186SAPI  H16R21367   3.452   2.508   8.769 -1.5797 -1.5513 -0.2699
  186SAPI  H16S21368   3.465   2.627   8.915 -0.0467 -2.3052  1.4150
  186SAPI  C21721369   3.309   2.657   8.768  0.0220  0.1946  0.5046
  186SAPI  H17R21370   3.240   2.709   8.838  0.3999 -0.5992  1.4650
  186SAPI  H17S21371   3.255   2.613   8.682  0.4715  0.6403 -0.0121
  186SAPI  C21821372   3.389   2.774   8.700  0.8530 -0.9214 -0.2168
  186SAPI  H18R21373   3.468   2.747   8.627 -0.8967  3.0628 -3.7808
  186SAPI  H18S21374   3.437   2.829   8.783  2.8713 -2.1832 -0.5230
  186SAPI  C21921375   3.302   2.853   8.602 -0.5798 -0.0509  0.0024
  186SAPI  H19R21376   3.218   2.899   8.659 -1.6764  0.7307 -2.1747
  186SAPI  H19S21377   3.263   2.793   8.517 -0.4679  1.7725 -1.3481
  186SAPI  C22021378   3.375   2.977   8.542  0.5957 -0.1575  0.5478
  186SAPI  H20R21379   3.452   2.950   8.465  1.4583  1.4982  0.7987
  186SAPI  H20S21380   3.431   3.037   8.617  1.2704 -0.8738  0.6293
  186SAPI  H20T21381   3.304   3.039   8.483 -0.8629 -1.1922  1.1915
  186SAPI   C3321382   3.465   1.880  10.309  0.4933 -0.0144 -0.9060
  186SAPI   H3X21383   3.412   1.842  10.399  0.9468 -2.0850 -1.4901
  186SAPI   H3Y21384   3.574   1.862  10.321  0.3779 -1.4662 -1.9193
  186SAPI   C3421385   3.413   1.794  10.189  0.0283 -0.1086 -1.4207
  186SAPI   H4X21386   3.317   1.837  10.155  0.2935  2.3878  0.8341
  186SAPI   H4Y21387   3.388   1.690  10.220 -0.0763  0.5867  0.8971
  186SAPI   C3521388   3.522   1.793  10.074  0.2674  0.4822  0.1049
  186SAPI   H5X21389   3.606   1.738  10.121 -0.6600  0.0692  1.3064
  186SAPI   H5Y21390   3.556   1.895  10.047 -2.2465  0.9754 -1.3817
  186SAPI   C3621391   3.478   1.714   9.954 -0.0297  0.0246 -0.2483
  186SAPI   H6X21392   3.373   1.748   9.940 -0.1048 -0.1543 -0.1103
  186SAPI   H6Y21393   3.471   1.608   9.987  0.7227  0.5172  1.5761
  186SAPI   C3721394   3.558   1.735   9.826  0.0673  0.1540 -0.7552
  186SAPI   H7X21395   3.657   1.687   9.842  0.0098  0.4003  0.3639
  186SAPI   H7Y21396   3.573   1.844   9.807 -0.7023  0.2740 -0.7004
  186SAPI   C3821397   3.501   1.671   9.697 -0.2141 -0.4371  0.2105
  186SAPI   H8X21398   3.405   1.720   9.669 -0.6110 -1.2957  0.0781
  186SAPI   H8Y21399   3.468   1.566   9.709 -2.0520 -0.0820 -1.5227
  186SAPI   C3921400   3.591   1.675   9.569  0.3459 -0.0253 -0.3515
  186SAPI   H9X21401   3.677   1.611   9.599 -0.9842 -1.0985  1.2667
  186SAPI   H9Y21402   3.627   1.775   9.536 -1.1241  2.0898  4.1009
  186SAPI  C31021403   3.503   1.620   9.454  0.0090 -0.3570  0.4913
  186SAPI  H10X21404   3.415   1.686   9.441  0.2026 -0.1223  0.3519
  186SAPI  H10Y21405   3.461   1.520   9.474 -0.3508 -0.2378  0.3409
  186SAPI  C31121406   3.590   1.610   9.328  0.0873  0.1624 -0.1158
  186SAPI  H11X21407   3.681   1.556   9.363 -0.9281 -1.3484  0.2625
  186SAPI  H11Y21408   3.605   1.707   9.278 -3.2295  0.3502 -0.9121
  186SAPI  C31221409   3.532   1.533   9.207  0.1578 -0.0894 -0.0846
  186SAPI  H12X21410   3.433   1.579   9.190 -0.0269 -0.2087  0.6262
  186SAPI  H12Y21411   3.513   1.429   9.243 -0.2125 -0.0938 -0.2883
  186SAPI  C31321412   3.634   1.537   9.092  0.6176 -0.0923 -0.5296
  186SAPI  H13X21413   3.731   1.508   9.138  0.2008 -0.6936 -0.0245
  186SAPI  H13Y21414   3.633   1.643   9.057 -0.0835 -0.3514 -1.3082
  186SAPI  C31421415   3.597   1.453   8.964 -0.9190 -0.1604  0.3755
  186SAPI  H14X21416   3.507   1.499   8.919 -0.4456  0.2253 -0.1764
  186SAPI  H14Y21417   3.570   1.350   8.998  0.7286 -1.0829 -0.9883
  186SAPI  C31521418   3.710   1.449   8.859  0.0888  0.1467 -0.1324
  186SAPI  H15X21419   3.776   1.366   8.891  2.4624  2.1931  0.4615
  186SAPI  H15Y21420   3.753   1.551   8.850  0.3945  0.2758  2.4203
  186SAPI  C31621421   3.655   1.406   8.723 -0.0154  0.3464  0.7098
  186SAPI  H16X21422   3.563   1.466   8.703 -0.7440 -0.4289  1.6759
  186SAPI  H16Y21423   3.625   1.300   8.729  1.0629 -0.0908 -1.1684
  186SAPI  C31721424   3.764   1.400   8.610 -0.1160  0.3155  0.4698
  186SAPI  H17X21425   3.792   1.504   8.582  1.2322  0.3661  1.9244
  186SAPI  H17Y21426   3.711   1.346   8.529  0.3599 -0.7498  0.8611
  186SAPI  C31821427   3.891   1.329   8.648 -0.1192 -0.1226 -0.1155
  186SAPI  H18X21428   3.950   1.304   8.556  0.1877  1.6077 -0.4114
  186SAPI  H18Y21429   3.878   1.237   8.709 -0.6323  0.9130  1.3389
  186SAPI  H18Z21430   3.952   1.399   8.709  0.8049 -1.4695  0.5160
  187SAPI   C1221431   6.639   3.251   6.171 -0.4216 -0.0392 -0.0573
  187SAPI    H221432   6.633   3.360   6.149  2.1906 -0.1751 -1.6859
  187SAPI    O221433   6.585   3.169   6.067  0.4772 -0.5144 -0.2252
  187SAPI   HO221434   6.577   3.220   5.986 -0.0912  0.6186  0.5125
  187SAPI   C1321435   6.784   3.220   6.188  0.6368 -1.1731  0.6362
  187SAPI    H321436   6.819   3.282   6.273 -4.2329  0.3544  1.6906
  187SAPI    O321437   6.855   3.255   6.069 -0.7666 -0.0488 -0.0268
  187SAPI   HO321438   6.868   3.178   6.013 -0.9315 -0.5345  0.5891
  187SAPI   C1421439   6.813   3.076   6.234  0.3425 -0.3705 -0.1865
  187SAPI    H421440   6.779   3.016   6.146  2.1598 -1.1228 -0.3961
  187SAPI    O421441   6.953   3.043   6.247  0.2456 -0.1091 -0.5975
  187SAPI   HO421442   6.997   3.067   6.329  0.4736  0.0504 -0.7662
  187SAPI   C1521443   6.731   3.040   6.354 -0.5333 -0.4603 -0.6525
  187SAPI    H521444   6.769   3.091   6.445  0.7063  0.9395 -1.9245
  187SAPI    O521445   6.730   2.901   6.379  0.0639 -0.2732  0.7214
  187SAPI   HO521446   6.645   2.866   6.351  0.3342 -0.1557 -0.2780
  187SAPI   C1621447   6.581   3.085   6.341 -0.3787 -0.0464 -0.1609
  187SAPI    H621448   6.520   3.027   6.269 -1.5262  2.3394 -1.1857
  187SAPI    O621449   6.510   3.060   6.461 -0.5624  0.6967  0.7319
  187SAPI   HO621450   6.448   3.131   6.481 -0.3700  0.8906  0.6493
  187SAPI   C1121451   6.569   3.235   6.306  0.0978  0.2158  0.0703
  187SAPI    H121452   6.622   3.302   6.377  1.0573 -0.7718  0.3134
  187SAPI     P21453   6.364   3.411   6.338  0.0891  0.0328 -0.1516
  187SAPI   O1321454   6.267   3.456   6.236  0.3286 -0.2059  0.3885
  187SAPI   O1421455   6.476   3.505   6.360 -0.6708  0.5038  0.1945
  187SAPI   O1221456   6.432   3.271   6.285 -0.6433  0.5618 -0.6168
  187SAPI   O1121457   6.294   3.384   6.474  0.3798 -0.0968  0.4136
  187SAPI    C121458   6.222   3.264   6.512  0.2053 -0.6889 -0.7257
  187SAPI    HA21459   6.115   3.291   6.507 -0.1805 -2.2008 -0.9885
  187SAPI    HB21460   6.254   3.175   6.454 -0.0015 -0.8865 -0.5348
  187SAPI    C221461   6.238   3.235   6.662 -0.7614  0.0651  0.7625
  187SAPI    HS21462   6.224   3.330   6.716  1.0676 -0.0605  1.4969
  187SAPI   O2121463   6.369   3.177   6.686  0.6740  0.5261  0.4763
  187SAPI   C2121464   6.427   3.209   6.796 -0.3158  0.4448  0.1780
  187SAPI   O2221465   6.390   3.290   6.881 -0.3976 -0.5585  0.1165
  187SAPI   C2221466   6.558   3.139   6.812 -0.0454  0.0304  0.1009
  187SAPI   H2R21467   6.551   3.040   6.762 -1.6058 -0.2639  0.8730
  187SAPI   H2S21468   6.637   3.204   6.768  1.5565 -0.4039  2.2298
  187SAPI    C321469   6.128   3.133   6.708 -0.0590  0.1011  0.3663
  187SAPI    HX21470   6.149   3.034   6.662  2.9788  0.3583  1.1167
  187SAPI    HY21471   6.026   3.159   6.673  0.1071 -1.1750 -1.1246
  187SAPI   O3121472   6.134   3.128   6.851  0.1262  0.4352  0.2725
  187SAPI   C3121473   6.067   3.209   6.925  0.2745  0.0839  0.4818
  187SAPI   O3221474   5.991   3.293   6.880 -0.4244 -0.2054 -0.4336
  187SAPI   C3221475   6.097   3.187   7.079 -0.4976  0.3563 -0.2432
  187SAPI   H2X21476   6.206   3.192   7.095 -0.6726  1.1952  0.7560
  187SAPI   H2Y21477   6.048   3.091   7.108 -0.6270  1.2607  2.7442
  187SAPI   C2321478   6.583   3.112   6.954 -0.5178 -0.4797 -0.2880
  187SAPI   H3R21479   6.495   3.062   6.999  0.0957 -0.7407  0.6350
  187SAPI   H3S21480   6.587   3.208   7.011 -1.6727 -1.3719  1.3192
  187SAPI   C2421481   6.711   3.034   6.977 -0.3535  0.4891  0.1336
  187SAPI   H4R21482   6.752   3.080   7.070 -0.8210 -1.2919  1.2530
  187SAPI   H4S21483   6.779   3.049   6.891 -0.9898 -1.4885 -0.7560
  187SAPI   C2521484   6.700   2.882   6.986 -0.0286  0.2428 -0.9701
  187SAPI   H5R21485   6.629   2.840   6.913 -1.9970  2.8901 -0.6907
  187SAPI   C2621486   6.731   2.801   7.087  0.0599 -0.2033  0.0863
  187SAPI   H6R21487   6.716   2.693   7.097 -3.0852  0.2475  0.5614
  187SAPI   C2721488   6.784   2.857   7.217  0.1319  0.6926  0.1875
  187SAPI   H7R21489   6.855   2.942   7.201  0.6729  0.1266 -0.4529
  187SAPI   H7S21490   6.842   2.773   7.261  0.5627  0.3845 -0.9549
  187SAPI   C2821491   6.694   2.913   7.322  0.2931 -0.6829 -0.5619
  187SAPI   H8R21492   6.628   2.994   7.289 -0.8378 -0.1990  2.6492
  187SAPI   C2921493   6.662   2.855   7.441 -0.1768 -0.1489 -0.1548
  187SAPI   H9R21494   6.592   2.906   7.509  0.1086  1.4009 -0.9916
  187SAPI  C21021495   6.720   2.725   7.483  0.3244  0.4077 -0.3210
  187SAPI  H10R21496   6.831   2.723   7.487  0.3145  2.0183  1.7567
  187SAPI  H10S21497   6.696   2.642   7.413  0.7176  0.5541 -0.6292
  187SAPI  C21121498   6.656   2.683   7.607 -0.7122 -1.0935  0.4137
  187SAPI  H11R21499   6.564   2.735   7.636  1.0968  1.2814  2.1466
  187SAPI  C21221500   6.699   2.597   7.700 -0.2354  0.2119  0.1575
  187SAPI  H12R21501   6.645   2.580   7.794 -0.5878  2.0154  0.3128
  187SAPI  C21321502   6.836   2.528   7.683  0.1556  0.3944  0.1303
  187SAPI  H13R21503   6.915   2.602   7.710  3.5929 -2.4587 -1.6430
  187SAPI  H13S21504   6.855   2.483   7.583 -1.1202 -0.4179  0.2502
  187SAPI  C21421505   6.864   2.413   7.783  0.2014  0.1553 -0.1862
  187SAPI  H14R21506   6.904   2.320   7.740 -1.2732 -0.8162  0.5240
  187SAPI  C21521507   6.872   2.415   7.914 -0.1945 -0.4661  1.1495
  187SAPI  H15R21508   6.896   2.318   7.960  2.6251 -0.3141  0.1280
  187SAPI  C21621509   6.853   2.527   8.010  0.3964 -0.3098 -0.4872
  187SAPI  H16R21510   6.749   2.529   8.048  0.4841  1.8679 -0.3090
  187SAPI  H16S21511   6.881   2.623   7.963  2.4532  0.3113  1.8938
  187SAPI  C21721512   6.935   2.500   8.130 -0.0545  0.4212 -0.4812
  187SAPI  H17R21513   6.955   2.593   8.187 -2.3863 -1.1294  3.0372
  187SAPI  H17S21514   7.034   2.459   8.104  0.5029  1.8755 -0.7279
  187SAPI  C21821515   6.870   2.406   8.233  0.3253  0.4244 -0.5418
  187SAPI  H18R21516   6.861   2.304   8.190  3.1674  0.7715 -2.1079
  187SAPI  H18S21517   6.772   2.444   8.269  0.0056  0.5851 -1.5795
  187SAPI  C21921518   6.954   2.392   8.357 -0.6509  0.5408 -0.6012
  187SAPI  H19R21519   6.990   2.482   8.411 -0.5091 -0.3494  0.8380
  187SAPI  H19S21520   7.049   2.350   8.318  0.5309  0.1902  2.5206
  187SAPI  C22021521   6.907   2.300   8.462 -0.4363 -0.2841 -0.4958
  187SAPI  H20R21522   6.868   2.205   8.419  0.2598  0.4976 -2.8862
  187SAPI  H20S21523   6.823   2.340   8.523  1.5366  0.8083  1.6001
  187SAPI  H20T21524   6.978   2.287   8.547 -0.2639  3.7848  0.0911
  187SAPI   C3321525   6.035   3.295   7.173 -0.7841 -0.2008 -0.1959
  187SAPI   H3X21526   5.926   3.293   7.154 -0.5621 -0.2385 -1.5056
  187SAPI   H3Y21527   6.067   3.397   7.144  0.2532 -0.5900 -0.4280
  187SAPI   C3421528   6.056   3.280   7.318  0.1060 -0.6059 -0.3548
  187SAPI   H4X21529   6.019   3.370   7.371 -2.9563 -2.4928  0.9020
  187SAPI   H4Y21530   6.163   3.262   7.341 -0.1112  0.2893  1.4356
  187SAPI   C3521531   5.974   3.164   7.379 -0.3093  0.0043 -0.2828
  187SAPI   H5X21532   5.992   3.064   7.335 -1.5241 -0.2508 -0.1970
  187SAPI   H5Y21533   5.866   3.187   7.372 -0.5035 -0.8264 -0.0637
  187SAPI   C3621534   5.996   3.149   7.522  0.2261  0.1297  0.0938
  187SAPI   H6X21535   6.093   3.100   7.547 -0.3975 -2.1610 -1.7164
  187SAPI   H6Y21536   5.920   3.081   7.565  0.9387 -0.5072  0.3562
  187SAPI   C3721537   5.988   3.282   7.605 -0.9027 -0.0780 -0.5823
  187SAPI   H7X21538   5.907   3.341   7.558 -0.0151 -0.0040 -2.0484
  187SAPI   H7Y21539   6.082   3.340   7.603 -1.2000  0.3962 -1.0306
  187SAPI   C3821540   5.962   3.251   7.758 -0.1911  0.2066  1.1192
  187SAPI   H8X21541   5.870   3.197   7.790  0.3525 -1.3441  0.1130
  187SAPI   H8Y21542   5.965   3.353   7.803 -0.8008  1.1598 -0.9545
  187SAPI   C3921543   6.084   3.188   7.824  0.0777  0.2243  0.1843
  187SAPI   H9X21544   6.168   3.256   7.799  1.4081 -1.0718  1.0123
  187SAPI   H9Y21545   6.110   3.091   7.777  0.3442 -0.0492  0.8949
  187SAPI  C31021546   6.075   3.161   7.974 -0.6586  0.2503 -1.1954
  187SAPI  H10X21547   5.995   3.084   7.981  0.3017 -0.5401  1.8314
  187SAPI  H10Y21548   6.047   3.250   8.035  0.3767 -0.2318  0.0096
  187SAPI  C31121549   6.203   3.110   8.045 -0.6016 -0.5485 -0.3754
  187SAPI  H11X21550   6.262   3.201   8.067 -2.9528  0.7395  0.7407
  187SAPI  H11Y21551   6.260   3.030   7.993  0.2058 -0.6619  0.6817
  187SAPI  C31221552   6.166   3.048   8.181 -0.0672 -0.5476  0.4328
  187SAPI  H12X21553   6.113   2.951   8.172  1.4546 -1.5740  2.0237
  187SAPI  H12Y21554   6.103   3.121   8.235 -1.7753 -0.6431 -1.3941
  187SAPI  C31321555   6.296   3.033   8.260  0.5953  0.5070  0.3416
  187SAPI  H13X21556   6.371   2.980   8.196  0.1859  1.6468 -1.0913
  187SAPI  H13Y21557   6.265   2.972   8.347  3.1635 -0.7082  0.4591
  187SAPI  C31421558   6.355   3.162   8.314  0.0771 -0.4848  0.0154
  187SAPI  H14X21559   6.276   3.208   8.377 -0.5388 -0.7689 -0.5420
  187SAPI  H14Y21560   6.391   3.237   8.241 -0.2392 -0.0131  0.3478
  187SAPI  C31521561   6.478   3.138   8.404  0.7672  0.7965  0.2984
  187SAPI  H15X21562   6.554   3.085   8.342 -0.8951 -1.1211 -0.1380
  187SAPI  H15Y21563   6.454   3.069   8.488  1.9798 -0.2525 -0.1884
  187SAPI  C31621564   6.541   3.272   8.452 -0.3498 -0.3853  0.0714
  187SAPI  H16X21565   6.522   3.351   8.376  2.4116 -1.1682 -1.5112
  187SAPI  H16Y21566   6.649   3.249   8.463 -0.4768 -0.4753  1.2060
  187SAPI  C31721567   6.482   3.317   8.588 -0.7515  0.0421  0.0344
  187SAPI  H17X21568   6.501   3.242   8.668 -1.5892 -0.1577  0.0569
  187SAPI  H17Y21569   6.372   3.335   8.587 -0.5598  1.3039  1.7062
  187SAPI  C31821570   6.549   3.437   8.655 -0.1326  0.0068 -0.3341
  187SAPI  H18X21571   6.514   3.461   8.758  1.3378  0.5809  0.0574
  187SAPI  H18Y21572   6.537   3.531   8.598  0.9447  0.4891  0.2131
  187SAPI  H18Z21573   6.657   3.411   8.665  0.6677  2.3936 -2.4455
  188SAPI   C1221574   0.944   6.311   6.469  0.5679 -0.0394  0.6237
  188SAPI    H221575   0.926   6.257   6.564 -1.4471 -1.3766 -0.4850
  188SAPI    O221576   0.839   6.287   6.378  0.4855 -0.2389  0.1210
  188SAPI   HO221577   0.829   6.192   6.377  2.8901 -0.5265 -0.4931
  188SAPI   C1321578   0.939   6.455   6.521 -0.7277 -0.1782 -0.1029
  188SAPI    H321579   1.019   6.452   6.598  1.0609 -1.4912 -1.9731
  188SAPI    O321580   0.817   6.491   6.584 -0.5430  0.0811 -0.1944
  188SAPI   HO321581   0.828   6.577   6.625  2.2361  1.0052 -2.7177
  188SAPI   C1421582   0.969   6.543   6.405 -0.1294  0.1353  0.1873
  188SAPI    H421583   0.885   6.537   6.333  1.7455  0.3124 -2.1074
  188SAPI    O421584   0.977   6.679   6.442 -0.1561  0.0402 -0.5318
  188SAPI   HO421585   0.914   6.736   6.396 -2.4588 -0.7867  1.4758
  188SAPI   C1521586   1.096   6.507   6.327  0.1219 -0.2980 -0.0512
  188SAPI    H521587   1.187   6.525   6.388  2.6823  0.2885 -3.8177
  188SAPI    O521588   1.105   6.588   6.212  0.0611 -0.5191  0.5141
  188SAPI   HO521589   1.168   6.656   6.235  0.5678 -0.8415  0.1235
  188SAPI   C1621590   1.102   6.360   6.290  0.8061 -0.7442  0.0695
  188SAPI    H621591   1.032   6.319   6.214  1.3699 -2.5843  0.5246
  188SAPI    O621592   1.237   6.323   6.251 -0.1054 -0.6179 -0.0976
  188SAPI   HO621593   1.265   6.247   6.302 -0.4334  0.0168  1.0343
  188SAPI   C1121594   1.078   6.278   6.417  0.1715  0.0694 -0.2860
  188SAPI    H121595   1.153   6.321   6.486  1.2423  0.0242 -1.4077
  188SAPI     P21596   1.216   6.056   6.446 -0.3670 -0.0472  0.1104
  188SAPI   O1321597   1.336   6.118   6.387 -0.3437 -0.6598 -0.3801
  188SAPI   O1421598   1.187   5.913   6.422 -1.2681 -0.0050 -0.5401
  188SAPI   O1221599   1.084   6.138   6.400 -0.0813 -0.1768 -0.0854
  188SAPI   O1121600   1.218   6.076   6.596  0.3928 -0.0638 -0.0561
  188SAPI    C121601   1.107   6.039   6.680 -0.7039  0.3587  0.1129
  188SAPI    HA21602   1.063   6.130   6.725 -2.9948 -0.8800  0.4244
  188SAPI    HB21603   1.019   5.995   6.628 -2.3528  2.2110  1.2828
  188SAPI    C221604   1.141   5.933   6.799 -0.1711 -0.2255  0.8612
  188SAPI    HS21605   1.049   5.890   6.842 -1.1496  1.4516  0.5156
  188SAPI   O2121606   1.209   6.006   6.899 -0.5395  0.1586 -0.0019
  188SAPI   C2121607   1.137   6.080   6.974  0.0840  0.8844 -0.4663
  188SAPI   O2221608   1.016   6.092   6.969  0.3194 -0.0993  0.3499
  188SAPI   C2221609   1.232   6.147   7.082  0.3548  0.6845  0.4771
  188SAPI   H2R21610   1.210   6.256   7.081  0.5383  0.7229  0.7034
  188SAPI   H2S21611   1.213   6.101   7.181 -1.4846 -0.0298 -0.1770
  188SAPI    C321612   1.220   5.820   6.739  0.3545 -0.2767 -0.5846
  188SAPI    HX21613   1.319   5.860   6.708  0.8786 -0.2426  1.0922
  188SAPI    HY21614   1.154   5.784   6.657 -1.0753  1.6565 -0.3222
  188SAPI   O3121615   1.224   5.728   6.847 -0.6098 -0.4327 -0.0090
  188SAPI   C3121616   1.348   5.701   6.891 -0.2460 -0.5779 -0.3101
  188SAPI   O3221617   1.448   5.747   6.840  0.1628 -0.2964 -0.3066
  188SAPI   C3221618   1.352   5.590   6.991 -0.5297  0.5145  0.6603
  188SAPI   H2X21619   1.400   5.500   6.946 -1.4757  0.0547  0.5700
  188SAPI   H2Y21620   1.252   5.557   7.026 -1.1190  1.5508 -0.0203
  188SAPI   C2321621   1.387   6.143   7.050 -0.2514 -0.5283 -0.2721
  188SAPI   H3R21622   1.413   6.204   6.961  2.3847 -0.9191  0.1977
  188SAPI   H3S21623   1.407   6.040   7.014  0.8547  0.0340 -1.2961
  188SAPI   C2421624   1.472   6.169   7.168 -0.6946  0.0723  0.1422
  188SAPI   H4R21625   1.580   6.162   7.143 -0.0898  2.4890  1.8599
  188SAPI   H4S21626   1.452   6.079   7.230 -2.3175 -0.2495 -0.8187
  188SAPI   C2521627   1.445   6.305   7.237  0.2510  0.4665  0.3742
  188SAPI   H5R21628   1.470   6.396   7.180 -1.9466  3.4664  3.9455
  188SAPI   C2621629   1.418   6.326   7.367  0.0491 -0.9595  0.0080
  188SAPI   H6R21630   1.401   6.430   7.395 -0.1814 -1.0328  0.1361
  188SAPI   C2721631   1.408   6.215   7.472  0.4789 -0.6296  0.4515
  188SAPI   H7R21632   1.380   6.118   7.427 -1.0995 -0.0609  0.1498
  188SAPI   H7S21633   1.319   6.246   7.531 -0.8658  2.5051 -2.9893
  188SAPI   C2821634   1.530   6.187   7.545  0.1939  0.5350 -0.0758
  188SAPI   H8R21635   1.616   6.174   7.477 -0.3546 -0.7350 -0.5492
  188SAPI   C2921636   1.544   6.169   7.678 -0.0517 -0.2838 -0.4002
  188SAPI   H9R21637   1.644   6.160   7.724 -0.7897  0.2808  1.3576
  188SAPI  C21021638   1.424   6.184   7.777 -0.1422 -0.1912  0.4930
  188SAPI  H10R21639   1.333   6.136   7.733  0.1686  1.0124 -1.5311
  188SAPI  H10S21640   1.394   6.291   7.775  0.6083 -0.0061 -1.8914
  188SAPI  C21121641   1.453   6.142   7.917 -0.5862  0.5747  0.3389
  188SAPI  H11R21642   1.492   6.039   7.927 -0.9063  0.5402  1.3296
  188SAPI  C21221643   1.433   6.211   8.028 -0.0629  0.0246  0.2344
  188SAPI  H12R21644   1.455   6.161   8.123  1.6431 -2.5230 -1.4528
  188SAPI  C21321645   1.378   6.346   8.037  0.4830 -0.1798 -0.4238
  188SAPI  H13R21646   1.303   6.377   7.961  0.9904  0.1644 -0.7914
  188SAPI  H13S21647   1.459   6.410   7.995 -1.3294  2.0933 -0.5661
  188SAPI  C21421648   1.345   6.389   8.171 -0.6380 -0.3446  0.2154
  188SAPI  H14R21649   1.238   6.396   8.195 -0.0103  2.3528  2.5944
  188SAPI  C21521650   1.432   6.425   8.272 -0.0147 -0.5321 -0.2570
  188SAPI  H15R21651   1.397   6.462   8.369  1.3597  2.3087 -0.7849
  188SAPI  C21621652   1.584   6.429   8.276 -0.6978 -0.0418  0.3210
  188SAPI  H16R21653   1.627   6.408   8.176 -0.2415  2.0526  0.0459
  188SAPI  H16S21654   1.626   6.340   8.327 -1.1570 -0.8561 -0.7184
  188SAPI  C21721655   1.640   6.551   8.356  0.1720 -0.6775 -0.6321
  188SAPI  H17R21656   1.558   6.627   8.364  0.9280 -0.0132  1.1865
  188SAPI  H17S21657   1.737   6.586   8.315  0.2867 -1.7411 -1.2663
  188SAPI  C21821658   1.663   6.504   8.502 -0.2848 -0.7097 -0.0517
  188SAPI  H18R21659   1.618   6.405   8.525 -0.2452 -0.6923  0.1016
  188SAPI  H18S21660   1.619   6.584   8.564 -0.1519 -0.7190  0.0567
  188SAPI  C21921661   1.810   6.475   8.529 -0.0529  0.3185 -0.5020
  188SAPI  H19R21662   1.862   6.570   8.508  1.5638 -0.4337 -0.0050
  188SAPI  H19S21663   1.854   6.404   8.456  1.6588  1.1619 -0.2904
  188SAPI  C22021664   1.841   6.434   8.679  0.1778 -0.3616  1.0608
  188SAPI  H20R21665   1.814   6.327   8.691 -1.1772  0.0757  2.0015
  188SAPI  H20S21666   1.770   6.490   8.742 -2.0688 -1.0333 -0.8030
  188SAPI  H20T21667   1.948   6.450   8.705  0.3216  1.3977 -0.4729
  188SAPI   C3321668   1.430   5.642   7.113 -0.4405 -0.2708 -0.8659
  188SAPI   H3X21669   1.521   5.700   7.090 -1.0072  1.0173  0.0604
  188SAPI   H3Y21670   1.469   5.551   7.164 -0.2673  1.1116  1.5535
  188SAPI   C3421671   1.347   5.735   7.203 -0.1500  0.4864 -0.1331
  188SAPI   H4X21672   1.263   5.679   7.249  0.2955  1.6950  2.1962
  188SAPI   H4Y21673   1.302   5.819   7.145  0.8879 -0.0686 -1.7755
  188SAPI   C3521674   1.424   5.789   7.324  0.3836  0.4896 -0.1837
  188SAPI   H5X21675   1.378   5.889   7.336 -1.1032 -0.2214  0.1413
  188SAPI   H5Y21676   1.529   5.810   7.295  0.6896 -0.0711  0.4841
  188SAPI   C3621677   1.430   5.694   7.445  0.5456 -0.3615 -0.0978
  188SAPI   H6X21678   1.521   5.630   7.437  1.9137  1.2343  2.1655
  188SAPI   H6Y21679   1.335   5.637   7.451 -0.5108  1.1433 -1.9905
  188SAPI   C3721680   1.439   5.768   7.582 -0.1890  0.0729  0.1078
  188SAPI   H7X21681   1.340   5.813   7.603  0.7926  1.6110  1.7001
  188SAPI   H7Y21682   1.504   5.857   7.562  2.5818 -2.3360 -2.0217
  188SAPI   C3821683   1.502   5.677   7.688  0.9922  0.1826  0.9220
  188SAPI   H8X21684   1.593   5.626   7.653  2.4475  2.9658  0.4677
  188SAPI   H8Y21685   1.430   5.594   7.708  1.0796  0.0354  0.6096
  188SAPI   C3921686   1.518   5.742   7.828  0.1088  0.1730  0.7980
  188SAPI   H9X21687   1.424   5.783   7.871 -1.3047  2.7918 -4.2870
  188SAPI   H9Y21688   1.593   5.824   7.821  0.9625 -0.4921  2.0358
  188SAPI  C31021689   1.563   5.635   7.927 -0.2929 -0.1037 -0.3354
  188SAPI  H10X21690   1.651   5.583   7.884 -0.7603 -2.8731  1.8921
  188SAPI  H10Y21691   1.482   5.558   7.924 -1.0823  0.6998  0.1684
  188SAPI  C31121692   1.605   5.680   8.061 -0.2425  0.1247 -0.3030
  188SAPI  H11X21693   1.530   5.732   8.125 -1.0612 -2.5844  0.9804
  188SAPI  H11Y21694   1.681   5.760   8.046  0.3909 -0.0999  1.6461
  188SAPI  C31221695   1.672   5.565   8.141  0.4155 -0.7145 -0.1530
  188SAPI  H12X21696   1.618   5.468   8.129  1.5327 -1.5505  1.4582
  188SAPI  H12Y21697   1.661   5.579   8.251 -3.0258  0.9621 -0.6352
  188SAPI  C31321698   1.823   5.559   8.114 -0.4322 -0.2171  0.7038
  188SAPI  H13X21699   1.864   5.661   8.132  1.4108 -0.2466 -2.8007
  188SAPI  H13Y21700   1.846   5.538   8.007 -0.1924  2.0740  0.2985
  188SAPI  C31421701   1.885   5.456   8.215  0.6556  0.2507  0.7003
  188SAPI  H14X21702   1.831   5.360   8.199  0.3301  0.7627 -1.4724
  188SAPI  H14Y21703   1.863   5.482   8.321 -1.0423 -0.8830  0.6569
  188SAPI  C31521704   2.034   5.442   8.183  0.3467  0.1847  0.0380
  188SAPI  H15X21705   2.097   5.423   8.273  2.0442  1.3460 -0.8997
  188SAPI  H15Y21706   2.071   5.533   8.131  0.7052  0.1872  0.2949
  188SAPI  C31621707   2.067   5.310   8.104  0.1761  0.0908 -0.7555
  188SAPI  H16X21708   2.167   5.317   8.057  0.6929 -3.0258 -0.2529
  188SAPI  H16Y21709   1.993   5.315   8.021  0.1026 -2.4256 -0.8949
  188SAPI  C31721710   2.047   5.175   8.186  0.0745  0.1183 -0.3595
  188SAPI  H17X21711   2.049   5.092   8.111  0.8745  0.4606 -0.7194
  188SAPI  H17Y21712   1.950   5.171   8.239 -0.1763 -0.4562 -0.8514
  188SAPI  C31821713   2.176   5.155   8.280 -0.4152 -0.3525  0.6200
  188SAPI  H18X21714   2.163   5.229   8.362 -0.6272 -0.8010  0.9987
  188SAPI  H18Y21715   2.260   5.196   8.222 -3.1255  0.5253 -2.8266
  188SAPI  H18Z21716   2.188   5.055   8.329 -1.1503 -0.7859 -0.0721
  189POPC     N21717   1.644   0.674  11.283 -0.1666 -0.8949 -1.2278
  189POPC   C1221718   1.711   0.659  11.151 -0.2089  0.0912  0.0605
  189POPC  H12A21719   1.648   0.694  11.071 -0.2652 -2.5683 -1.0988
  189POPC  H12B21720   1.730   0.556  11.122 -1.6412 -0.5603  1.3866
  189POPC   C1321721   1.563   0.796  11.288 -0.3616 -0.0043  1.1032
  189POPC  H13A21722   1.500   0.794  11.200  1.0105 -0.5196  0.1167
  189POPC  H13B21723   1.503   0.791  11.378 -3.8195  1.1777 -1.0333
  189POPC  H13C21724   1.632   0.878  11.297  1.0612 -1.1145  0.4248
  189POPC   C1421725   1.558   0.561  11.309 -0.6211 -0.0044  0.2842
  189POPC  H14A21726   1.610   0.468  11.326 -2.1459 -0.5041  2.3969
  189POPC  H14B21727   1.493   0.585  11.391 -0.1655  0.2851  0.5608
  189POPC  H14C21728   1.496   0.540  11.223 -0.7910  0.2013  0.3561
  189POPC   C1521729   1.737   0.696  11.402  0.2778  0.4686 -0.1238
  189POPC  H15A21730   1.795   0.607  11.424  1.5576  1.1858 -0.5704
  189POPC  H15B21731   1.672   0.710  11.487 -1.7133  0.0490 -1.5168
  189POPC  H15C21732   1.801   0.782  11.400  2.0886 -0.8692 -2.5745
  189POPC   C1121733   1.854   0.723  11.126 -0.1247  0.3406  0.8696
  189POPC  H11A21734   1.905   0.674  11.040 -1.2598  1.6477 -0.5689
  189POPC  H11B21735   1.917   0.698  11.214  0.6473  1.0981  0.5383
  189POPC     P21736   1.790   0.943  10.992 -0.1575  0.1350 -0.2726
  189POPC   O1321737   1.903   0.973  10.904 -0.2654 -0.6556  0.0375
  189POPC   O1421738   1.718   1.060  11.044  0.1490 -0.3368 -0.0839
  189POPC   O1221739   1.842   0.866  11.109 -0.5941  0.2486 -0.3593
  189POPC   O1121740   1.685   0.855  10.919  0.2479 -0.4936  0.6713
  189POPC    C121741   1.716   0.785  10.795  0.2129 -0.3838 -0.3357
  189POPC    HA21742   1.644   0.700  10.792  0.5414 -0.8578  3.2766
  189POPC    HB21743   1.819   0.744  10.796  1.0149  1.5644 -1.4047
  189POPC    C221744   1.692   0.880  10.680  0.3484 -0.7045 -0.3760
  189POPC    HS21745   1.777   0.950  10.696  1.2766 -2.4147  2.7758
  189POPC   O2121746   1.558   0.932  10.699  0.2581  1.2445 -0.1981
  189POPC   C2121747   1.538   1.063  10.669 -0.9467 -0.6522 -0.7003
  189POPC   O2221748   1.628   1.134  10.628  0.3850  0.3012 -0.0891
  189POPC   C2221749   1.391   1.100  10.672  0.1642  0.1859 -0.2356
  189POPC   H2R21750   1.379   1.203  10.633 -1.6353 -0.5127 -1.6187
  189POPC   H2S21751   1.368   1.100  10.781  1.7856  0.3511  0.1120
  189POPC    C321752   1.694   0.817  10.528  0.2428 -0.7364 -0.0456
  189POPC    HX21753   1.608   0.748  10.518 -1.5094  1.8568 -4.8210
  189POPC    HY21754   1.790   0.764  10.511  0.5973 -1.1766  3.0446
  189POPC   O3121755   1.680   0.914  10.425 -0.3257 -0.4408  0.1268
  189POPC   C3121756   1.785   0.989  10.396 -0.0487 -0.0931  0.0632
  189POPC   O3221757   1.898   0.969  10.441  0.0774 -0.1508 -0.0759
  189POPC   C3221758   1.736   1.104  10.306 -0.4131  0.2053 -1.3123
  189POPC   H2X21759   1.831   1.159  10.286  0.2431 -0.3018  0.3020
  189POPC   H2Y21760   1.665   1.164  10.368 -0.0921 -1.3238  0.5902
  189POPC   C2321761   1.294   1.020  10.587 -0.2504  1.2843  0.0676
  189POPC   H3R21762   1.191   1.054  10.610 -0.8551 -0.2638 -0.3484
  189POPC   H3S21763   1.308   0.912  10.607 -1.4143  1.0782 -0.1926
  189POPC   C2421764   1.317   1.030  10.435  0.0198  0.1009 -0.5096
  189POPC   H4R21765   1.425   1.027  10.408  0.9827 -2.3453  3.1394
  189POPC   H4S21766   1.267   1.121  10.397 -0.6290  0.0632  0.2639
  189POPC   C2521767   1.255   0.905  10.374 -0.5316 -0.2499  0.1755
  189POPC   H5R21768   1.146   0.895  10.395 -1.0975  1.3169 -1.8074
  189POPC   H5S21769   1.317   0.822  10.414  1.6011  0.5186 -1.3985
  189POPC   C2621770   1.287   0.913  10.228 -0.2630  0.2291  1.0937
  189POPC   H6R21771   1.391   0.881  10.205 -0.9802 -0.9214 -0.6443
  189POPC   H6S21772   1.264   1.012  10.183  0.1249 -1.0771 -2.1275
  189POPC   C2721773   1.207   0.814  10.152  0.1508  0.3464  0.4182
  189POPC   H7R21774   1.099   0.827  10.178 -0.1179 -2.3975  0.8200
  189POPC   H7S21775   1.232   0.710  10.183  1.5771 -0.1863 -2.3579
  189POPC   C2821776   1.227   0.852  10.006  0.9903  0.1084  0.1714
  189POPC   H8R21777   1.320   0.807   9.964  1.5766  2.5277 -1.1762
  189POPC   H8S21778   1.234   0.963  10.001  2.0789  0.0085 -0.9567
  189POPC   C2921779   1.107   0.797   9.934 -0.4779  0.1086  0.5340
  189POPC   H9121780   1.025   0.758   9.995 -0.4033 -0.2225  0.4270
  189POPC  C21021781   1.083   0.790   9.804  0.4639 -0.1622  0.2461
  189POPC  H10121782   0.987   0.756   9.764  0.0669 -0.7039  1.6480
  189POPC  C21121783   1.179   0.842   9.705 -0.6980 -0.3645 -0.5005
  189POPC  H11R21784   1.275   0.786   9.711  0.5051  1.8480  1.6529
  189POPC  H11S21785   1.190   0.951   9.722 -0.3000 -0.5437  0.4184
  189POPC  C21221786   1.104   0.817   9.575 -0.5741  0.0186 -0.3663
  189POPC  H12R21787   1.006   0.867   9.587 -1.2867 -0.9864 -1.7187
  189POPC  H12S21788   1.085   0.708   9.560 -0.0364 -0.1001 -0.2332
  189POPC  C21321789   1.177   0.864   9.454  0.0667 -0.6654  0.2656
  189POPC  H13R21790   1.277   0.815   9.455  1.7102  2.6012 -0.2928
  189POPC  H13S21791   1.194   0.969   9.485 -2.7904 -0.6273  1.8852
  189POPC  C21421792   1.094   0.844   9.327  0.0538  0.0583  0.1440
  189POPC  H14R21793   0.992   0.887   9.330  0.1735  0.3411  0.1190
  189POPC  H14S21794   1.071   0.735   9.318 -0.2838  0.2219 -1.0322
  189POPC  C21521795   1.168   0.883   9.201  0.2953  0.4684 -0.2177
  189POPC  H15R21796   1.264   0.828   9.188 -0.4509 -0.6084 -1.2497
  189POPC  H15S21797   1.186   0.993   9.195 -2.2135  0.8999 -0.5100
  189POPC  C21621798   1.094   0.827   9.068 -0.0906 -0.8701  0.2945
  189POPC  H16R21799   0.992   0.871   9.077  0.8625  1.3618  0.5840
  189POPC  H16S21800   1.081   0.717   9.068  0.5668 -0.9526  0.9728
  189POPC  C21721801   1.134   0.891   8.937  0.1725 -0.2118 -0.7432
  189POPC  H17R21802   1.244   0.880   8.920  0.2906  1.5268 -1.2551
  189POPC  H17S21803   1.119   1.000   8.954 -1.3783 -0.5395  0.0308
  189POPC  C21821804   1.042   0.851   8.827 -1.1036 -0.0843  0.6366
  189POPC  H18R21805   1.068   0.901   8.731 -0.8051 -0.8934  0.2952
  189POPC  H18S21806   0.941   0.893   8.848 -0.4304  1.5001  0.7643
  189POPC  H18T21807   1.030   0.743   8.804 -2.2595 -0.1792  1.6790
  189POPC   C3321808   1.667   1.059  10.176 -0.2432  0.0710  1.0102
  189POPC   H3X21809   1.562   1.028  10.196 -0.9597  1.8433  0.0565
  189POPC   H3Y21810   1.723   0.970  10.139 -0.0718  0.0907  1.2187
  189POPC   C3421811   1.657   1.167  10.068  0.3331  0.2665 -0.0414
  189POPC   H4X21812   1.752   1.172  10.012 -0.2423  0.4655 -0.9978
  189POPC   H4Y21813   1.630   1.267  10.109  0.6640  0.3997 -0.1493
  189POPC   C3521814   1.544   1.135   9.974  0.2793 -0.4893 -0.0299
  189POPC   H5X21815   1.545   1.208   9.890 -0.6313  0.0140  0.3878
  189POPC   H5Y21816   1.441   1.147  10.013  1.1302  1.8548  1.6005
  189POPC   C3621817   1.550   0.986   9.911 -0.1694 -0.6175 -0.0826
  189POPC   H6X21818   1.503   0.922   9.989  0.6760 -3.1944 -1.6326
  189POPC   H6Y21819   1.652   0.944   9.898 -0.6349 -1.5233 -0.9301
  189POPC   C3721820   1.492   0.982   9.770  0.1786 -0.1438  0.7546
  189POPC   H7X21821   1.408   1.056   9.769  1.0666  0.9227  2.2592
  189POPC   H7Y21822   1.447   0.881   9.756  0.5907  0.1412 -3.0085
  189POPC   C3821823   1.585   1.024   9.661 -0.7513  0.0029 -0.0654
  189POPC   H8X21824   1.670   0.952   9.657  0.5909  1.3408  2.8796
  189POPC   H8Y21825   1.631   1.123   9.684 -0.8012  0.1378 -0.5505
  189POPC   C3921826   1.521   1.004   9.519  0.4021 -0.4310 -0.4339
  189POPC   H9X21827   1.452   1.088   9.496 -0.2011 -1.0977 -1.1154
  189POPC   H9Y21828   1.472   0.905   9.508 -1.3010  0.4598 -1.1169
  189POPC  C31021829   1.629   1.005   9.410 -0.2289 -0.1609  0.3516
  189POPC  H10X21830   1.688   0.911   9.418  0.8869  0.3554 -1.4202
  189POPC  H10Y21831   1.700   1.088   9.432 -0.4750 -0.2931  1.6869
  189POPC  C31121832   1.567   1.024   9.265  0.0753 -0.3831 -0.6185
  189POPC  H11X21833   1.531   1.129   9.253 -0.1610 -0.4474 -0.4665
  189POPC  H11Y21834   1.474   0.964   9.255 -0.3941  0.7364 -3.4703
  189POPC  C31221835   1.658   1.009   9.145  0.1907 -0.0484  0.5547
  189POPC  H12X21836   1.681   0.900   9.147 -1.9237 -0.5593 -1.3731
  189POPC  H12Y21837   1.751   1.065   9.170  1.3594 -2.5751  2.1256
  189POPC  C31321838   1.599   1.038   9.009  0.9082  0.1470 -0.1707
  189POPC  H13X21839   1.549   1.138   9.008  1.7116  0.6126  3.0137
  189POPC  H13Y21840   1.512   0.970   8.995  1.5605 -1.2412  2.3679
  189POPC  C31421841   1.694   1.028   8.891 -0.1990  0.1073 -0.0781
  189POPC  H14X21842   1.713   0.920   8.874 -0.9410  0.1512 -1.2253
  189POPC  H14Y21843   1.793   1.069   8.921 -1.0441  0.0927  2.8251
  189POPC  C31521844   1.643   1.109   8.769 -0.0724  0.0088 -0.1266
  189POPC  H15X21845   1.640   1.219   8.782 -2.0807 -0.1907  1.3883
  189POPC  H15Y21846   1.540   1.075   8.746  0.3626  0.2458 -2.5086
  189POPC  C31621847   1.730   1.083   8.646  0.7075 -0.2633  0.4958
  189POPC  H16X21848   1.732   0.973   8.629  1.1133 -0.1970  0.1204
  189POPC  H16Y21849   1.835   1.115   8.666  0.3751  0.8125  0.5663
  189POPC  H16Z21850   1.707   1.142   8.555  0.8607  0.7774  1.1136
  190POPC     N21851   3.079   4.073  11.391  0.6825 -0.1188  0.2414
  190POPC   C1221852   3.211   4.135  11.336 -0.0691  0.2641  0.5478
  190POPC  H12A21853   3.292   4.063  11.336 -1.7204 -1.7046 -2.0941
  190POPC  H12B21854   3.243   4.205  11.411 -0.9570  1.4458 -0.1594
  190POPC   C1321855   3.053   3.938  11.332 -0.0831 -0.5870 -0.6763
  190POPC  H13A21856   3.130   3.870  11.365  1.7813  1.8670  0.2550
  190POPC  H13B21857   2.955   3.897  11.348 -1.0862  2.0852  0.2800
  190POPC  H13C21858   3.071   3.947  11.226  0.9071  3.3099 -0.2643
  190POPC   C1421859   3.085   4.051  11.536  0.2601 -0.0330 -0.7939
  190POPC  H14A21860   3.075   4.143  11.592  1.4496 -1.4852  1.9228
  190POPC  H14B21861   2.997   3.997  11.568 -0.2592  0.9850 -0.4897
  190POPC  H14C21862   3.181   4.018  11.573  0.6041  1.2190 -0.5499
  190POPC   C1521863   2.960   4.158  11.378  0.8420 -0.2093  0.0911
  190POPC  H15A21864   2.874   4.103  11.413  1.1567 -0.9718 -0.3146
  190POPC  H15B21865   2.941   4.198  11.279  1.5589  1.0296  0.4519
  190POPC  H15C21866   2.966   4.244  11.443  0.5574 -3.5144  4.7037
  190POPC   C1121867   3.217   4.205  11.199  0.8787 -0.2122 -0.1762
  190POPC  H11A21868   3.302   4.277  11.206 -0.5172  1.4781 -0.0698
  190POPC  H11B21869   3.131   4.274  11.182  1.9711  1.2712  0.2256
  190POPC     P21870   3.354   4.022  11.079 -0.4002  0.3167 -0.1259
  190POPC   O1321871   3.321   3.883  11.026  0.0929  0.2689  0.2306
  190POPC   O1421872   3.433   4.024  11.202  0.3768  0.2465  0.2594
  190POPC   O1221873   3.227   4.118  11.094 -0.2065  0.1150 -0.4072
  190POPC   O1121874   3.437   4.095  10.974  0.1284  0.6101  0.4608
  190POPC    C121875   3.381   4.183  10.881  0.5441  0.0025  0.0609
  190POPC    HA21876   3.379   4.277  10.939 -1.3080  0.4090 -0.6272
  190POPC    HB21877   3.274   4.165  10.857  0.6338 -1.0751  0.4608
  190POPC    C221878   3.455   4.204  10.737  0.4369 -0.6544  0.3034
  190POPC    HS21879   3.562   4.212  10.765  0.0850  2.5027  0.9534
  190POPC   O2121880   3.402   4.321  10.677  0.2121  0.3466  0.4382
  190POPC   C2121881   3.495   4.392  10.613 -0.1444  0.6371 -0.9055
  190POPC   O2221882   3.616   4.374  10.619 -0.0465  0.2313  0.1070
  190POPC   C2221883   3.442   4.495  10.518  0.2474 -0.2442 -0.1260
  190POPC   H2R21884   3.484   4.589  10.560 -0.5748  0.0255  0.1075
  190POPC   H2S21885   3.332   4.508  10.530  0.3697  2.4696 -1.4115
  190POPC    C321886   3.426   4.084  10.643  0.2709 -0.2265 -0.7367
  190POPC    HX21887   3.317   4.082  10.619 -0.2953  0.2665  1.6218
  190POPC    HY21888   3.438   3.992  10.704 -1.7453 -1.4550 -2.1371
  190POPC   O3121889   3.510   4.088  10.526  0.1462 -0.0789 -0.2905
  190POPC   C3121890   3.623   4.022  10.529 -0.6760 -0.1392 -0.0185
  190POPC   O3221891   3.653   3.947  10.620 -0.0297  0.4750 -0.1105
  190POPC   C3221892   3.710   4.062  10.413  0.2169  0.4255 -0.4992
  190POPC   H2X21893   3.812   4.021  10.421 -0.3731 -1.6272 -2.6922
  190POPC   H2Y21894   3.722   4.172  10.413 -1.0933  0.5866  0.2024
  190POPC   C2321895   3.494   4.492  10.380 -0.1227 -0.2783  0.9262
  190POPC   H3R21896   3.605   4.483  10.380  0.1729  2.0915 -2.8798
  190POPC   H3S21897   3.463   4.586  10.329  1.7389 -0.3661 -0.4685
  190POPC   C2421898   3.434   4.372  10.314  0.1824  0.2750  0.3740
  190POPC   H4R21899   3.325   4.358  10.325  0.1057  1.0525  0.6564
  190POPC   H4S21900   3.486   4.280  10.348 -0.7187  0.2236  1.6662
  190POPC   C2521901   3.463   4.398  10.171 -0.7075 -0.5094 -0.4542
  190POPC   H5R21902   3.573   4.410  10.157 -0.8451 -1.2246 -2.3425
  190POPC   H5S21903   3.400   4.478  10.126  1.7218  0.4006 -2.3682
  190POPC   C2621904   3.424   4.274  10.085 -0.1867  0.4063  0.3976
  190POPC   H6R21905   3.313   4.266  10.096 -0.2414  0.6319 -0.0010
  190POPC   H6S21906   3.476   4.177  10.102  1.7898  1.5610  0.9698
  190POPC   C2721907   3.451   4.304   9.939  0.9021  0.5610 -0.2241
  190POPC   H7R21908   3.557   4.336   9.929  1.0388 -0.4760 -2.1467
  190POPC   H7S21909   3.394   4.395   9.909  3.8680  1.9481 -1.8848
  190POPC   C2821910   3.410   4.188   9.841 -0.4475  0.0221  0.6878
  190POPC   H8R21911   3.299   4.180   9.840 -0.6894  2.8576  0.1585
  190POPC   H8S21912   3.443   4.089   9.878  3.7056  1.3254  0.7782
  190POPC   C2921913   3.458   4.211   9.697 -0.6228 -0.2704 -0.2563
  190POPC   H9121914   3.558   4.169   9.677  0.0782  0.9977  0.5410
  190POPC  C21021915   3.384   4.282   9.603 -0.0118 -0.3420 -0.4155
  190POPC  H10121916   3.424   4.296   9.501  2.3305  0.6300  0.6010
  190POPC  C21121917   3.251   4.363   9.627  0.1760  0.3554 -0.1309
  190POPC  H11R21918   3.263   4.473   9.623 -1.8892  0.6892  1.7525
  190POPC  H11S21919   3.211   4.343   9.728 -1.5704  0.7322 -0.7356
  190POPC  C21221920   3.135   4.311   9.528  0.6677 -0.1524  0.4119
  190POPC  H12R21921   3.042   4.366   9.555  1.8155  1.0623  1.9566
  190POPC  H12S21922   3.120   4.205   9.556  0.5292 -0.3028 -0.2281
  190POPC  C21321923   3.163   4.345   9.381 -0.4095  0.1530  0.1912
  190POPC  H13R21924   3.246   4.278   9.350  0.6932  1.7196 -0.3166
  190POPC  H13S21925   3.200   4.450   9.376  3.6320 -1.3058 -3.4480
  190POPC  C21421926   3.045   4.329   9.287  0.1180 -0.2835  0.5010
  190POPC  H14R21927   3.070   4.362   9.184 -1.2818 -1.9107 -0.3971
  190POPC  H14S21928   2.965   4.395   9.327  1.8955  1.1991  1.6613
  190POPC  C21521929   2.983   4.189   9.278 -0.2071 -0.3648 -0.1315
  190POPC  H15R21930   2.902   4.200   9.202  0.8119  1.4935 -0.9667
  190POPC  H15S21931   2.951   4.164   9.382 -1.6130 -1.6356 -0.8406
  190POPC  C21621932   3.076   4.080   9.223 -0.1842  0.0025  0.1797
  190POPC  H16R21933   3.018   3.985   9.229  1.0913 -0.7100  1.6387
  190POPC  H16S21934   3.159   4.072   9.297  0.6548 -0.9181 -0.8456
  190POPC  C21721935   3.134   4.103   9.086  0.0985 -0.0697  0.5537
  190POPC  H17R21936   3.175   4.002   9.065 -0.8798 -1.1197  3.4868
  190POPC  H17S21937   3.216   4.176   9.103  0.5756 -0.3419 -0.5547
  190POPC  C21821938   3.041   4.152   8.972 -0.0012 -0.1674  0.0012
  190POPC  H18R21939   2.961   4.082   8.941  0.9374 -1.1582 -0.2200
  190POPC  H18S21940   3.110   4.168   8.886  1.8008  1.6988  1.7463
  190POPC  H18T21941   2.986   4.244   9.000 -0.0301 -0.5642  1.3041
  190POPC   C3321942   3.642   4.003  10.289 -0.0106  0.0396 -0.4902
  190POPC   H3X21943   3.543   4.052  10.275  0.4043  1.3173  0.9153
  190POPC   H3Y21944   3.604   3.901  10.310  0.3913  0.6088  3.3859
  190POPC   C3421945   3.724   3.999  10.163 -0.2176 -0.8719 -0.1988
  190POPC   H4X21946   3.818   3.941  10.180  0.2399  0.2028  1.0230
  190POPC   H4Y21947   3.756   4.104  10.151  0.6667 -1.0746  0.3079
  190POPC   C3521948   3.649   3.940  10.050 -0.1099  0.4262  0.2283
  190POPC   H5X21949   3.566   4.010  10.028  0.2477  0.3977 -1.2495
  190POPC   H5Y21950   3.611   3.836  10.066  2.5098 -0.5567  0.3189
  190POPC   C3621951   3.730   3.936   9.924 -0.4250 -0.0250 -0.5995
  190POPC   H6X21952   3.816   3.865   9.925  1.3515  2.0270  1.6402
  190POPC   H6Y21953   3.764   4.036   9.890 -0.4096  0.0750 -0.2962
  190POPC   C3721954   3.649   3.881   9.800 -0.3240 -0.0957  0.7005
  190POPC   H7X21955   3.545   3.919   9.814 -0.1490  1.6159 -2.1505
  190POPC   H7Y21956   3.652   3.770   9.803  3.2869 -0.2055 -2.4637
  190POPC   C3821957   3.710   3.937   9.664 -0.2244  0.0757 -0.3333
  190POPC   H8X21958   3.806   3.885   9.648  0.4981  1.2092  0.2503
  190POPC   H8Y21959   3.731   4.045   9.678 -1.5311  0.1654  1.1192
  190POPC   C3921960   3.619   3.902   9.542  0.0345  0.1303  0.4476
  190POPC   H9X21961   3.529   3.967   9.552 -0.3669 -0.0678 -1.7990
  190POPC   H9Y21962   3.593   3.797   9.564  0.3880 -0.4971 -2.0018
  190POPC  C31021963   3.686   3.924   9.410  0.5605 -0.0500  0.0047
  190POPC  H10X21964   3.784   3.875   9.394 -0.1899 -1.6857  0.3643
  190POPC  H10Y21965   3.702   4.034   9.401  3.1516 -0.3577  0.3521
  190POPC  C31121966   3.588   3.890   9.298  0.0674  0.2673  0.5683
  190POPC  H11X21967   3.487   3.937   9.308 -1.5060 -2.6502 -0.9250
  190POPC  H11Y21968   3.572   3.780   9.301  1.5794  0.0472  0.5592
  190POPC  C31221969   3.636   3.938   9.166  0.1047  0.1532 -0.1819
  190POPC  H12X21970   3.720   3.875   9.127 -0.5719 -1.1581  0.4346
  190POPC  H12Y21971   3.669   4.043   9.173  1.2669 -0.3975  3.3073
  190POPC  C31321972   3.525   3.919   9.064  0.0836 -0.3452 -0.1477
  190POPC  H13X21973   3.436   3.981   9.086  1.9411  1.7891  1.6140
  190POPC  H13Y21974   3.494   3.812   9.061 -1.4501  0.1200 -1.2982
  190POPC  C31421975   3.569   3.953   8.920  0.8560 -0.2071 -0.4788
  190POPC  H14X21976   3.654   3.888   8.889  1.7391  1.1954 -1.0018
  190POPC  H14Y21977   3.607   4.057   8.916 -2.0399  0.9576  0.6923
  190POPC  C31521978   3.457   3.931   8.821  0.1260 -0.6821 -0.1427
  190POPC  H15X21979   3.497   3.967   8.724  0.8996  0.5405  0.6168
  190POPC  H15Y21980   3.373   3.999   8.847  0.3395 -0.5543  0.2167
  190POPC  C31621981   3.409   3.794   8.801 -0.1786 -0.7052  0.3316
  190POPC  H16X21982   3.361   3.798   8.701 -0.4963 -0.1577  0.5036
  190POPC  H16Y21983   3.334   3.764   8.877 -1.4397 -1.2030 -1.0875
  190POPC  H16Z21984   3.497   3.727   8.799  0.4603  0.1232  0.2246
  191POPC     N21985   4.522   5.274   6.137 -0.1067  0.3806  0.1956
  191POPC   C1221986   4.491   5.331   6.272  0.0934 -0.5191  0.2136
  191POPC  H12A21987   4.408   5.398   6.256 -3.0526 -4.6659 -1.9204
  191POPC  H12B21988   4.581   5.380   6.308 -0.6525  0.8897  0.1746
  191POPC   C1321989   4.583   5.385   6.053  0.2577  0.4875 -0.1011
  191POPC  H13A21990   4.618   5.348   5.958  0.3282  2.7385 -0.9733
  191POPC  H13B21991   4.512   5.466   6.042 -1.6103 -1.4857 -3.2702
  191POPC  H13C21992   4.671   5.421   6.105 -0.2088 -0.1567  1.1420
  191POPC   C1421993   4.615   5.156   6.153 -0.0237  0.2948 -0.8930
  191POPC  H14A21994   4.713   5.191   6.182 -1.5286  3.1139  1.1213
  191POPC  H14B21995   4.588   5.078   6.222 -0.6139 -0.1103 -1.5706
  191POPC  H14C21996   4.646   5.109   6.061  4.9711  0.5128  0.5342
  191POPC   C1521997   4.395   5.225   6.074 -0.1510 -0.0853  0.0934
  191POPC  H15A21998   4.333   5.161   6.135 -2.1626  0.8823 -0.8804
  191POPC  H15B21999   4.415   5.167   5.985  1.8407 -1.4019  1.3454
  191POPC  H15C22000   4.333   5.309   6.048 -0.2409 -0.5755 -1.3097
  191POPC   C1122001   4.438   5.234   6.379 -0.0863 -0.0999  0.4578
  191POPC  H11A22002   4.437   5.290   6.475 -1.3909 -1.4091  1.2319
  191POPC  H11B22003   4.499   5.144   6.404 -0.3618  0.1179  1.9841
  191POPC     P22004   4.186   5.292   6.361 -0.5583  0.3066  0.1063
  191POPC   O1322005   4.081   5.253   6.264  0.1495  0.4045 -0.4199
  191POPC   O1422006   4.237   5.433   6.353 -0.8255 -0.2486 -0.1019
  191POPC   O1222007   4.304   5.192   6.339  0.1822 -0.9890 -0.0743
  191POPC   O1122008   4.141   5.247   6.502  0.3751  0.2861 -0.0748
  191POPC    C122009   4.116   5.108   6.536  0.2430  0.1432  0.3002
  191POPC    HA22010   4.207   5.061   6.580  1.2512 -0.1377 -1.9953
  191POPC    HB22011   4.089   5.058   6.441 -0.9733  1.2864  0.0319
  191POPC    C222012   3.989   5.105   6.632  0.1238  0.6078 -0.6539
  191POPC    HS22013   3.915   5.177   6.594  0.4738  1.0270 -0.5449
  191POPC   O2122014   4.037   5.134   6.766  0.0186  0.2568 -0.0318
  191POPC   C2122015   3.942   5.197   6.836  0.0379  1.2721 -0.3791
  191POPC   O2222016   3.824   5.203   6.809 -0.6978 -0.1309 -0.2979
  191POPC   C2222017   4.007   5.258   6.959  0.3202 -0.1288  0.0895
  191POPC   H2R22018   3.997   5.369   6.954  0.8896 -0.1528 -1.9735
  191POPC   H2S22019   4.116   5.236   6.956  0.8442  2.4327 -1.2003
  191POPC    C322020   3.918   4.965   6.617  0.4229 -0.4164  0.4092
  191POPC    HX22021   3.882   4.961   6.512  0.7336 -2.4021  0.3655
  191POPC    HY22022   3.830   4.964   6.685 -0.3285  2.4463 -0.4337
  191POPC   O3122023   4.003   4.857   6.655  0.8374  0.2124 -0.5928
  191POPC   C3122024   3.969   4.741   6.609  0.0924 -0.6098 -0.0969
  191POPC   O3222025   3.875   4.729   6.529 -0.2852  0.2242  0.0902
  191POPC   C3222026   4.069   4.642   6.659 -0.4258 -0.5159 -0.4563
  191POPC   H2X22027   4.158   4.694   6.701 -1.5621  2.2218 -1.2879
  191POPC   H2Y22028   4.106   4.576   6.577 -1.5589 -1.0036 -0.5820
  191POPC   C2322029   3.953   5.227   7.097  0.8137  0.3618 -0.7725
  191POPC   H3R22030   3.951   5.118   7.118 -0.2646  0.0359 -2.4764
  191POPC   H3S22031   3.848   5.259   7.113  1.5685  3.1021 -1.1330
  191POPC   C2422032   4.029   5.297   7.210  0.2375  0.2904 -0.2755
  191POPC   H4R22033   4.048   5.402   7.180 -2.2585  0.5858 -0.9612
  191POPC   H4S22034   4.127   5.248   7.224  0.3117  1.1967  2.8849
  191POPC   C2522035   3.956   5.299   7.346 -0.7402 -0.5038 -0.9909
  191POPC   H5R22036   3.897   5.205   7.355  3.6309 -3.2852  0.1527
  191POPC   H5S22037   3.869   5.368   7.343  0.6338  1.3113  0.1556
  191POPC   C2622038   4.049   5.329   7.467 -0.4191 -0.2930  0.0259
  191POPC   H6R22039   4.057   5.439   7.458 -0.6633 -0.3435 -0.7875
  191POPC   H6S22040   4.155   5.300   7.458 -0.7050 -0.8719 -1.5523
  191POPC   C2722041   4.000   5.298   7.613 -0.3674 -0.4180 -0.4750
  191POPC   H7R22042   4.030   5.191   7.620  0.8750 -0.2458 -2.8938
  191POPC   H7S22043   3.890   5.312   7.623 -0.1840  0.0476  1.0095
  191POPC   C2822044   4.074   5.388   7.712 -0.1150  0.1851 -0.0780
  191POPC   H8R22045   4.075   5.491   7.670  0.9965  0.5703  0.8682
  191POPC   H8S22046   4.178   5.350   7.706 -0.4608 -0.8025  0.0901
  191POPC   C2922047   4.012   5.388   7.846  0.2623 -0.1979  0.5791
  191POPC   H9122048   3.908   5.425   7.849  1.2388  2.6738 -0.2476
  191POPC  C21022049   4.064   5.351   7.962 -0.3936 -0.3761  0.8345
  191POPC  H10122050   3.998   5.359   8.050 -2.0559  0.4487 -0.4805
  191POPC  C21122051   4.200   5.297   7.986  0.7323 -0.4270 -0.3511
  191POPC  H11R22052   4.243   5.257   7.891 -2.9486 -0.0722 -2.2536
  191POPC  H11S22053   4.202   5.210   8.055  1.6037 -0.6452 -0.6415
  191POPC  C21222054   4.293   5.411   8.032  0.2613 -0.0513  0.0936
  191POPC  H12R22055   4.279   5.499   7.966 -1.2313 -1.1026 -1.0195
  191POPC  H12S22056   4.399   5.383   8.012 -0.1871 -1.1546 -0.7888
  191POPC  C21322057   4.278   5.441   8.184 -0.0775  0.0931 -0.3438
  191POPC  H13R22058   4.317   5.353   8.240  2.0114 -1.2962 -3.8128
  191POPC  H13S22059   4.170   5.438   8.208  0.0476 -0.4808  0.1537
  191POPC  C21422060   4.339   5.574   8.239  0.4439  0.4826 -0.5961
  191POPC  H14R22061   4.283   5.666   8.210  0.7724  1.4701  1.7282
  191POPC  H14S22062   4.446   5.587   8.213  0.4275  1.6604 -0.1182
  191POPC  C21522063   4.324   5.572   8.393 -0.6519  0.3442  0.6671
  191POPC  H15R22064   4.343   5.673   8.435  1.8371  0.6389 -1.1060
  191POPC  H15S22065   4.399   5.507   8.442  0.4377 -0.0359 -1.4748
  191POPC  C21622066   4.179   5.548   8.456  0.1400 -0.4770  0.5238
  191POPC  H16R22067   4.197   5.535   8.565  0.5360  0.9173  0.6335
  191POPC  H16S22068   4.118   5.459   8.427  1.1816 -1.3648  1.0229
  191POPC  C21722069   4.082   5.667   8.433  0.2533  0.5106  0.2176
  191POPC  H17R22070   3.983   5.622   8.457 -0.1924  0.3260 -1.8993
  191POPC  H17S22071   4.081   5.687   8.324 -1.0771 -3.1846 -0.5430
  191POPC  C21822072   4.114   5.787   8.519 -0.6619 -1.2968  0.0917
  191POPC  H18R22073   4.067   5.779   8.619  2.5187 -1.6527  1.6135
  191POPC  H18S22074   4.074   5.875   8.462  0.4499 -1.5635 -1.1310
  191POPC  H18T22075   4.221   5.815   8.527 -1.0085  0.5489 -1.2081
  191POPC   C3322076   4.008   4.547   6.766  1.0895  0.0774 -0.0566
  191POPC   H3X22077   4.088   4.473   6.791 -0.3940 -1.2751  0.8163
  191POPC   H3Y22078   3.918   4.490   6.737 -0.8556  3.5838 -1.1394
  191POPC   C3422079   3.972   4.625   6.897  0.4144 -0.1252 -0.1235
  191POPC   H4X22080   3.904   4.711   6.877  0.9432  0.7522  1.7401
  191POPC   H4Y22081   4.068   4.663   6.937  0.7020  0.5367 -1.4020
  191POPC   C3522082   3.914   4.532   7.015 -0.2969  0.4527 -1.1634
  191POPC   H5X22083   3.948   4.426   7.011  3.2097  1.5133 -1.1076
  191POPC   H5Y22084   3.804   4.545   7.013 -0.7402 -2.2411  1.8443
  191POPC   C3622085   3.982   4.581   7.143  0.1450 -0.3282  0.3015
  191POPC   H6X22086   3.952   4.686   7.163 -2.3414 -0.6576 -1.4155
  191POPC   H6Y22087   4.092   4.571   7.130 -0.2150 -2.3503 -1.3704
  191POPC   C3722088   3.945   4.496   7.261 -0.4482 -0.3309 -0.0713
  191POPC   H7X22089   3.979   4.391   7.246 -0.2684 -0.1879 -0.6792
  191POPC   H7Y22090   3.834   4.502   7.258 -0.4037  2.0066  1.7858
  191POPC   C3822091   3.974   4.553   7.401  0.1537  0.0907 -0.0847
  191POPC   H8X22092   3.922   4.649   7.420 -0.2162 -0.4985  2.0784
  191POPC   H8Y22093   4.081   4.583   7.409  0.3670 -0.7005  0.1565
  191POPC   C3922094   3.948   4.445   7.513  0.7902  0.3170  0.3105
  191POPC   H9X22095   3.991   4.350   7.476  0.5545  0.3827 -0.1418
  191POPC   H9Y22096   3.839   4.429   7.526  0.1962  1.7842 -2.3272
  191POPC  C31022097   4.006   4.480   7.653 -0.2284  0.1190 -0.9413
  191POPC  H10X22098   3.981   4.581   7.694 -0.5868  0.1744 -1.2925
  191POPC  H10Y22099   4.117   4.476   7.655 -0.2589 -0.8334 -0.7957
  191POPC  C31122100   3.948   4.384   7.762 -0.1842  0.4974 -0.6561
  191POPC  H11X22101   3.989   4.282   7.746  2.5198  1.3850  0.3938
  191POPC  H11Y22102   3.839   4.365   7.753 -0.8729  3.4072  0.9339
  191POPC  C31222103   3.989   4.432   7.908  0.3872 -0.0293 -0.2745
  191POPC  H12X22104   3.926   4.367   7.972 -0.4395  1.2223  0.2086
  191POPC  H12Y22105   3.961   4.539   7.920 -1.3539 -0.5799  0.9288
  191POPC  C31322106   4.130   4.405   7.948 -0.9799 -0.0526 -0.0107
  191POPC  H13X22107   4.200   4.446   7.872  1.8287  1.1312  3.0794
  191POPC  H13Y22108   4.132   4.295   7.940 -1.0389  0.1626 -3.6910
  191POPC  C31422109   4.170   4.446   8.094  0.2615 -0.3724  0.0028
  191POPC  H14X22110   4.191   4.555   8.086  2.2806 -0.5792  1.9929
  191POPC  H14Y22111   4.268   4.397   8.113 -0.2996 -1.5964 -0.2082
  191POPC  C31522112   4.061   4.431   8.201 -0.1664  0.0245 -0.4342
  191POPC  H15X22113   3.998   4.347   8.164  2.3945 -1.8285 -0.7679
  191POPC  H15Y22114   3.989   4.514   8.214  0.6962  0.4055  2.4014
  191POPC  C31622115   4.102   4.402   8.341 -0.2484 -0.1926 -0.1640
  191POPC  H16X22116   4.201   4.451   8.355  0.9295 -2.3494 -0.6809
  191POPC  H16Y22117   4.132   4.297   8.363 -0.6649  0.1564  2.3028
  191POPC  H16Z22118   4.033   4.434   8.422 -2.1366 -1.4733 -1.2129
  192POPC     N22119   2.264   1.053   6.184  0.1504  0.0610  0.3266
  192POPC   C1222120   2.361   0.989   6.273 -0.2584  0.3209 -0.1954
  192POPC  H12A22121   2.377   1.042   6.365 -0.9457  0.1513  0.0275
  192POPC  H12B22122   2.462   0.987   6.235  0.5093 -0.3371  1.8493
  192POPC   C1322123   2.254   0.993   6.048 -0.3127 -0.0795  0.3698
  192POPC  H13A22124   2.202   1.058   5.979  0.0050 -0.1996  0.0137
  192POPC  H13B22125   2.353   0.986   6.004 -0.0921  0.4915  0.7731
  192POPC  H13C22126   2.212   0.895   6.063 -1.4358  0.2811 -0.3377
  192POPC   C1422127   2.125   1.060   6.244 -0.1051  0.1552 -0.9121
  192POPC  H14A22128   2.120   1.111   6.340 -0.6245  0.4357 -1.0874
  192POPC  H14B22129   2.064   1.119   6.179 -0.2442  1.4559  0.3656
  192POPC  H14C22130   2.080   0.962   6.248  3.7350 -1.7138 -0.6226
  192POPC   C1522131   2.305   1.196   6.178 -0.2401 -0.4490 -0.4465
  192POPC  H15A22132   2.348   1.240   6.266  0.7529  1.7885 -2.0181
  192POPC  H15B22133   2.217   1.254   6.155  1.6424  1.8272 -2.1027
  192POPC  H15C22134   2.376   1.212   6.099  0.7816 -0.7330  0.4050
  192POPC   C1122135   2.343   0.836   6.312  0.1938  0.0310 -0.0158
  192POPC  H11A22136   2.266   0.818   6.390  1.2308  0.2267  1.0846
  192POPC  H11B22137   2.442   0.807   6.355 -0.7242 -0.8870  1.5289
  192POPC     P22138   2.372   0.613   6.170 -0.2764  0.1253  0.0880
  192POPC   O1322139   2.519   0.632   6.155 -0.1768  0.2203  0.4751
  192POPC   O1422140   2.303   0.547   6.059  0.3102 -0.2720 -0.3787
  192POPC   O1222141   2.316   0.757   6.198 -0.0566 -0.1515  0.1521
  192POPC   O1122142   2.339   0.531   6.304 -0.0788  0.4321 -0.3455
  192POPC    C122143   2.201   0.541   6.347  0.7181  1.1202 -0.1011
  192POPC    HA22144   2.135   0.503   6.266  0.3774 -1.2838  1.2528
  192POPC    HB22145   2.162   0.644   6.356  1.5465  1.5959 -1.6224
  192POPC    C222146   2.180   0.459   6.478 -0.2998 -0.0781  0.3975
  192POPC    HS22147   2.071   0.455   6.495 -0.4438 -2.9705 -0.9412
  192POPC   O2122148   2.251   0.519   6.588 -0.3793  0.4631 -0.0538
  192POPC   C2122149   2.229   0.645   6.625  0.0288 -0.2144  0.1313
  192POPC   O2222150   2.136   0.715   6.582 -0.0033 -0.7549  0.2164
  192POPC   C2222151   2.339   0.688   6.731  0.2431 -0.1044  0.3980
  192POPC   H2R22152   2.420   0.757   6.699 -1.0574  0.2495 -2.2466
  192POPC   H2S22153   2.394   0.593   6.747  1.1871  0.3820  0.0914
  192POPC    C322154   2.220   0.314   6.461 -0.1365  0.0247 -0.4299
  192POPC    HX22155   2.329   0.298   6.478 -0.0695  1.9301  1.0102
  192POPC    HY22156   2.209   0.278   6.356  2.4559  1.9049 -1.3982
  192POPC   O3122157   2.140   0.238   6.554 -0.0131 -0.0291  0.2310
  192POPC   C3122158   2.198   0.207   6.669 -0.2954  0.2224  0.4768
  192POPC   O3222159   2.312   0.239   6.700 -0.0900 -0.3221 -0.3220
  192POPC   C3222160   2.093   0.154   6.768  0.2236  0.5087 -0.2015
  192POPC   H2X22161   2.075   0.046   6.749 -1.7667  0.8311 -0.2890
  192POPC   H2Y22162   1.995   0.197   6.737 -0.3150 -0.8566 -0.3983
  192POPC   C2322163   2.275   0.750   6.861  0.1450  0.0304  0.2150
  192POPC   H3R22164   2.168   0.718   6.867 -0.3370  1.7904  1.2563
  192POPC   H3S22165   2.286   0.860   6.860 -1.2610  0.1803 -0.3712
  192POPC   C2422166   2.334   0.702   6.997  0.0680 -0.2215  0.3564
  192POPC   H4R22167   2.444   0.714   7.003  0.0762  1.7413 -2.4534
  192POPC   H4S22168   2.307   0.594   6.987  0.0195 -0.0365 -1.8151
  192POPC   C2522169   2.273   0.770   7.125 -0.2991  0.6219  0.1366
  192POPC   H5R22170   2.162   0.760   7.129 -0.1880 -0.0306  2.3112
  192POPC   H5S22171   2.302   0.877   7.117  0.9818  0.2994  0.3413
  192POPC   C2622172   2.330   0.702   7.242 -0.2947  0.3372 -0.8306
  192POPC   H6R22173   2.440   0.692   7.243 -0.3764 -0.8169 -2.2973
  192POPC   H6S22174   2.290   0.599   7.232  2.3724 -0.5413 -2.8620
  192POPC   C2722175   2.296   0.757   7.383 -0.0720  0.0441  0.0646
  192POPC   H7R22176   2.188   0.782   7.389 -0.1382  0.2504 -1.7830
  192POPC   H7S22177   2.353   0.852   7.382  0.6274 -0.3490  1.4604
  192POPC   C2822178   2.349   0.670   7.496 -0.7429 -0.1766 -0.1893
  192POPC   H8R22179   2.454   0.696   7.520 -0.4653 -1.3793 -0.0743
  192POPC   H8S22180   2.341   0.567   7.454 -1.2241 -0.4439  0.5588
  192POPC   C2922181   2.262   0.676   7.622 -0.3077  0.3294 -0.3056
  192POPC   H9122182   2.156   0.681   7.597 -0.1712 -1.5604 -1.2853
  192POPC  C21022183   2.301   0.660   7.749  0.3487 -0.4938 -0.0755
  192POPC  H10122184   2.230   0.645   7.832  0.6789 -2.0134 -0.0612
  192POPC  C21122185   2.442   0.647   7.797  0.1164 -0.5571 -0.4490
  192POPC  H11R22186   2.510   0.670   7.713  2.5138 -1.0621  1.3244
  192POPC  H11S22187   2.449   0.540   7.825 -1.0820 -1.4395 -3.2738
  192POPC  C21222188   2.478   0.745   7.910 -0.9617  0.1413  0.8085
  192POPC  H12R22189   2.490   0.850   7.876  0.4838  0.0140  0.8783
  192POPC  H12S22190   2.587   0.724   7.918 -0.9634 -0.6525 -0.9386
  192POPC  C21322191   2.411   0.737   8.052 -0.3283 -0.4724  0.6101
  192POPC  H13R22192   2.404   0.631   8.083  1.1987 -0.8903 -0.4351
  192POPC  H13S22193   2.310   0.785   8.053  0.7747  2.0373 -2.1606
  192POPC  C21422194   2.487   0.811   8.161 -0.5713 -0.2507 -0.0538
  192POPC  H14R22195   2.482   0.921   8.144 -0.9689 -0.5819 -2.2928
  192POPC  H14S22196   2.595   0.796   8.143 -0.1912  2.5794 -0.5054
  192POPC  C21522197   2.436   0.795   8.303  0.1928 -0.0509  0.6033
  192POPC  H15R22198   2.430   0.684   8.316  0.4515  0.1427  2.5427
  192POPC  H15S22199   2.334   0.838   8.294 -0.5915 -1.2601  3.1149
  192POPC  C21622200   2.524   0.858   8.402  0.3162 -0.2907  0.5058
  192POPC  H16R22201   2.503   0.966   8.418  0.3125 -0.2570  0.2668
  192POPC  H16S22202   2.630   0.847   8.369  0.3358 -0.8483  0.7529
  192POPC  C21722203   2.519   0.779   8.535 -0.6680 -0.3145  0.3982
  192POPC  H17R22204   2.600   0.819   8.600 -0.3095 -0.9242  0.3316
  192POPC  H17S22205   2.545   0.673   8.515 -4.1659 -0.3622 -4.8945
  192POPC  C21822206   2.383   0.784   8.605 -0.1743 -0.0821 -0.4212
  192POPC  H18R22207   2.365   0.893   8.615 -0.1032 -0.1203  0.1704
  192POPC  H18S22208   2.388   0.731   8.703  0.2919  0.5542 -0.0978
  192POPC  H18T22209   2.300   0.744   8.542 -1.4900  2.5094 -0.4289
  192POPC   C3322210   2.111   0.193   6.917 -0.2976  0.9780  0.6278
  192POPC   H3X22211   2.212   0.165   6.954 -1.2323 -0.0485  2.4555
  192POPC   H3Y22212   2.036   0.132   6.973 -1.4547 -0.6824 -2.5911
  192POPC   C3422213   2.085   0.335   6.946 -0.3646 -0.3780 -0.5840
  192POPC   H4X22214   1.978   0.364   6.942 -0.0318  2.4605  5.4126
  192POPC   H4Y22215   2.132   0.397   6.867 -1.7665 -1.7813 -2.5586
  192POPC   C3522216   2.141   0.372   7.085  0.4442  1.0787 -0.1167
  192POPC   H5X22217   2.126   0.482   7.089  0.8945  1.1225  0.3692
  192POPC   H5Y22218   2.251   0.356   7.096  0.9623  3.5288 -1.2846
  192POPC   C3622219   2.052   0.329   7.211 -0.4319  0.9054  0.0687
  192POPC   H6X22220   2.038   0.221   7.189  1.0570  1.1508 -2.1525
  192POPC   H6Y22221   1.959   0.389   7.211 -2.5184 -2.2322 -0.9139
  192POPC   C3722222   2.119   0.328   7.349 -0.7427  0.3290  0.0826
  192POPC   H7X22223   2.088   0.413   7.413  0.3679 -0.8063  2.1515
  192POPC   H7Y22224   2.225   0.349   7.323 -0.9155 -0.8891 -1.7534
  192POPC   C3822225   2.094   0.203   7.428 -0.3255  0.1521  0.6605
  192POPC   H8X22226   2.135   0.120   7.366 -1.6268  0.1359 -0.2063
  192POPC   H8Y22227   1.985   0.183   7.436 -0.6232  1.1975 -0.6803
  192POPC   C3922228   2.160   0.198   7.564  0.7699 -1.0800  1.1031
  192POPC   H9X22229   2.264   0.233   7.550 -0.4051  2.5141  0.9348
  192POPC   H9Y22230   2.145   0.097   7.610 -1.3808 -0.4262  1.8979
  192POPC  C31022231   2.099   0.300   7.662 -0.3681  0.1094  0.2176
  192POPC  H10X22232   1.995   0.262   7.672  0.2321 -2.0667 -1.4740
  192POPC  H10Y22233   2.095   0.395   7.604 -2.4439 -0.5891 -0.8361
  192POPC  C31122234   2.169   0.311   7.798 -0.1306  0.4815 -0.4086
  192POPC  H11X22235   2.270   0.355   7.783 -1.0422  3.0134  0.5714
  192POPC  H11Y22236   2.179   0.213   7.849  3.9884  0.4590 -1.0536
  192POPC  C31222237   2.101   0.407   7.896  0.2584  0.1898  0.2532
  192POPC  H12X22238   2.001   0.366   7.922  0.6716  0.2271  1.9542
  192POPC  H12Y22239   2.073   0.507   7.858 -1.8779 -1.2535 -2.1858
  192POPC  C31322240   2.174   0.410   8.036 -0.4355 -0.7370 -0.8991
  192POPC  H13X22241   2.281   0.441   8.031 -0.3483 -0.8452  0.0964
  192POPC  H13Y22242   2.163   0.311   8.086 -1.5182 -0.6925 -1.0549
  192POPC  C31422243   2.108   0.501   8.145  0.1321 -0.0750  0.4747
  192POPC  H14X22244   2.003   0.465   8.140  0.2288 -0.1047 -2.0714
  192POPC  H14Y22245   2.134   0.607   8.125  0.0493 -0.1524 -0.0601
  192POPC  C31522246   2.164   0.464   8.283  0.9502  0.7176  0.5041
  192POPC  H15X22247   2.272   0.442   8.268  0.6635  0.8894 -1.9928
  192POPC  H15Y22248   2.121   0.375   8.335 -1.0571  1.9707  1.0476
  192POPC  C31622249   2.152   0.574   8.391  0.7418  0.3434  0.4373
  192POPC  H16X22250   2.204   0.661   8.346  0.1081  0.0232 -0.9506
  192POPC  H16Y22251   2.202   0.550   8.486  1.7983  0.7220 -0.0164
  192POPC  H16Z22252   2.044   0.600   8.401  0.0282 -2.1893 -0.1584
  193SOD    SOD22253   0.843   0.379  13.062  0.5950 -0.2421  0.6709
  194SOD    SOD22254   5.050   6.401  15.722  0.4767 -0.3656 -0.3596
  195SOD    SOD22255   0.783   0.907  13.050  0.0440 -0.1886  0.0358
  196SOD    SOD22256   0.189   4.558   3.890  0.4053  0.0790 -0.4092
  197SOD    SOD22257   6.536   1.975   1.242 -0.3625  0.5775 -0.8595
  198SOD    SOD22258   0.505   4.032  10.662 -0.2619 -0.4016 -0.8325
  199SOD    SOD22259   6.759   3.173   0.315  0.0553 -0.0945 -0.1445
  200SOD    SOD22260   0.286   1.406   5.115 -0.0605 -0.4837 -0.1539
  201SOD    SOD22261   4.528   3.537   4.644 -0.2509  0.0353  0.1014
  202SOD    SOD22262   3.475   6.016   0.203 -0.5937  0.5700  0.0725
  203SOD    SOD22263   6.173   4.733   6.513  0.1583 -0.0062  0.3820
  204SOD    SOD22264   0.420   4.850  13.159 -0.0343 -0.0572  0.0969
  205SOD    SOD22265   5.036   1.767  15.814 -0.0020 -0.0138  0.2939
  206SOD    SOD22266   1.519   1.805   2.670  0.3259 -0.0712 -0.4459
  207SOD    SOD22267   4.523   4.732   5.089  0.0585 -0.5827 -0.1271
  208SOD    SOD22268   5.786   2.412  12.490 -0.6750  0.2521 -0.2350
  209SOD    SOD22269   5.806   3.969   2.960  0.3176 -0.5085 -0.3218
  210SOD    SOD22270   2.074   3.852   2.439 -0.0963 -0.0812 -0.2916
  211SOD    SOD22271   3.379   3.296  11.106 -0.8540 -0.1328  0.4667
  212SOD    SOD22272   1.180   4.435  15.465  0.1669 -0.3381  0.0344
  213SOD    SOD22273   2.726   3.895   0.146 -0.3087  0.5763 -0.2605
  214SOD    SOD22274   3.263   2.032   6.424  0.2397 -0.0258  0.1158
  215SOD    SOD22275   5.113   4.327   0.060  0.3508 -0.1654 -0.8065
  216SOD    SOD22276   2.248   2.511   2.171 -0.1064  0.0098  0.3489
  217SOD    SOD22277   4.760   1.044  11.600 -0.2621  0.0570 -0.1163
  218SOD    SOD22278   2.556   2.315  11.871  0.2631  0.2575  0.1026
  219SOD    SOD22279   2.472   6.000  11.525 -0.5170  0.6804  0.2708
  220SOD    SOD22280   0.864   1.008  11.372 -0.0728  0.7461 -0.6691
  221SOD    SOD22281   1.305   2.914   4.936 -0.3429  0.1068 -0.1896
  222SOD    SOD22282   5.680   5.306   1.161 -0.3275  0.3468 -0.3083
  223SOD    SOD22283   5.704   1.941   1.616  0.1780 -0.0475 -0.6127
  224SOD    SOD22284   0.761   0.505   6.099  0.7089 -0.8145  0.0302
  225SOD    SOD22285   1.483   5.345  14.818  0.0631  0.3734 -0.0555
  226SOD    SOD22286   2.475   4.353  12.662 -0.0471  0.0929  0.0778
  227SOD    SOD22287   6.336   2.184   4.700  0.3048  0.1315 -0.1500
  228SOD    SOD22288   5.259   3.882  12.815 -0.1373  0.5967 -0.3191
  229SOD    SOD22289   0.508   6.608  15.531 -0.1539 -0.5076 -0.2445
  230SOD    SOD22290   6.670   3.912  11.855 -0.0287 -0.2532  0.4344
  231SOD    SOD22291   4.236   0.636  11.688 -0.3694 -0.0574  0.0983
  232SOD    SOD22292   0.138   2.543  11.512  0.0730  0.2430  0.2204
  233SOD    SOD22293   3.940   1.925   3.342 -0.5432  0.0239 -0.0148
  234SOD    SOD22294   3.591   1.004  14.664 -0.1194  0.3339  0.1386
  235SOD    SOD22295   6.756   0.154  12.924  0.7831 -0.1492 -0.6659
  236SOD    SOD22296   6.057   1.268  13.901 -0.4657  0.0231  0.2716
  237SOD    SOD22297   4.298   0.825   5.878  0.0188 -0.0805  0.3834
  238SOD    SOD22298   0.962   5.232  12.018  0.0729 -0.2168 -0.2367
  239SOD    SOD22299   3.659   3.714   3.367 -0.4090 -0.6692 -0.4192
  240SOD    SOD22300   2.214   1.776   5.060  0.0964 -0.0667 -0.4174
  241SOD    SOD22301   1.315   4.472   2.695  0.5546 -0.2437 -0.2471
  242SOD    SOD22302   0.705   3.000   6.335  0.8811 -0.2277  0.5067
  243SOD    SOD22303   5.635   4.033   0.031 -0.6356  0.7647  0.1312
  244SOD    SOD22304   2.549   3.480   6.818  0.4626 -0.0953 -0.4367
  245SOD    SOD22305   2.648   3.911  15.016 -0.3197  0.1939 -0.3759
  246SOD    SOD22306   3.925   1.052   3.003  0.3363  0.5078  0.6709
  247SOD    SOD22307   0.577   5.544  12.072 -0.4546 -0.2058 -0.3565
  248SOD    SOD22308   2.690   0.630   6.311  0.2641  0.1469 -0.0588
  249SOD    SOD22309   0.992   1.979  10.625  0.4692 -0.0852  0.5304
  250SOD    SOD22310   1.818   2.944   3.537  0.1789 -0.6381  0.0111
  251SOD    SOD22311   6.209   3.401  16.523  0.0502 -0.0436  0.0080
  252SOD    SOD22312   2.733   4.839   6.095  0.3433 -0.2551  0.0274
  253SOD    SOD22313   3.590   3.489   1.475 -0.2546 -0.4107  0.0279
  254SOD    SOD22314   1.751   6.045   6.253  0.1565 -0.0923 -0.4486
  255SOD    SOD22315   6.427   5.496  12.949 -0.5011 -0.1284 -0.0429
  256SOD    SOD22316   4.503   0.431  12.889 -0.6933 -0.2279 -0.0360
  257SOD    SOD22317   5.023   4.060   6.256 -0.4669  0.4525 -0.5413
  258SOD    SOD22318   3.516   0.709  13.915 -0.1605  0.1420 -0.0662
  259SOD    SOD22319   6.548   3.687   3.822  0.3969 -0.6242 -0.1439
  260SOD    SOD22320   6.642   3.192  11.684 -0.1323  0.4915 -0.1460
  261SOD    SOD22321   6.700   6.467   0.754 -0.3835  0.2429 -0.9897
  262SOD    SOD22322   4.078   1.403  16.352 -0.5262 -0.1368 -0.1971
  263SOD    SOD22323   3.769   3.929  15.301  0.5164  0.1214  0.2010
  264SOD    SOD22324   2.333   4.333   4.123  0.1902 -0.3951  0.0307
  265SOD    SOD22325   2.223   4.551   5.998 -0.0533  0.0991  0.1189
  266SOD    SOD22326   0.968   4.024  10.768 -0.4429 -0.7199  0.4390
  267SOD    SOD22327   1.177   1.924  11.363  0.2247  0.2335 -0.7403
  268SOD    SOD22328   3.188   4.284   4.106  0.6120 -0.2508 -0.3803
  269SOD    SOD22329   0.347   1.268   1.616  0.1804  0.4504 -0.7255
  270CLA    CLA22330   4.620   4.092  13.425 -0.0459  0.0574  0.0317
  271CLA    CLA22331   1.024   1.996   2.643 -0.0151 -0.4571 -0.1558
  272CLA    CLA22332   1.837   6.125   5.999  0.2730 -0.2609  0.1064
  273CLA    CLA22333   2.469   2.555  12.902 -0.0922  0.2304 -0.0790
  274CLA    CLA22334   2.113   4.159   0.154 -0.0505  0.1474 -0.3299
  275CLA    CLA22335   4.418   5.257   1.192 -0.2079  0.3530 -0.6037
  276CLA    CLA22336   4.723   6.131  15.472 -0.3176 -0.2415  0.3507
  277CLA    CLA22337   0.018   1.220  14.768 -0.3060 -0.3714 -0.2843
  278CLA    CLA22338   4.534   4.092  15.231  0.3194  0.6329  0.1699
  279CLA    CLA22339   0.856   6.133  12.843  0.2881  0.4904 -0.1355
  280CLA    CLA22340   0.657   6.460   1.289 -0.5960 -0.0097 -0.0138
  281CLA    CLA22341   5.143   2.702  12.555  0.0905  0.2808  0.2399
  282CLA    CLA22342   5.655   4.665   0.161 -0.5279 -0.4984  0.0304
  283CLA    CLA22343   4.336   3.261   3.832 -0.1238  0.2998  0.1429
  284CLA    CLA22344   2.178   1.695  11.773 -0.1702 -0.4165  0.3102
  285CLA    CLA22345   1.505   5.225  12.952  0.3766  0.2379 -0.1959
  286CLA    CLA22346   3.427   3.129   4.990 -0.1075 -0.2827  0.0858
  287CLA    CLA22347   2.013   4.573  16.008  0.3937 -0.2264  0.1646
  288CLA    CLA22348   1.342   2.184  14.636  0.3481  0.3156 -0.1464
  289CLA    CLA22349   1.828   4.606  13.796 -0.1843  0.0241  0.0819
  290CLA    CLA22350   3.804   4.371   4.273  0.0948  0.1267  0.2570
  291CLA    CLA22351   1.523   4.960   3.462  0.0261 -0.3807  0.0846
  292CLA    CLA22352   6.407   3.835   2.764  0.3567 -0.1274  0.1716
  293CLA    CLA22353   3.697   1.946   3.221 -0.4675 -0.0281  0.0348
  294CLA    CLA22354   3.929   0.600   0.255 -0.4627  0.0955 -0.0637
  295CLA    CLA22355   1.748   3.554   2.891 -0.5638 -0.0391  0.0353
  296CLA    CLA22356   5.150   0.127  12.860  0.1438 -0.3630 -0.0813
  297CLA    CLA22357   0.556   2.318   1.315  0.2940 -0.2021  0.4773
  298CLA    CLA22358   3.124   4.372  13.690 -0.7148 -0.2073  0.5039
  299CLA    CLA22359   2.351   0.498   5.095 -0.1151 -0.1186  0.0367
  300CLA    CLA22360   2.598   3.705   2.358  0.0252 -0.0624 -0.3011
  301CLA    CLA22361   6.724   6.287  12.778 -0.0378 -0.2474  0.2326
  302CLA    CLA22362   6.284   2.116  16.589 -0.1359  0.0239 -0.0094
  303CLA    CLA22363   1.203   2.204  12.386  0.0318 -0.4607  0.0347
  304CLA    CLA22364   1.093   0.180   4.827 -0.3081 -0.3776 -0.1646
  305CLA    CLA22365   6.306   2.761   5.719 -0.1952 -0.2162  0.0350
  306CLA    CLA22366   4.505   2.577   5.292 -0.1643  0.2239 -0.1566
  307CLA    CLA22367   2.094   0.970   0.503 -0.1849 -0.0706 -0.1491
  308CLA    CLA22368   5.054   3.284   0.547 -0.0718 -0.1626  0.1853
  309CLA    CLA22369   2.810   5.648  12.417 -0.2984 -0.0095  0.1903
  310CLA    CLA22370   3.127   4.989   0.078 -0.3271  0.1338 -0.0006
  311CLA    CLA22371   5.819   5.603   4.550  0.0197 -0.2151  0.0292
  312CLA    CLA22372   1.268   2.674   2.918 -0.4017  0.5053  0.5376
  313CLA    CLA22373   3.116   4.142  15.703 -0.0208 -0.0678 -0.2060
  314CLA    CLA22374   5.731   4.176  14.609  0.0290  0.2905 -0.4215
  315CLA    CLA22375   4.984   1.750  15.264  0.1228  0.2331  0.2697
  316CLA    CLA22376   5.638   0.765  14.907 -0.2518 -0.2384  0.1428
  317CLA    CLA22377   0.788   3.996  12.434 -0.0224  0.3764 -0.2727
  318CLA    CLA22378   3.672   2.525  17.168 -0.0438 -0.0294 -0.5373
  319CLA    CLA22379   1.085   0.615   0.231 -0.3279 -0.2808 -0.2077
  320CLA    CLA22380   6.245   3.898  16.786 -0.0152 -0.1455 -0.6324
  321CLA    CLA22381   0.337   1.757   2.883 -0.1079  0.1049 -0.0517
  322CLA    CLA22382   6.472   1.908  11.550 -0.4326 -0.4513 -0.4893
  323TIP3   OH222383   5.048   2.665   1.099  0.2193 -0.5213  0.4078
  323TIP3    H122384   4.997   2.586   1.118 -3.0100  1.7961  1.9000
  323TIP3    H222385   5.072   2.657   1.007  1.4457 -4.0341  0.9899
  324TIP3   OH222386   1.452   1.302   5.526  0.1427  0.2554  0.1008
  324TIP3    H122387   1.462   1.251   5.445 -0.3010 -1.7551  1.2649
  324TIP3    H222388   1.533   1.285   5.574 -1.0811 -1.5129  1.6364
  325TIP3   OH222389   2.025   5.835  15.011  0.6381  0.0027 -0.0381
  325TIP3    H122390   2.116   5.815  15.033  0.6449  0.2510  0.1559
  325TIP3    H222391   2.030   5.878  14.925  0.6529 -0.5138 -0.2980
  326TIP3   OH222392   6.453   4.903  14.672  0.6527  0.2765  0.8096
  326TIP3    H122393   6.442   4.810  14.656  1.7690  0.2311  0.2663
  326TIP3    H222394   6.426   4.945  14.590  1.2941  0.3517  0.6296
  327TIP3   OH222395   2.689   1.638  12.437 -0.3643  0.1696 -0.1046
  327TIP3    H122396   2.649   1.551  12.446 -1.0711  0.5277  0.2061
  327TIP3    H222397   2.627   1.688  12.384 -0.0648  0.5597 -0.0919
  328TIP3   OH222398   0.986   1.413   1.834  0.3240 -0.7868  0.2580
  328TIP3    H122399   0.957   1.347   1.898  1.4016 -0.0616  1.5191
  328TIP3    H222400   0.955   1.496   1.870  1.8794 -0.2527  0.4045
  329TIP3   OH222401   6.098   4.202  11.579  0.6795  0.4680 -0.1163
  329TIP3    H122402   6.079   4.295  11.562  1.4003  0.8250  0.9563
  329TIP3    H222403   6.149   4.203  11.659  1.1827 -0.8310 -0.4134
  330TIP3   OH222404   3.905   6.674  11.019 -0.0271 -0.5003 -0.1935
  330TIP3    H122405   3.951   6.643  10.941  0.4320  0.4959 -0.3250
  330TIP3    H222406   3.814   6.650  11.005 -0.0545  0.2747 -1.3459
  331TIP3   OH222407   2.654   6.591  12.461  0.0918 -0.1916  0.9397
  331TIP3    H122408   2.674   6.668  12.514  0.1781  0.0464  0.5690
  331TIP3    H222409   2.740   6.557  12.436  0.0693  0.8941 -0.7498
  332TIP3   OH222410   6.241   4.636  15.544  0.0561 -0.1148 -0.4238
  332TIP3    H122411   6.325   4.642  15.589  0.2934  2.1426 -1.1241
  332TIP3    H222412   6.263   4.644  15.451 -0.4726 -4.2918 -1.0211
  333TIP3   OH222413   0.070   4.663   3.548  0.1995  0.7874 -0.2882
  333TIP3    H122414   0.139   4.599   3.533 -0.5817  0.1001 -0.9556
  333TIP3    H222415   0.018   4.663   3.468 -1.4270  0.2552  0.7265
  334TIP3   OH222416   4.165   0.740  16.931  0.1795  0.2021  0.0648
  334TIP3    H122417   4.124   0.656  16.909 -0.7508  0.7648 -0.3702
  334TIP3    H222418   4.094   0.791  16.970  0.4713  1.1834 -0.6933
  335TIP3   OH222419   6.309   0.132   0.129  0.5118 -0.2898  0.2355
  335TIP3    H122420   6.343   0.088   0.207  1.0655 -0.1896  0.0555
  335TIP3    H222421   6.354   0.089   0.056 -1.7115 -1.9661 -0.1952
  336TIP3   OH222422   3.471   6.755   3.132  0.4058  0.0344 -0.3942
  336TIP3    H122423   3.407   6.742   3.062  1.0349  1.0296 -1.1747
  336TIP3    H222424   3.550   6.784   3.087  0.8478  0.6155  0.7246
  337TIP3   OH222425   4.978   5.477  13.382 -0.1546  0.2839  0.1668
  337TIP3    H122426   4.936   5.412  13.437  0.6571 -0.0408  0.4118
  337TIP3    H222427   5.018   5.427  13.310 -1.0077  0.6795 -0.5933
  338TIP3   OH222428   5.027   5.203   3.684 -0.2291 -0.8686 -0.1896
  338TIP3    H122429   5.051   5.161   3.767  0.1634 -1.6862 -0.7082
  338TIP3    H222430   5.013   5.295   3.707  1.4378 -0.7725  0.4956
  339TIP3   OH222431   6.076   3.349   0.191  0.1648 -0.3717 -0.1605
  339TIP3    H122432   6.080   3.296   0.270 -0.4749 -3.1211 -1.8837
  339TIP3    H222433   6.125   3.299   0.126 -1.5199  0.5295 -2.2020
  340TIP3   OH222434   6.785   1.871  12.589  0.0349  0.2429 -0.3073
  340TIP3    H122435   6.733   1.794  12.568 -0.9006  0.3679  1.4856
  340TIP3    H222436   6.874   1.847  12.566 -0.3591 -1.0986 -0.4655
  341TIP3   OH222437   2.716   2.047   1.940 -0.1815 -0.3159  0.1062
  341TIP3    H122438   2.771   2.113   1.897 -0.2442 -0.0245  0.4651
  341TIP3    H222439   2.664   2.097   2.003 -0.1432 -0.7288  0.4675
  342TIP3   OH222440   5.996   0.454  11.139  0.3760 -0.4172 -0.0231
  342TIP3    H122441   6.077   0.448  11.089  0.8174 -0.8011  0.7275
  342TIP3    H222442   5.986   0.367  11.179  0.3724  0.0891  1.0815
  343TIP3   OH222443   1.592   3.848  16.551  0.0782  0.7064 -0.0651
  343TIP3    H122444   1.531   3.891  16.610  0.5723 -0.8529  1.6373
  343TIP3    H222445   1.599   3.907  16.476 -3.1420  1.1299 -0.0914
  344TIP3   OH222446   4.495   2.100  15.512  0.4383 -0.2621  0.1263
  344TIP3    H122447   4.497   2.013  15.552  1.7931 -0.2640  0.0649
  344TIP3    H222448   4.529   2.087  15.424  1.7165  0.5058  0.4893
  345TIP3   OH222449   1.334   1.521  16.071 -0.4764 -0.5047 -0.1629
  345TIP3    H122450   1.403   1.458  16.094  0.4871  0.0710 -1.4115
  345TIP3    H222451   1.291   1.540  16.154  0.5154 -1.3105  0.5521
  346TIP3   OH222452   5.866   5.359   2.830  0.6580 -0.0428  0.2962
  346TIP3    H122453   5.854   5.264   2.825 -0.5736  0.0918  0.4322
  346TIP3    H222454   5.879   5.385   2.739 -0.9848 -0.1203  0.0157
  347TIP3   OH222455   2.965   3.632  11.144  0.3416 -0.1786  0.6450
  347TIP3    H122456   2.928   3.608  11.059  0.2892 -1.5948  1.0581
  347TIP3    H222457   3.059   3.616  11.134  0.7195  2.2421 -0.0031
  348TIP3   OH222458   3.053   4.394   3.720  0.9544 -0.1762 -0.6487
  348TIP3    H122459   2.991   4.467   3.713  1.2811  0.3040  1.2412
  348TIP3    H222460   2.999   4.316   3.717  0.4488  0.1892 -1.0844
  349TIP3   OH222461   0.720   1.093  15.413  0.0255  0.1720 -0.5657
  349TIP3    H122462   0.657   1.090  15.342  0.5692 -0.0193 -1.0438
  349TIP3    H222463   0.762   1.007  15.411  0.2276  0.2605 -0.1824
  350TIP3   OH222464   1.668   6.695   0.715  0.3450  0.3225 -0.9256
  350TIP3    H122465   1.752   6.696   0.668  1.5721  2.2385  1.1943
  350TIP3    H222466   1.646   6.602   0.721  2.2827 -0.2226 -1.5607
  351TIP3   OH222467   5.057   5.958   0.966 -1.2877  0.2616  0.0334
  351TIP3    H122468   5.053   5.935   1.059  1.1083  0.3715  0.2181
  351TIP3    H222469   5.080   6.051   0.966  1.8316 -0.4528 -0.6026
  352TIP3   OH222470   4.499   4.791   2.834 -0.5533 -0.3350  0.0553
  352TIP3    H122471   4.414   4.803   2.877 -0.1867  0.1896  0.6323
  352TIP3    H222472   4.534   4.879   2.823 -0.0603 -0.5509 -0.1429
  353TIP3   OH222473   4.143   3.774  15.304 -0.0003 -0.2619  0.1387
  353TIP3    H122474   4.133   3.780  15.209 -0.1080  1.0230  0.2221
  353TIP3    H222475   4.226   3.819  15.323 -0.1756 -0.1601  0.6907
  354TIP3   OH222476   3.793   0.051  16.719 -0.0314 -0.1052 -0.3383
  354TIP3    H122477   3.746  -0.027  16.749  1.5876 -0.7366  0.6048
  354TIP3    H222478   3.759   0.067  16.631  0.1126 -2.2930 -0.8233
  355TIP3   OH222479   2.923   5.543   5.911  0.8346 -0.2156  0.3654
  355TIP3    H122480   2.990   5.517   5.974  1.6818 -0.0553 -0.4476
  355TIP3    H222481   2.840   5.521   5.953  1.3979 -0.4365  1.3787
  356TIP3   OH222482   3.677   0.778   0.211 -0.8827  0.3609 -0.0640
  356TIP3    H122483   3.637   0.836   0.276  2.0188  0.9662  1.2542
  356TIP3    H222484   3.753   0.741   0.256 -0.6120 -1.6428 -2.1067
  357TIP3   OH222485   2.081   0.502  13.791 -0.1617 -0.1291 -0.6122
  357TIP3    H122486   2.003   0.469  13.836 -0.9045  1.8814 -0.3760
  357TIP3    H222487   2.087   0.449  13.711 -0.1177 -2.2147  0.7212
  358TIP3   OH222488   1.795   0.189  14.480  0.1897  0.5203 -0.3452
  358TIP3    H122489   1.836   0.227  14.557 -0.8108 -1.2157  1.0949
  358TIP3    H222490   1.857   0.123  14.449 -0.1348  0.0915 -0.0695
  359TIP3   OH222491   4.284   3.954   0.921  0.3747  0.0354  0.9013
  359TIP3    H122492   4.262   4.019   0.854 -1.0495  2.1175  3.2758
  359TIP3    H222493   4.359   3.906   0.885  0.8666  2.3840 -1.3370
  360TIP3   OH222494   2.314   0.107  11.211 -0.0449 -0.0503  0.9619
  360TIP3    H122495   2.244   0.149  11.261  0.8388  1.2708  1.0876
  360TIP3    H222496   2.334   0.169  11.141  0.1345 -0.9930  0.1630
  361TIP3   OH222497   6.714   3.975   0.387 -0.3294 -0.5315  0.2471
  361TIP3    H122498   6.788   3.952   0.444  0.3345 -1.2631 -0.8802
  361TIP3    H222499   6.672   4.048   0.431  0.6669 -0.5466  1.2595
  362TIP3   OH222500   4.006   3.263   2.214  0.1947 -0.1129  0.4074
  362TIP3    H122501   3.993   3.217   2.132 -1.7558  1.5170 -0.2409
  362TIP3    H222502   4.080   3.323   2.197 -0.4338  0.4766 -0.2890
  363TIP3   OH222503   1.471   0.006  11.121 -0.4813  0.3310 -0.1877
  363TIP3    H122504   1.528  -0.070  11.135  0.0828  0.4539 -1.6824
  363TIP3    H222505   1.383  -0.032  11.112 -0.3111 -0.0799 -0.1400
  364TIP3   OH222506   3.427   2.415   3.266 -0.2348 -0.6309  0.8592
  364TIP3    H122507   3.504   2.446   3.314  0.6228  0.6622 -1.2758
  364TIP3    H222508   3.369   2.491   3.264  0.4512 -0.1285 -1.5371
  365TIP3   OH222509   3.780   2.701  15.756 -0.4510 -0.7489 -0.0713
  365TIP3    H122510   3.703   2.656  15.792  0.3269 -1.8462  0.2663
  365TIP3    H222511   3.854   2.645  15.782  0.3200 -0.4291 -1.5589
  366TIP3   OH222512   1.466   6.728  15.011  0.0187 -0.3437 -0.1179
  366TIP3    H122513   1.404   6.719  15.084  0.2620  0.3963  0.1796
  366TIP3    H222514   1.520   6.649  15.016 -0.0105 -0.3306  0.4597
  367TIP3   OH222515   2.879   2.297   3.313 -0.6348 -0.5236 -0.2681
  367TIP3    H122516   2.972   2.293   3.338 -1.1223 -1.7085  1.4564
  367TIP3    H222517   2.857   2.390   3.317  0.2777 -0.3183  0.0877
  368TIP3   OH222518   6.625   6.309   0.597  0.5484  0.0719  0.3293
  368TIP3    H122519   6.531   6.316   0.582 -0.5015 -2.3009  4.9741
  368TIP3    H222520   6.654   6.240   0.538 -0.4974  1.1341 -1.4572
  369TIP3   OH222521   2.206   2.087  14.603 -0.3043 -0.0877 -0.2980
  369TIP3    H122522   2.183   2.073  14.511 -0.5588  1.6171 -0.5027
  369TIP3    H222523   2.174   2.175  14.623 -0.4924 -0.5529  1.5055
  370TIP3   OH222524   0.278   1.944   5.101 -0.0672 -0.3460 -0.0006
  370TIP3    H122525   0.304   2.036   5.099 -1.9106  0.1800 -0.2397
  370TIP3    H222526   0.219   1.937   5.176  0.8044 -1.5618  0.6024
  371TIP3   OH222527   1.444   3.638   6.669 -0.3643  0.4025  0.1783
  371TIP3    H122528   1.502   3.572   6.631 -1.3318  0.4094 -1.3515
  371TIP3    H222529   1.504   3.701   6.711  0.6851 -0.1168 -0.5087
  372TIP3   OH222530   3.302   0.353   1.504 -0.2583 -0.1425 -0.2691
  372TIP3    H122531   3.255   0.332   1.423 -0.5503 -1.3278  0.1934
  372TIP3    H222532   3.342   0.270   1.531  0.4188  0.3999  0.4262
  373TIP3   OH222533   2.540   2.702  17.016  0.0395  0.3442 -0.0494
  373TIP3    H122534   2.489   2.778  16.989 -0.7766 -0.1886 -0.0372
  373TIP3    H222535   2.583   2.672  16.936  0.7944  1.1415  0.0551
  374TIP3   OH222536   6.544   1.315  13.102  0.3378 -0.2147 -0.1143
  374TIP3    H122537   6.485   1.284  13.034  1.3327 -0.4282 -0.8867
  374TIP3    H222538   6.617   1.354  13.055  0.5227  0.5979  0.8405
  375TIP3   OH222539   1.007   0.658  16.488 -0.2703  0.5753 -0.0609
  375TIP3    H122540   1.072   0.723  16.463  0.2690 -0.1715 -0.5926
  375TIP3    H222541   0.931   0.710  16.515  0.0389  1.4145 -0.8026
  376TIP3   OH222542   1.022   1.544  13.558 -0.0342  0.0339  0.1445
  376TIP3    H122543   1.021   1.589  13.473  1.6574 -1.4180 -0.6643
  376TIP3    H222544   1.044   1.613  13.621 -0.9368  1.0465 -0.6318
  377TIP3   OH222545   3.930   2.014  16.882 -0.3426  0.1844  0.4783
  377TIP3    H122546   3.835   2.024  16.887 -0.6736 -2.0399 -0.6256
  377TIP3    H222547   3.960   2.088  16.829 -1.7329 -0.3713 -1.1152
  378TIP3   OH222548   3.312   0.588   0.943 -0.5556 -0.3624  0.1780
  378TIP3    H122549   3.374   0.556   0.877  0.1572  1.5117 -0.0907
  378TIP3    H222550   3.239   0.624   0.891  0.2372  1.5742  0.3779
  379TIP3   OH222551   1.927   4.148   4.223 -0.6258 -0.9027  0.1966
  379TIP3    H122552   1.975   4.134   4.304  0.3831 -1.2005 -0.4430
  379TIP3    H222553   1.847   4.195   4.250  0.0506 -0.3424  1.2595
  380TIP3   OH222554   5.595   1.572  14.284  0.5046 -0.3171 -0.6284
  380TIP3    H122555   5.600   1.567  14.380 -1.9934 -1.4287 -0.5287
  380TIP3    H222556   5.575   1.664  14.266 -2.9854 -0.8512  0.1776
  381TIP3   OH222557   1.439   6.190   4.268 -0.5482  0.4049  0.2868
  381TIP3    H122558   1.419   6.282   4.248 -1.4398  0.1684  0.0816
  381TIP3    H222559   1.454   6.189   4.363  1.9539  1.2072 -0.0653
  382TIP3   OH222560   1.093   5.291   4.473  0.0374  0.1562 -0.0423
  382TIP3    H122561   1.173   5.238   4.466  0.3220  0.6853 -0.9281
  382TIP3    H222562   1.023   5.226   4.484  0.1441 -0.5800 -3.1471
  383TIP3   OH222563   0.693   0.728   2.124 -0.2155 -0.4713 -0.1173
  383TIP3    H122564   0.629   0.663   2.096  0.3375 -0.6432 -1.0084
  383TIP3    H222565   0.778   0.688   2.106  0.1311  0.5472 -0.8288
  384TIP3   OH222566   6.679   5.928   1.404 -0.4625 -0.1109  0.1247
  384TIP3    H122567   6.713   5.845   1.369 -0.4901 -0.2432  0.4041
  384TIP3    H222568   6.751   5.964   1.456 -0.5018 -0.0353  0.1262
  385TIP3   OH222569   1.929   0.616   3.712 -0.3219  0.3307 -0.3274
  385TIP3    H122570   1.926   0.547   3.778  1.8686  2.4182  2.0469
  385TIP3    H222571   1.892   0.692   3.756  1.3762  1.8156 -1.4332
  386TIP3   OH222572   1.122   1.987  11.148 -0.2207 -0.1274  0.3731
  386TIP3    H122573   1.171   2.048  11.093  0.3197 -0.2301  0.7367
  386TIP3    H222574   1.048   1.960  11.094  0.5073 -0.5139 -0.4481
  387TIP3   OH222575   3.834   4.611  12.327  0.0153  0.4805 -0.2004
  387TIP3    H122576   3.848   4.520  12.353  0.6386  1.0904  1.6635
  387TIP3    H222577   3.767   4.606  12.259 -1.5912 -1.1932  1.4406
  388TIP3   OH222578   6.406   2.587  11.888 -0.6662  0.4579 -0.6111
  388TIP3    H122579   6.326   2.629  11.921  1.1054  2.0850  1.7573
  388TIP3    H222580   6.447   2.654  11.834  1.9050  1.7511  2.7583
  389TIP3   OH222581   0.663   1.242  16.957  0.0623  0.0143 -0.1773
  389TIP3    H122582   0.644   1.200  16.873  0.0243  0.7629 -0.5436
  389TIP3    H222583   0.729   1.308  16.937  0.7352 -0.4308  0.5487
  390TIP3   OH222584   4.005   6.443   3.453  0.1841  0.0427 -0.4596
  390TIP3    H122585   3.928   6.499   3.456  0.5517  0.5148  0.2627
  390TIP3    H222586   3.978   6.362   3.497  0.5921  0.8216  1.2328
  391TIP3   OH222587   5.071   1.455  13.764 -0.2136 -0.4556 -0.1717
  391TIP3    H122588   5.035   1.414  13.686  0.4690  0.0555 -0.7625
  391TIP3    H222589   5.022   1.416  13.836 -0.6646 -1.1286 -0.8306
  392TIP3   OH222590   3.868   5.024   3.148  0.5759 -0.3420 -0.1559
  392TIP3    H122591   3.847   5.106   3.105  2.3525  1.3312  2.0399
  392TIP3    H222592   3.786   4.994   3.187  0.1786  1.0119  0.0538
  393TIP3   OH222593   4.666   3.163  14.783 -0.2048  0.1404 -0.3263
  393TIP3    H122594   4.628   3.167  14.695  1.8482  0.7651 -1.2021
  393TIP3    H222595   4.735   3.097  14.776 -0.5063 -0.3290  1.0211
  394TIP3   OH222596   6.439   6.769  11.854  0.2357 -0.9695 -0.5183
  394TIP3    H122597   6.514   6.710  11.847  1.3384  0.4408 -0.8574
  394TIP3    H222598   6.406   6.777  11.765  0.1162 -1.0345 -0.4810
  395TIP3   OH222599   1.525   3.284   3.454 -0.3312  0.3389 -0.2609
  395TIP3    H122600   1.448   3.328   3.417  0.0190  1.3823  0.2418
  395TIP3    H222601   1.531   3.318   3.543  0.4024 -0.1571 -0.1208
  396TIP3   OH222602   0.086   4.534  14.238  0.5675 -0.8863  0.1021
  396TIP3    H122603   0.144   4.597  14.282  1.6107 -2.3001  0.7763
  396TIP3    H222604  -0.001   4.552  14.274  1.1380 -0.9230  1.5154
  397TIP3   OH222605   2.565   1.014  15.813  0.2875  0.0033  0.2163
  397TIP3    H122606   2.578   0.953  15.885  1.6803  0.5710  0.4570
  397TIP3    H222607   2.546   1.098  15.855  0.1298  0.1176 -0.0831
  398TIP3   OH222608   4.359   3.630   2.949 -0.0463  0.2743 -0.2183
  398TIP3    H122609   4.364   3.589   2.862  0.1046  0.4242 -0.2795
  398TIP3    H222610   4.268   3.615   2.977  0.0122 -0.1234 -0.2316
  399TIP3   OH222611   1.388   3.152  16.377  0.5704  0.6472  0.6376
  399TIP3    H122612   1.339   3.072  16.397  1.1351  0.3368  0.7802
  399TIP3    H222613   1.334   3.198  16.312  0.5899 -0.1837  0.0320
  400TIP3   OH222614   0.765   2.286   1.990  0.6501  0.0037 -0.1771
  400TIP3    H122615   0.724   2.257   2.072 -0.3872  0.6536 -0.4567
  400TIP3    H222616   0.692   2.311   1.934  1.3638 -0.2219 -1.2320
  401TIP3   OH222617   4.204   6.097   4.525 -0.4081 -0.2223  0.3049
  401TIP3    H122618   4.161   6.012   4.537 -2.0228  0.7997  2.0237
  401TIP3    H222619   4.164   6.133   4.446 -1.1789 -0.1866  0.7104
  402TIP3   OH222620   3.907   4.792  12.996  0.3664 -0.4238 -0.8760
  402TIP3    H122621   3.928   4.873  13.041  0.8946 -0.0744 -1.7424
  402TIP3    H222622   3.872   4.735  13.064  2.0898 -0.2658  0.1671
  403TIP3   OH222623   3.616   6.673  15.426  0.0306 -0.3800 -0.3550
  403TIP3    H122624   3.603   6.601  15.489  0.1127 -0.3384 -0.2902
  403TIP3    H222625   3.710   6.688  15.426 -0.0839  0.3388  0.3017
  404TIP3   OH222626   3.903   0.224  15.798  0.4192 -0.1447 -0.8964
  404TIP3    H122627   3.905   0.137  15.837  1.8981 -0.3057 -1.3059
  404TIP3    H222628   3.896   0.208  15.704  2.0652  0.1455 -1.0783
  405TIP3   OH222629   5.460   5.909   5.193 -0.3183 -0.1094  0.2214
  405TIP3    H122630   5.534   5.956   5.231 -1.1513 -0.6911  2.6517
  405TIP3    H222631   5.383   5.961   5.218 -0.8071  0.2633 -1.9112
  406TIP3   OH222632   4.089   4.849  11.863  0.0339 -0.1246  0.1159
  406TIP3    H122633   4.100   4.938  11.897  0.9576 -0.3931  0.5366
  406TIP3    H222634   4.031   4.859  11.788  1.1225  1.0067 -0.6002
  407TIP3   OH222635   4.495   1.077   3.067 -0.3233  0.0520  0.3857
  407TIP3    H122636   4.501   1.171   3.048  0.3734  0.2402  1.4936
  407TIP3    H222637   4.585   1.045   3.057 -0.0115  0.0600  2.7362
  408TIP3   OH222638   4.794   1.312   1.061  0.2895  0.4991 -0.1442
  408TIP3    H122639   4.731   1.321   1.132  0.5243  0.4177  0.0768
  408TIP3    H222640   4.743   1.326   0.981  0.0775  0.8512  0.0516
  409TIP3   OH222641   2.846   0.630   6.485  0.0989 -0.4416 -0.7555
  409TIP3    H122642   2.836   0.559   6.548  2.3784 -0.6927 -0.6109
  409TIP3    H222643   2.934   0.664   6.502  1.0800 -0.9985 -4.2980
  410TIP3   OH222644   4.789   3.469  14.526 -0.3021  0.2776 -0.3767
  410TIP3    H122645   4.850   3.437  14.460 -0.7040  0.0187 -0.6262
  410TIP3    H222646   4.784   3.564  14.511  0.1380  0.3148 -0.2729
  411TIP3   OH222647   6.608   0.318  13.013  0.4140 -0.0161  0.2970
  411TIP3    H122648   6.601   0.414  13.014  0.9752  0.0181  1.2701
  411TIP3    H222649   6.519   0.288  12.994  0.1048  0.6810  0.6374
  412TIP3   OH222650   2.096   2.632   4.840  0.1323  0.3102 -0.2406
  412TIP3    H122651   2.044   2.670   4.770 -0.1686 -0.9292 -0.6861
  412TIP3    H222652   2.170   2.590   4.796 -0.3095 -0.8827  0.1527
  413TIP3   OH222653   3.661   6.223   2.652 -0.6798  0.0405 -0.7798
  413TIP3    H122654   3.608   6.167   2.595  1.7833 -2.0422 -1.0882
  413TIP3    H222655   3.653   6.184   2.738 -0.8119  0.5762 -0.5482
  414TIP3   OH222656   3.254   3.516   4.651  0.4788 -0.0572  0.0810
  414TIP3    H122657   3.308   3.513   4.730 -0.8918 -1.3704  1.0110
  414TIP3    H222658   3.184   3.578   4.671  0.0083 -0.5497 -0.0265
  415TIP3   OH222659   2.501   4.775  10.995  0.0420 -0.0251 -0.2321
  415TIP3    H122660   2.425   4.722  10.972 -1.1454  1.1897  0.8129
  415TIP3    H222661   2.572   4.711  11.008 -1.0648 -1.2495 -0.1175
  416TIP3   OH222662   3.607   3.851  14.065 -0.5371  0.6620 -0.1429
  416TIP3    H122663   3.650   3.768  14.085  1.1232  1.6492  0.4769
  416TIP3    H222664   3.666   3.918  14.100 -2.2144  2.0856  0.0216
  417TIP3   OH222665   3.592   0.013   4.778  0.1776  0.0923  0.5387
  417TIP3    H122666   3.522  -0.026   4.725 -0.5806  2.2412 -0.0792
  417TIP3    H222667   3.664  -0.050   4.773 -1.0845 -1.3183 -0.2607
  418TIP3   OH222668   6.263   5.324  12.960  0.1546  0.0610  0.0610
  418TIP3    H122669   6.224   5.307  13.046 -0.6992 -1.6164 -0.6130
  418TIP3    H222670   6.198   5.289  12.898  2.3167 -2.0058 -1.1274
  419TIP3   OH222671   5.332   6.671  16.825 -0.7825 -0.8538  0.1479
  419TIP3    H122672   5.237   6.675  16.840 -0.4609  0.1252  2.0851
  419TIP3    H222673   5.344   6.595  16.769 -2.5217 -2.1347  1.4619
  420TIP3   OH222674   1.693   2.012   2.301  0.1425  0.0068 -0.2811
  420TIP3    H122675   1.618   2.028   2.359 -0.5819  0.8263 -1.4098
  420TIP3    H222676   1.655   1.974   2.222  0.9774 -0.0132 -0.6798
  421TIP3   OH222677   0.991   4.555  15.421  0.2878  0.2529  0.0609
  421TIP3    H122678   0.900   4.536  15.401  0.2640  2.1232 -1.7457
  421TIP3    H222679   0.993   4.649  15.438  1.7507  0.1016  0.8096
  422TIP3   OH222680   2.483   6.306  16.262 -0.2605  0.8231 -0.5483
  422TIP3    H122681   2.444   6.376  16.209  0.6009  0.9443 -1.0424
  422TIP3    H222682   2.454   6.225  16.219  0.9591  0.9307 -1.6156
  423TIP3   OH222683   5.654   6.695  12.235  0.2527 -0.2326 -0.0328
  423TIP3    H122684   5.707   6.661  12.307 -1.6752 -0.1468  1.4974
  423TIP3    H222685   5.585   6.746  12.279 -1.0694 -0.3360 -1.9374
  424TIP3   OH222686   0.076   4.318   6.621 -0.2275  0.4244 -0.2257
  424TIP3    H122687   0.103   4.408   6.608  0.4429  0.2195 -0.2465
  424TIP3    H222688   0.144   4.265   6.579  0.1498 -0.1316  1.0311
  425TIP3   OH222689   3.258   6.061   1.712 -0.0514 -0.5400  0.2322
  425TIP3    H122690   3.176   6.017   1.733 -0.8572  0.2972 -1.1166
  425TIP3    H222691   3.244   6.099   1.625  1.5650  0.0781  0.2206
  426TIP3   OH222692   1.510   3.404  15.219 -0.1151 -0.2061 -0.8535
  426TIP3    H122693   1.442   3.357  15.172 -1.1964  0.5226 -0.0411
  426TIP3    H222694   1.583   3.410  15.157 -1.7277  1.2915 -2.6476
  427TIP3   OH222695   2.519   6.780  14.156  0.1959 -0.1586  0.2397
  427TIP3    H122696   2.481   6.728  14.227  1.1735 -0.9957  0.1665
  427TIP3    H222697   2.444   6.822  14.114 -0.6865 -1.9669 -0.0522
  428TIP3   OH222698   3.369   2.990   4.166  0.6279 -0.5400 -0.2461
  428TIP3    H122699   3.382   2.991   4.261  1.5149 -0.9832 -0.3593
  428TIP3    H222700   3.422   2.917   4.135 -0.2281 -0.8566 -1.0056
  429TIP3   OH222701   6.371   5.300  16.378 -0.0009 -0.2237  0.5946
  429TIP3    H122702   6.393   5.285  16.286  2.0120  0.8812  0.8750
  429TIP3    H222703   6.275   5.306  16.378  0.0889  2.9863 -1.9888
  430TIP3   OH222704   5.094   2.104  14.471  0.0307 -0.0356  0.2990
  430TIP3    H122705   5.124   2.157  14.544  1.6469 -2.1106  1.2009
  430TIP3    H222706   5.173   2.061  14.438 -1.1180 -1.3847 -0.8038
  431TIP3   OH222707   0.186   5.272  13.418 -0.7694  0.0728 -0.3404
  431TIP3    H122708   0.190   5.354  13.369 -2.7114 -0.9321 -2.2880
  431TIP3    H222709   0.268   5.227  13.398 -0.5194  0.7264 -0.7768
  432TIP3   OH222710   0.135   1.925   5.341 -0.0281  0.1580  0.0884
  432TIP3    H122711   0.072   1.963   5.403 -0.1741  2.1648 -1.2394
  432TIP3    H222712   0.149   1.836   5.373 -1.3150  0.6302  2.0848
  433TIP3   OH222713   1.318   4.449   1.947 -0.2547  1.0485 -0.1495
  433TIP3    H122714   1.261   4.501   1.890 -0.4770 -0.5113 -1.3586
  433TIP3    H222715   1.355   4.382   1.890  0.6087  0.3157  1.2471
  434TIP3   OH222716   2.831   6.183   1.795  0.1510  0.7137 -0.4677
  434TIP3    H122717   2.809   6.177   1.702  1.7853  0.3816 -0.8555
  434TIP3    H222718   2.776   6.118   1.837 -1.2281  1.4647 -1.0765
  435TIP3   OH222719   2.897   2.394   4.751  0.3160  0.1623  0.0869
  435TIP3    H122720   2.939   2.381   4.666 -1.0696  1.4208 -0.8136
  435TIP3    H222721   2.970   2.399   4.813  1.3024 -1.7235 -0.8865
  436TIP3   OH222722   6.553   3.940  12.775 -0.0442  0.4334 -0.7561
  436TIP3    H122723   6.584   3.977  12.692  0.0310 -0.0756 -0.9580
  436TIP3    H222724   6.460   3.958  12.776  0.5802  3.8787  0.8328
  437TIP3   OH222725   1.633   4.329  15.050  0.1543  0.2150  0.0895
  437TIP3    H122726   1.684   4.294  14.976 -0.1734 -1.4613  0.6307
  437TIP3    H222727   1.569   4.386  15.009 -0.5489 -1.3331 -1.0297
  438TIP3   OH222728   2.343   3.750  13.917 -0.1237  0.0250 -0.3191
  438TIP3    H122729   2.298   3.762  13.834 -1.4407 -0.3267  0.3304
  438TIP3    H222730   2.403   3.825  13.923 -0.5388  0.4315 -1.2399
  439TIP3   OH222731   5.808   2.587   2.692 -0.4327 -0.2803 -0.0079
  439TIP3    H122732   5.853   2.586   2.777 -1.9354 -1.3772  0.7884
  439TIP3    H222733   5.837   2.669   2.651 -1.8881  1.6665  2.7471
  440TIP3   OH222734   5.994   0.027  14.997 -0.0972  0.3505  0.3627
  440TIP3    H122735   6.029  -0.056  14.964  0.1742  0.8817 -0.6945
  440TIP3    H222736   6.012   0.090  14.928  1.8843  1.8243  2.1620
  441TIP3   OH222737   1.986   5.914  11.076  0.3916 -0.5886 -0.4436
  441TIP3    H122738   2.041   5.893  11.001 -0.1003 -0.7782 -0.7503
  441TIP3    H222739   1.897   5.917  11.041  0.2698  0.3093 -0.0672
  442TIP3   OH222740   5.365   4.328   2.047 -0.4102  0.0649 -0.4350
  442TIP3    H122741   5.352   4.407   2.099  0.8420 -0.5690  0.8824
  442TIP3    H222742   5.314   4.261   2.094  0.0386 -0.3229 -0.5057
  443TIP3   OH222743   0.215   3.392  16.489  0.0704  0.1789 -0.6039
  443TIP3    H122744   0.154   3.421  16.556 -0.6268 -2.1683 -0.1567
  443TIP3    H222745   0.302   3.410  16.527 -0.3268  0.0591  0.3879
  444TIP3   OH222746   3.984   4.631  11.447 -0.3284 -0.3885 -0.2790
  444TIP3    H122747   4.059   4.653  11.502  0.9004 -1.1941 -1.5937
  444TIP3    H222748   3.942   4.715  11.428  0.7447  0.1516 -0.2440
  445TIP3   OH222749   2.023   1.859   1.003 -0.3748  0.3281  0.1880
  445TIP3    H122750   1.963   1.786   0.991  1.1564 -0.8830 -0.3622
  445TIP3    H222751   2.090   1.826   1.063  1.2854  0.6705 -1.4336
  446TIP3   OH222752   5.441   0.649   3.897 -0.1209 -0.5499  0.7421
  446TIP3    H122753   5.396   0.654   3.812 -0.4024  2.3543  1.0235
  446TIP3    H222754   5.522   0.601   3.878 -0.5936 -0.7012 -0.9900
  447TIP3   OH222755   5.537   3.964  15.182  0.4132  0.3083 -0.1441
  447TIP3    H122756   5.455   3.914  15.179  0.4094  0.2315  1.1796
  447TIP3    H222757   5.516   4.041  15.236  1.2836  0.1575  0.4099
  448TIP3   OH222758   5.542   3.434   1.926 -0.1820 -0.1662  0.5312
  448TIP3    H122759   5.591   3.464   2.002  0.4885 -0.3866  0.1901
  448TIP3    H222760   5.450   3.441   1.952  0.0648 -1.0625  1.6581
  449TIP3   OH222761   4.083   3.101  15.882  0.4789 -0.4072 -0.0269
  449TIP3    H122762   4.173   3.092  15.914 -0.4846 -0.2726  2.7990
  449TIP3    H222763   4.061   3.014  15.850  2.1029 -0.0805 -2.2059
  450TIP3   OH222764   2.820   1.770  16.025 -0.0687  0.3068  0.2666
  450TIP3    H122765   2.826   1.846  15.967  0.2188  0.5927  0.6694
  450TIP3    H222766   2.744   1.789  16.080  0.3184  0.5522  0.7224
  451TIP3   OH222767   0.766   1.454  16.840 -0.1407  0.1201 -0.0812
  451TIP3    H122768   0.814   1.462  16.758 -1.9814 -1.8206 -1.3862
  451TIP3    H222769   0.674   1.461  16.815 -0.7431 -0.9148  1.7719
  452TIP3   OH222770   3.781   5.243   6.010 -0.5224  0.4951  0.2311
  452TIP3    H122771   3.694   5.259   6.048 -1.1492 -1.8812 -0.1228
  452TIP3    H222772   3.826   5.190   6.076  0.9056  2.2877  0.7041
  453TIP3   OH222773   0.404   4.103   4.291  0.3783  0.3691 -0.1936
  453TIP3    H122774   0.322   4.152   4.281  0.7229  1.1489  0.7330
  453TIP3    H222775   0.401   4.069   4.380  0.9175  0.1234 -0.2675
  454TIP3   OH222776   2.390   4.320  13.546 -0.1833 -0.3250  0.2146
  454TIP3    H122777   2.327   4.378  13.503 -0.0695 -0.6291 -0.3694
  454TIP3    H222778   2.469   4.373  13.554  1.4106 -1.7120 -4.3667
  455TIP3   OH222779   3.732   5.751  11.391 -0.2154  0.2827  0.2681
  455TIP3    H122780   3.674   5.732  11.318  1.1018 -0.6054 -0.5851
  455TIP3    H222781   3.809   5.791  11.350 -0.5501  2.1781  1.4531
  456TIP3   OH222782   6.489   4.531  15.939  0.3323  0.3923  0.6361
  456TIP3    H122783   6.482   4.436  15.927 -1.2436  0.5040  0.6208
  456TIP3    H222784   6.582   4.546  15.956  0.3671 -1.3094  2.0899
  457TIP3   OH222785   3.350   1.459   2.112  0.4235  0.1384 -0.2530
  457TIP3    H122786   3.297   1.408   2.173  1.2103 -0.6589 -0.2308
  457TIP3    H222787   3.359   1.545   2.154  1.0971 -0.4507  0.8414
  458TIP3   OH222788   5.436   1.534   0.496  0.4981  0.1601 -0.1398
  458TIP3    H122789   5.384   1.538   0.576  0.2641  1.1097 -0.3340
  458TIP3    H222790   5.374   1.508   0.428  0.7945 -1.1191  0.0578
  459TIP3   OH222791   0.745   6.076  16.211 -0.3265  0.7056  0.5292
  459TIP3    H122792   0.822   6.132  16.218  1.0249 -0.8294 -1.2473
  459TIP3    H222793   0.680   6.129  16.165  0.3107  1.4032  0.4274
  460TIP3   OH222794   0.342   2.615   5.833 -0.2038 -0.0547  0.2616
  460TIP3    H122795   0.413   2.607   5.896 -0.2099 -0.0744  0.2659
  460TIP3    H222796   0.364   2.693   5.782  0.5557 -0.8598 -0.6690
  461TIP3   OH222797   4.283   4.708  13.563 -0.4080  0.3510  0.5532
  461TIP3    H122798   4.350   4.698  13.495 -0.9733  0.3829 -0.0174
  461TIP3    H222799   4.325   4.678  13.643 -0.0966 -0.7814 -0.0236
  462TIP3   OH222800   6.395   6.425   5.480  0.0627 -0.0772  0.3873
  462TIP3    H122801   6.320   6.474   5.445  0.5178 -0.3480 -0.9497
  462TIP3    H222802   6.391   6.340   5.438  0.5620 -0.4454  1.0660
  463TIP3   OH222803   0.028   0.137  13.713 -0.1119  0.6537  0.5305
  463TIP3    H122804  -0.035   0.209  13.715  0.6361  1.2846  1.8001
  463TIP3    H222805   0.034   0.113  13.620 -3.0085 -0.1507  0.5150
  464TIP3   OH222806   0.806   4.641   0.134  0.3384 -0.0943  0.2891
  464TIP3    H122807   0.872   4.642   0.065 -0.1471  0.5180 -0.1744
  464TIP3    H222808   0.762   4.556   0.124 -1.4809  1.0295 -1.8676
  465TIP3   OH222809   2.481   3.513   1.846 -0.0826  0.6190 -0.3613
  465TIP3    H122810   2.534   3.434   1.835  0.1236  0.6915  0.0779
  465TIP3    H222811   2.522   3.558   1.920 -0.6550  0.7644 -0.1354
  466TIP3   OH222812   1.782   1.552  17.062 -0.3244  0.4479  0.3052
  466TIP3    H122813   1.702   1.543  17.114  0.4493  1.6156  1.7325
  466TIP3    H222814   1.848   1.502  17.110 -0.6545 -2.3047 -1.9840
  467TIP3   OH222815   0.572   4.288   3.584 -0.2585 -0.0239 -0.1868
  467TIP3    H122816   0.587   4.381   3.599  0.2296 -0.3259  1.3073
  467TIP3    H222817   0.484   4.283   3.548  0.2522  1.1299 -1.6277
  468TIP3   OH222818   4.006   5.337   5.606  0.7804 -0.0002 -0.1249
  468TIP3    H122819   4.060   5.417   5.611  0.4610  0.3302 -1.6045
  468TIP3    H222820   3.918   5.369   5.585  0.6760 -0.7515 -0.8439
  469TIP3   OH222821   5.403   0.183  13.699  0.0021  0.1917 -0.6427
  469TIP3    H122822   5.491   0.151  13.719 -0.0273  0.5474  0.0374
  469TIP3    H222823   5.416   0.250  13.632  0.3878  1.3275  0.5599
  470TIP3   OH222824   2.179   6.109  11.666  0.0745 -0.5682  0.1625
  470TIP3    H122825   2.199   6.073  11.752  0.3479  0.4765  0.5469
  470TIP3    H222826   2.125   6.042  11.623  1.5880 -1.9570  0.3890
  471TIP3   OH222827   6.291   0.354  14.334  1.0615 -0.4038  0.0575
  471TIP3    H122828   6.370   0.314  14.297 -0.5495 -0.9363 -2.9471
  471TIP3    H222829   6.223   0.288  14.321 -0.2096  0.6706  1.1929
  472TIP3   OH222830   2.013   4.506  15.175 -0.2198 -0.0608  0.1936
  472TIP3    H122831   1.957   4.446  15.224  1.5742  0.5512  3.1196
  472TIP3    H222832   1.996   4.592  15.215  2.9566  0.0908  1.3485
  473TIP3   OH222833   1.115   6.277   1.481 -0.0470  0.2042  0.6746
  473TIP3    H122834   1.137   6.279   1.574  0.0154  0.0664  0.6631
  473TIP3    H222835   1.196   6.304   1.437  0.4440 -1.3836  0.5778
  474TIP3   OH222836   0.686   6.078  17.081 -0.0297 -0.1646 -0.0579
  474TIP3    H122837   0.654   6.108  17.166  0.8269  1.3957 -0.2695
  474TIP3    H222838   0.714   5.987  17.097 -1.6944 -0.5408  0.8402
  475TIP3   OH222839   1.666   2.032   4.056  0.0228 -0.2761  0.3208
  475TIP3    H122840   1.728   2.076   4.113 -0.8553  1.3213  0.0615
  475TIP3    H222841   1.580   2.056   4.091 -0.5524  1.3734 -2.0933
  476TIP3   OH222842   5.065   2.006   5.386 -0.1789  0.3765  0.5815
  476TIP3    H122843   5.082   2.039   5.474  0.0368  0.1257  0.6352
  476TIP3    H222844   5.120   2.059   5.329  1.1907 -0.7845  0.8113
  477TIP3   OH222845   5.918   0.480   4.694 -0.2732 -0.8506 -0.9097
  477TIP3    H122846   5.901   0.405   4.638 -0.0871  0.6065 -2.9899
  477TIP3    H222847   5.886   0.555   4.645  0.9286  0.6078  0.4445
  478TIP3   OH222848   1.358   6.058   4.742  0.4417  0.4055 -0.1947
  478TIP3    H122849   1.368   6.110   4.662  1.3398 -1.9104 -1.6310
  478TIP3    H222850   1.440   6.074   4.790  0.1349  1.3632  0.0307
  479TIP3   OH222851   4.702   1.895  16.995 -0.8028  0.2750  0.0292
  479TIP3    H122852   4.692   1.813  17.044  1.3274  0.6702  1.2182
  479TIP3    H222853   4.749   1.869  16.915 -1.4763  0.1084 -0.3156
  480TIP3   OH222854   2.048   5.757   3.314  0.7740  0.1123 -0.0396
  480TIP3    H122855   2.141   5.732   3.319  1.1884  1.6022 -0.1650
  480TIP3    H222856   2.048   5.851   3.330 -0.5980  0.3282 -1.2962
  481TIP3   OH222857   4.173   4.123  12.291 -0.2616 -0.6760  0.1906
  481TIP3    H122858   4.169   4.165  12.377  0.4973 -0.6191  0.1999
  481TIP3    H222859   4.264   4.130  12.265 -0.3673 -1.2489 -0.3463
  482TIP3   OH222860   1.502   1.248   1.650  0.1562 -0.1168 -0.0247
  482TIP3    H122861   1.572   1.313   1.657 -0.2346  0.3646 -0.5735
  482TIP3    H222862   1.421   1.299   1.657 -0.1459 -0.5864 -0.0766
  483TIP3   OH222863   6.243   0.759   5.373 -0.3025 -0.0954 -0.4187
  483TIP3    H122864   6.156   0.782   5.342 -0.3223 -1.5016 -1.4592
  483TIP3    H222865   6.303   0.798   5.309 -0.3052 -1.9733 -1.6171
  484TIP3   OH222866   1.127   5.871  12.928 -0.1536 -0.0689 -0.2893
  484TIP3    H122867   1.216   5.837  12.934  0.0647  0.6279  0.5847
  484TIP3    H222868   1.089   5.826  12.852  0.3414 -1.7114  0.4242
  485TIP3   OH222869   2.846   0.589   1.334 -0.1297  0.3399  0.9746
  485TIP3    H122870   2.787   0.618   1.265  0.4945 -0.0770  0.2505
  485TIP3    H222871   2.877   0.503   1.304 -0.0056  0.0590  1.8720
  486TIP3   OH222872   0.512   3.173  15.576 -0.5487 -0.2329  0.5167
  486TIP3    H122873   0.432   3.197  15.529 -1.7176 -1.0081  2.0651
  486TIP3    H222874   0.542   3.255  15.615 -0.1098  0.2228 -0.7386
  487TIP3   OH222875   1.020   5.680   0.429 -0.8141  0.3562  0.2292
  487TIP3    H122876   1.004   5.755   0.372 -0.0801  0.4321  0.1159
  487TIP3    H222877   0.947   5.621   0.411 -0.9372  0.6638 -0.3156
  488TIP3   OH222878   4.081   3.391   0.261 -0.0109  0.2992  0.2005
  488TIP3    H122879   4.165   3.345   0.263  0.0996  0.4425 -0.7425
  488TIP3    H222880   4.062   3.411   0.353  0.2756 -1.0068  0.5525
  489TIP3   OH222881   4.369   6.644   2.262 -0.4082 -0.6538 -0.0215
  489TIP3    H122882   4.444   6.704   2.267  2.3094 -3.6729 -2.1748
  489TIP3    H222883   4.348   6.625   2.353  0.7577  1.0383  0.6484
  490TIP3   OH222884   3.446   0.847  12.836 -0.7027  0.2778 -0.0138
  490TIP3    H122885   3.427   0.846  12.929 -0.0190 -1.0376  0.1176
  490TIP3    H222886   3.460   0.940  12.816 -0.0965  0.4941  1.3487
  491TIP3   OH222887   2.498   1.440   6.667  0.1077  0.8122  0.4854
  491TIP3    H122888   2.582   1.422   6.709 -0.1129  1.1542  1.0705
  491TIP3    H222889   2.519   1.447   6.574  0.4548 -0.7808  0.4399
  492TIP3   OH222890   5.983   4.444  11.944 -0.2464  0.2236 -0.4540
  492TIP3    H122891   6.067   4.465  11.984 -0.3670 -0.3272  0.1006
  492TIP3    H222892   5.963   4.355  11.975 -2.4741  1.4706  1.9436
  493TIP3   OH222893   1.069   4.949   2.590  0.4731  0.1062 -0.5119
  493TIP3    H122894   1.094   4.940   2.498 -1.4193  1.3641 -1.1849
  493TIP3    H222895   1.009   4.876   2.605  1.4528 -0.6042 -0.0212
  494TIP3   OH222896   2.037   2.652   0.619 -0.5732  0.1585 -0.6448
  494TIP3    H122897   2.049   2.585   0.552 -1.5195 -1.5525  0.8442
  494TIP3    H222898   2.120   2.653   0.667 -1.1324 -1.2053  0.4020
  495TIP3   OH222899   1.415   0.538   3.374 -0.5254  0.2054 -0.6919
  495TIP3    H122900   1.492   0.544   3.318 -0.1504  3.3696  0.0336
  495TIP3    H222901   1.433   0.465   3.433  2.2417  1.2615 -0.1304
  496TIP3   OH222902   6.474   3.546   3.624  0.3131 -0.0196 -0.4254
  496TIP3    H122903   6.389   3.522   3.588 -0.2431  1.1356  0.0751
  496TIP3    H222904   6.530   3.557   3.547 -0.1344 -0.2653 -0.7871
  497TIP3   OH222905   1.164   4.230  15.357  0.1657  0.8695 -0.3512
  497TIP3    H122906   1.190   4.183  15.278 -0.2083 -0.4262  0.2860
  497TIP3    H222907   1.155   4.162  15.424  0.0778  1.9021  0.7072
  498TIP3   OH222908   0.475   3.589   3.454  0.5473 -0.6228 -0.3402
  498TIP3    H122909   0.533   3.547   3.390 -0.4032  1.9371 -2.9657
  498TIP3    H222910   0.441   3.666   3.409 -1.1132  0.6068  2.8607
  499TIP3   OH222911   2.855   6.050   4.779 -0.2504 -0.0413 -0.1423
  499TIP3    H122912   2.827   6.039   4.688 -0.6646 -2.3343  0.2355
  499TIP3    H222913   2.911   5.975   4.797  1.0622  1.1990  1.0522
  500TIP3   OH222914   3.760   2.424   4.889 -0.8029  0.7779  0.4237
  500TIP3    H122915   3.700   2.449   4.818 -0.3121 -1.8447 -0.9991
  500TIP3    H222916   3.703   2.385   4.955 -1.0857  1.8031  0.7953
  501TIP3   OH222917   6.433   4.453   1.867  0.3698  0.4386 -0.0203
  501TIP3    H122918   6.395   4.415   1.788 -0.5476  1.2710  0.0049
  501TIP3    H222919   6.372   4.523   1.891  0.2083 -0.3426  1.8880
  502TIP3   OH222920   1.966   5.858  14.505  0.0849 -0.2399 -0.3551
  502TIP3    H122921   1.889   5.833  14.556  0.1642  1.5498  0.6691
  502TIP3    H222922   2.033   5.793  14.528 -0.5900 -0.7874  0.0546
  503TIP3   OH222923   5.303   5.342  16.529 -0.0967 -0.5264  0.1329
  503TIP3    H122924   5.263   5.324  16.614 -1.4910  0.9571 -0.1832
  503TIP3    H222925   5.352   5.423  16.542 -0.3332 -0.2789 -0.4729
  504TIP3   OH222926   6.526   1.775  11.818  0.6265 -0.2518  0.3877
  504TIP3    H122927   6.509   1.791  11.725  0.7936 -1.1746  0.2009
  504TIP3    H222928   6.461   1.828  11.863 -0.2103 -0.7077 -0.2760
  505TIP3   OH222929   3.061   3.338  14.658  0.1679  0.1757  0.7316
  505TIP3    H122930   2.990   3.362  14.598 -0.8028 -0.5988  1.5463
  505TIP3    H222931   3.128   3.301  14.602 -0.3066  0.4028  0.0089
  506TIP3   OH222932   6.048   3.093   5.644 -0.2239  0.0057  0.2359
  506TIP3    H122933   6.126   3.145   5.625  0.2910 -0.8273  0.0549
  506TIP3    H222934   6.060   3.013   5.594  0.2162 -1.4114  2.5402
  507TIP3   OH222935   0.736   4.474  12.650 -0.2812  1.1565  0.2515
  507TIP3    H122936   0.788   4.428  12.716 -0.0513  1.9217  0.5996
  507TIP3    H222937   0.659   4.419  12.637 -0.0068  0.6736  0.6674
  508TIP3   OH222938   5.187   2.067   4.831 -0.0469  0.5668 -0.1028
  508TIP3    H122939   5.153   2.140   4.780 -0.2296 -0.5507 -1.6335
  508TIP3    H222940   5.127   2.060   4.905 -1.8185  0.1131 -1.5299
  509TIP3   OH222941   4.295   2.684   0.488 -0.0137  0.0742  0.2108
  509TIP3    H122942   4.202   2.704   0.477  0.1852  0.2595 -1.2517
  509TIP3    H222943   4.341   2.760   0.452  0.7136 -0.0010  0.9413
  510TIP3   OH222944   5.208   2.243   6.817  0.1565  0.7200  0.1776
  510TIP3    H122945   5.154   2.274   6.744  2.0322  0.3814 -1.3748
  510TIP3    H222946   5.205   2.147   6.810  1.8711  0.7182 -0.6018
  511TIP3   OH222947   2.516   0.329   4.757 -0.5432 -0.0748  0.2595
  511TIP3    H122948   2.584   0.396   4.746 -0.1236 -0.5806 -0.2979
  511TIP3    H222949   2.560   0.258   4.805 -1.0701  0.1795  1.1176
  512TIP3   OH222950   2.823   3.557  15.968  0.2282 -0.2454  0.1056
  512TIP3    H122951   2.768   3.573  15.891  3.3827  2.2628 -1.7440
  512TIP3    H222952   2.760   3.542  16.039 -2.8059  0.5869 -2.2701
  513TIP3   OH222953   3.679   4.025   2.695 -0.0476 -0.3892  0.3930
  513TIP3    H122954   3.586   4.041   2.709 -0.0273 -0.2267  0.3383
  513TIP3    H222955   3.724   4.090   2.747  0.0790 -2.2478  2.6830
  514TIP3   OH222956   0.616   0.629   6.231  0.1561  0.4660 -0.2539
  514TIP3    H122957   0.646   0.689   6.299  0.9957 -0.7508  0.4785
  514TIP3    H222958   0.521   0.640   6.229  0.0374 -0.0003  1.6494
  515TIP3   OH222959   6.163   2.891  16.357 -0.2435  0.3101 -0.5451
  515TIP3    H122960   6.088   2.949  16.344 -0.3756 -0.0208 -1.2995
  515TIP3    H222961   6.215   2.934  16.424 -2.1148 -0.4449  1.4452
  516TIP3   OH222962   2.774   4.138  15.735 -0.1242 -0.4163  0.0538
  516TIP3    H122963   2.868   4.130  15.720  0.0757  2.1001 -0.3388
  516TIP3    H222964   2.735   4.120  15.650  0.0806 -0.2605 -0.0745
  517TIP3   OH222965   3.218   3.721   6.268  0.3127 -0.3186 -0.1228
  517TIP3    H122966   3.284   3.652   6.262 -0.6678 -1.2795  0.0298
  517TIP3    H222967   3.172   3.703   6.350 -0.7076 -0.1818 -0.6608
  518TIP3   OH222968   1.726   4.918   2.540  0.0723 -0.4097  0.3861
  518TIP3    H122969   1.767   4.955   2.462 -0.1043  0.2920  0.6201
  518TIP3    H222970   1.708   4.994   2.596 -0.0931 -0.8732  0.9705
  519TIP3   OH222971   0.627   3.056  14.904 -0.1380 -0.5961 -0.1686
  519TIP3    H122972   0.687   3.078  14.976 -1.0089  0.4525  0.2444
  519TIP3    H222973   0.652   3.116  14.834 -1.8384  1.0702  0.6088
  520TIP3   OH222974   2.173   4.709  13.209 -0.5544  0.1352  0.0541
  520TIP3    H122975   2.117   4.639  13.175 -2.4591  1.3318  0.6776
  520TIP3    H222976   2.123   4.789  13.195  1.4476  1.3675 -0.3160
  521TIP3   OH222977   5.449   0.562   1.803 -0.1708 -0.2420 -0.2579
  521TIP3    H122978   5.533   0.517   1.801  1.6504  2.9667  1.1366
  521TIP3    H222979   5.440   0.601   1.716 -0.0827 -0.3439 -0.3127
  522TIP3   OH222980   1.373   6.488   1.520 -0.6674 -0.0846  0.1363
  522TIP3    H122981   1.458   6.532   1.516 -1.1262  0.7839 -0.3377
  522TIP3    H222982   1.357   6.459   1.430 -0.5922 -0.7909  0.3500
  523TIP3   OH222983   3.901   4.641   1.405  0.1239 -0.1915  0.4874
  523TIP3    H122984   3.973   4.580   1.397 -1.0463 -1.4854 -0.3931
  523TIP3    H222985   3.940   4.727   1.390  1.6377 -0.7942  0.9737
  524TIP3   OH222986   3.493   5.071  15.950  0.0520 -0.7039  0.1912
  524TIP3    H122987   3.569   5.122  15.979 -0.0813 -0.8276  0.7650
  524TIP3    H222988   3.492   5.082  15.855  0.9877 -0.9759  0.1455
  525TIP3   OH222989   4.352   5.344   3.103 -0.0337  0.0262 -0.0613
  525TIP3    H122990   4.329   5.382   3.188 -2.8551  1.5189 -1.4134
  525TIP3    H222991   4.268   5.318   3.065  1.0270  0.8254 -3.0612
  526TIP3   OH222992   0.764   2.753  13.888 -0.1796  0.1952 -0.0497
  526TIP3    H122993   0.676   2.786  13.871 -0.0151 -0.0419 -1.3986
  526TIP3    H222994   0.751   2.673  13.939 -0.7803 -0.2625 -0.9127
  527TIP3   OH222995   2.885   6.735  15.342  0.0649 -0.4361  0.4755
  527TIP3    H122996   2.933   6.698  15.268 -2.3337 -0.2791 -1.2494
  527TIP3    H222997   2.798   6.695  15.336 -0.6406  0.7771  2.2852
  528TIP3   OH222998   2.561   2.945  10.781  0.4926  0.3427 -0.5273
  528TIP3    H122999   2.489   2.892  10.746  0.8686 -1.1769  0.9506
  528TIP3    H223000   2.639   2.911  10.738  0.8485 -0.9679  1.0717
  529TIP3   OH223001   2.880   4.421   1.437  0.0557  0.1054 -0.0293
  529TIP3    H123002   2.878   4.326   1.449  0.0247  0.2765  1.3852
  529TIP3    H223003   2.841   4.435   1.351  0.1571 -1.1705 -0.2920
  530TIP3   OH223004   1.968   0.588  17.013  0.6324 -0.0437 -0.2765
  530TIP3    H123005   1.887   0.631  17.041  0.6337 -0.3087  0.1526
  530TIP3    H223006   2.021   0.584  17.093  0.9963 -0.0283 -0.5175
  531TIP3   OH223007   2.786   2.362  11.425 -0.1538 -0.0266 -0.2931
  531TIP3    H123008   2.818   2.449  11.400  0.2537 -0.3593 -0.9457
  531TIP3    H223009   2.797   2.309  11.346  1.3200 -1.1352  0.6250
  532TIP3   OH223010   2.917   1.393  14.236  0.0817 -0.4039  0.5040
  532TIP3    H123011   2.827   1.360  14.226 -0.1965  0.6483 -0.5049
  532TIP3    H223012   2.908   1.472  14.289  0.2096  0.6585 -1.0395
  533TIP3   OH223013   5.943   0.757   5.365 -0.3310 -0.9997  0.2574
  533TIP3    H123014   5.916   0.683   5.419 -1.3468 -1.1323 -0.4228
  533TIP3    H223015   5.947   0.831   5.426 -0.3853 -1.3734  0.7198
  534TIP3   OH223016   2.994   3.653  16.307  0.6825  0.0067 -0.1297
  534TIP3    H123017   3.037   3.572  16.335 -0.2704 -0.9556 -1.3769
  534TIP3    H223018   3.043   3.682  16.231 -0.6186 -0.8985 -1.3357
  535TIP3   OH223019   3.402   3.964  17.052 -0.8973  0.0009 -0.1824
  535TIP3    H123020   3.432   4.051  17.025  0.5271  0.2433  1.9712
  535TIP3    H223021   3.472   3.905  17.024 -2.1987 -0.6044 -2.2980
  536TIP3   OH223022   5.050   4.246  10.992  0.1641 -0.1290 -0.3025
  536TIP3    H123023   4.985   4.178  11.006  0.8730 -0.5636  0.9742
  536TIP3    H223024   5.016   4.322  11.038 -0.7400  0.4631 -1.9251
  537TIP3   OH223025   0.476   1.886  14.296  0.0892  0.5834 -0.6434
  537TIP3    H123026   0.445   1.953  14.236 -1.2851  0.4784 -0.0681
  537TIP3    H223027   0.423   1.809  14.276 -1.2856  0.9121  1.5486
  538TIP3   OH223028   3.230   1.502  15.656  0.5032  0.3936  0.7935
  538TIP3    H123029   3.298   1.439  15.632 -1.6878 -1.8836  0.2441
  538TIP3    H223030   3.169   1.451  15.710 -1.4583  1.9875  0.1551
  539TIP3   OH223031   3.362   5.405  17.160 -0.1140 -0.0727 -0.3113
  539TIP3    H123032   3.420   5.481  17.173 -0.2228  0.2199 -1.5544
  539TIP3    H223033   3.412   5.332  17.197 -0.5713  0.7909  2.1498
  540TIP3   OH223034   3.762   2.681   1.305  0.2925 -0.5973  0.1859
  540TIP3    H123035   3.695   2.701   1.371 -1.2694 -2.3509 -0.8008
  540TIP3    H223036   3.788   2.766   1.270 -1.5442  0.1192  0.5007
  541TIP3   OH223037   2.986   6.662  14.801  0.2690 -0.3224  0.0053
  541TIP3    H123038   2.924   6.606  14.847  0.9110 -0.4099  0.7775
  541TIP3    H223039   2.936   6.698  14.728 -0.8100 -0.0687  0.8429
  542TIP3   OH223040   2.382   6.470  14.788 -0.4287  0.1947 -0.5308
  542TIP3    H123041   2.404   6.386  14.747  0.1830 -0.2481  0.6905
  542TIP3    H223042   2.462   6.523  14.779 -1.2979  1.2282 -2.6733
  543TIP3   OH223043   1.228   3.689   1.969  0.2521 -0.0001  0.0174
  543TIP3    H123044   1.265   3.677   2.056 -0.2421 -0.4036  0.1721
  543TIP3    H223045   1.261   3.775   1.940  3.6737 -1.5763 -1.0215
  544TIP3   OH223046   2.851   0.184  14.939  0.0380 -0.6625  0.8101
  544TIP3    H123047   2.869   0.185  15.033  0.3077 -0.7218  0.7605
  544TIP3    H223048   2.932   0.216  14.899 -0.3584  0.1336  0.6424
  545TIP3   OH223049   3.901   4.142  14.950 -0.8603 -0.5530  0.2153
  545TIP3    H123050   3.825   4.164  14.896 -2.0330  1.9988  2.7303
  545TIP3    H223051   3.976   4.152  14.893 -2.0363  2.3312 -0.8974
  546TIP3   OH223052   0.887   2.902   0.004  0.0837 -0.2732  0.2205
  546TIP3    H123053   0.922   2.822  -0.035 -0.0958  0.3919 -1.3482
  546TIP3    H223054   0.795   2.883   0.019  0.4806 -1.0604  1.7742
  547TIP3   OH223055   3.664   6.232  15.004 -0.1433  0.1198 -0.3212
  547TIP3    H123056   3.726   6.160  14.992  1.6756  1.9432 -2.3234
  547TIP3    H223057   3.684   6.265  15.091  2.3766  1.2265 -1.2581
  548TIP3   OH223058   4.028   1.082   1.631  0.3431  0.2465 -0.0112
  548TIP3    H123059   4.062   1.002   1.670  0.0785  0.1428  0.0057
  548TIP3    H223060   4.062   1.082   1.542 -1.7631 -1.1772 -0.8430
  549TIP3   OH223061   0.298   3.181   4.349 -0.7591 -0.5985  0.2093
  549TIP3    H123062   0.260   3.268   4.358 -1.8618 -0.8847 -1.3082
  549TIP3    H223063   0.391   3.193   4.367 -0.6293  1.2074 -1.4270
  550TIP3   OH223064   1.277   2.859   1.188 -0.4166 -0.0352 -0.3507
  550TIP3    H123065   1.341   2.787   1.185 -0.1830  0.1870 -0.7686
  550TIP3    H223066   1.255   2.868   1.281  1.1041  0.7133 -0.0383
  551TIP3   OH223067   2.298   6.004  16.306  0.3910  0.3044 -0.1068
  551TIP3    H123068   2.232   6.012  16.375  0.2869  0.9463 -0.2784
  551TIP3    H223069   2.375   5.970  16.352  0.1557  0.2099  0.2224
  552TIP3   OH223070   5.585   4.528   5.245  0.0412  0.3931 -0.2186
  552TIP3    H123071   5.595   4.619   5.271 -0.0008  0.3075  0.0906
  552TIP3    H223072   5.668   4.486   5.270 -0.1377  0.2322  0.1079
  553TIP3   OH223073   1.316   1.162   3.873 -0.1976 -0.5144 -0.2626
  553TIP3    H123074   1.270   1.155   3.957 -0.5759 -0.3164 -0.4566
  553TIP3    H223075   1.289   1.246   3.838  0.1496 -0.4912 -0.4757
  554TIP3   OH223076   0.324   1.753  12.718  0.2227 -1.0608 -0.2390
  554TIP3    H123077   0.412   1.717  12.718  0.1355 -1.3031  1.1921
  554TIP3    H223078   0.331   1.835  12.669  1.2331 -1.0877 -0.1412
  555TIP3   OH223079   4.328   6.566  12.528 -0.0801 -0.0281 -0.1779
  555TIP3    H123080   4.252   6.530  12.481  1.0740 -1.9913 -0.5827
  555TIP3    H223081   4.362   6.492  12.578  1.0507  1.0769  0.7106
  556TIP3   OH223082   5.834   0.797  16.787  0.0115 -0.0936  0.0100
  556TIP3    H123083   5.838   0.777  16.880 -0.1382 -2.2706 -0.4432
  556TIP3    H223084   5.926   0.797  16.759 -0.0725 -1.7465 -0.3076
  557TIP3   OH223085   3.933   1.332  12.832  0.3617 -0.3937 -0.0259
  557TIP3    H123086   3.992   1.353  12.760 -0.1338 -1.9047 -0.8926
  557TIP3    H223087   3.991   1.320  12.907  0.9756  0.2120 -0.3979
  558TIP3   OH223088   3.890   1.809   2.613 -0.2442 -0.2827 -0.3351
  558TIP3    H123089   3.879   1.903   2.599  1.1228  0.0443  0.6620
  558TIP3    H223090   3.966   1.785   2.560 -1.1599 -1.0258 -1.3334
  559TIP3   OH223091   6.227   4.231  12.150 -0.7413  0.3003 -0.5074
  559TIP3    H123092   6.135   4.244  12.126 -0.6871 -1.9510 -2.0632
  559TIP3    H223093   6.239   4.136  12.148  0.9649  0.4090  2.2731
  560TIP3   OH223094   5.406   4.842   1.826  0.0259 -0.6380  0.9041
  560TIP3    H123095   5.460   4.846   1.906  0.3145 -0.4535  0.7025
  560TIP3    H223096   5.453   4.781   1.769 -0.2586 -0.8814  0.9354
  561TIP3   OH223097   5.751   5.476  16.924 -0.1271  0.0077  0.2503
  561TIP3    H123098   5.715   5.474  17.013 -0.6348  3.3230  0.1937
  561TIP3    H223099   5.842   5.448  16.934  0.1636  1.4925  2.0291
  562TIP3   OH223100   3.791   1.445   1.724  0.5300 -0.1222 -0.0438
  562TIP3    H123101   3.719   1.428   1.786 -1.2731 -1.4506 -2.3796
  562TIP3    H223102   3.795   1.540   1.717 -1.2218 -0.0183 -0.0470
  563TIP3   OH223103   2.729   6.330  13.320  0.3595 -0.0007 -0.5439
  563TIP3    H123104   2.748   6.294  13.233  1.1812 -1.4432  0.2273
  563TIP3    H223105   2.633   6.335  13.322  0.2509 -1.5209 -0.9282
  564TIP3   OH223106   2.031   1.036   2.510 -0.1577 -0.0903  0.1183
  564TIP3    H123107   1.950   0.999   2.476  0.0419  1.3790 -2.0863
  564TIP3    H223108   2.095   1.021   2.440  0.4906  2.2841  0.1790
  565TIP3   OH223109   4.396   6.725   1.206  0.0738 -0.3091  0.7377
  565TIP3    H123110   4.459   6.712   1.277 -0.3781 -1.0884  1.0055
  565TIP3    H223111   4.449   6.754   1.132  0.6996 -0.6172  1.0575
  566TIP3   OH223112   0.005   4.818  11.309  0.4831  0.0236  0.4623
  566TIP3    H123113   0.013   4.877  11.235  0.2513 -0.4951  0.0250
  566TIP3    H223114  -0.001   4.876  11.385 -0.0218  0.5657  0.0148
  567TIP3   OH223115   4.811   5.845   4.900  0.0752  0.1828  0.1370
  567TIP3    H123116   4.820   5.788   4.824  2.8967  0.7657 -0.0258
  567TIP3    H223117   4.868   5.807   4.967 -1.5489  0.2758  1.6169
  568TIP3   OH223118   5.909   2.417   3.787  0.1063  0.5214 -0.4486
  568TIP3    H123119   5.945   2.463   3.711 -0.1562  2.0517  0.3550
  568TIP3    H223120   5.830   2.374   3.753  0.7333  0.0768 -1.3618
  569TIP3   OH223121   0.637   4.172  12.101  0.3525 -0.1284  0.0471
  569TIP3    H123122   0.587   4.155  12.021 -0.5727  0.1044  0.5759
  569TIP3    H223123   0.722   4.202  12.070 -0.4621  1.3122 -0.8590
  570TIP3   OH223124   3.755   2.191  16.082 -0.2350 -0.0253 -0.1524
  570TIP3    H123125   3.762   2.154  16.170  0.1993  0.0504 -0.1557
  570TIP3    H223126   3.727   2.117  16.028 -1.2234  0.0997  0.1741
  571TIP3   OH223127   1.228   1.515   1.230  0.1947 -0.1465  0.4905
  571TIP3    H123128   1.210   1.568   1.152  0.4576  1.2486  1.3625
  571TIP3    H223129   1.164   1.444   1.226 -0.3933  0.4287 -0.5191
  572TIP3   OH223130   6.762   6.156   5.318 -0.0598 -0.1694 -0.3727
  572TIP3    H123131   6.828   6.163   5.387  1.1233 -1.8593 -1.2861
  572TIP3    H223132   6.695   6.098   5.355 -1.0203  1.4749  0.5212
  573TIP3   OH223133   2.910   1.475  16.628 -0.2397 -0.2136 -0.0944
  573TIP3    H123134   2.992   1.440  16.594 -1.4289 -2.7544 -0.3972
  573TIP3    H223135   2.880   1.535  16.560  0.7822 -0.1307 -0.4832
  574TIP3   OH223136   3.498   6.301   2.372  0.1111 -0.5060 -0.2942
  574TIP3    H123137   3.577   6.355   2.364  0.1997 -0.2850  1.7600
  574TIP3    H223138   3.531   6.211   2.380  0.1970 -0.3446  1.2411
  575TIP3   OH223139   5.536   6.090  16.701  0.5893 -0.5128 -0.6141
  575TIP3    H123140   5.492   6.175  16.709  1.1221 -0.2610 -0.3788
  575TIP3    H223141   5.550   6.061  16.791 -0.4991 -1.3254 -0.6843
  576TIP3   OH223142   3.241   4.997  14.107  0.4318 -0.5350  0.0392
  576TIP3    H123143   3.241   4.911  14.063 -0.4857 -0.9035  0.7471
  576TIP3    H223144   3.174   5.047  14.060  1.7158  0.1696 -1.0708
  577TIP3   OH223145   0.279   2.427   1.962  0.4416 -0.2545 -0.5253
  577TIP3    H123146   0.366   2.387   1.962  0.3838 -0.3981  0.7379
  577TIP3    H223147   0.258   2.438   1.869  1.9522  0.1154 -0.8387
  578TIP3   OH223148   6.296   1.631   5.343  0.3069  0.2060 -0.0827
  578TIP3    H123149   6.288   1.563   5.409  1.6007  1.0707  0.9915
  578TIP3    H223150   6.220   1.618   5.286 -1.0416 -0.3245  1.7826
  579TIP3   OH223151   0.773   3.178  13.615 -1.0090  0.8192 -0.1585
  579TIP3    H123152   0.851   3.224  13.647 -2.0254  0.7150  2.6531
  579TIP3    H223153   0.734   3.238  13.552  0.6127  1.4641 -0.5614
  580TIP3   OH223154   0.967   4.260  10.757 -0.5317 -0.0903  0.5696
  580TIP3    H123155   1.042   4.317  10.740  0.4025 -1.5967 -0.4638
  580TIP3    H223156   0.930   4.293  10.839 -0.4669  2.4632 -0.3852
  581TIP3   OH223157   3.040   3.674  13.477  0.1488  0.3895 -0.2444
  581TIP3    H123158   3.136   3.677  13.477  0.1698 -0.1833 -0.5015
  581TIP3    H223159   3.014   3.729  13.552  0.6433  1.3382 -0.7570
  582TIP3   OH223160   0.605   2.131   5.823 -0.4107 -0.3146 -0.0174
  582TIP3    H123161   0.641   2.202   5.770 -2.9629  1.2918  0.2997
  582TIP3    H223162   0.671   2.116   5.891 -0.0970  2.2032  0.2916
  583TIP3   OH223163   3.619   0.552  12.596  0.0785  0.3042  0.0950
  583TIP3    H123164   3.545   0.607  12.570  0.5392  0.8131 -0.1504
  583TIP3    H223165   3.680   0.613  12.638  1.5458  0.3898 -2.0745
  584TIP3   OH223166   3.064   0.920  16.944  0.0346 -0.0735  0.7861
  584TIP3    H123167   2.998   0.940  17.010  0.0084 -1.9911  1.3801
  584TIP3    H223168   3.074   0.825  16.949  1.4833 -0.0073 -0.5941
  585TIP3   OH223169   2.012   2.349   5.855 -0.0512 -0.1404  0.2728
  585TIP3    H123170   2.087   2.328   5.910 -0.6051  1.9304  1.8805
  585TIP3    H223171   1.990   2.439   5.878  0.1297  1.0471 -3.8405
  586TIP3   OH223172   3.327   4.691   5.590 -0.3967 -0.2487  0.5791
  586TIP3    H123173   3.331   4.748   5.667  1.9197 -1.5661  1.5161
  586TIP3    H223174   3.407   4.712   5.542 -1.5000  0.0785 -1.1269
  587TIP3   OH223175   1.435   3.548   0.599 -0.0547  0.3677  0.0570
  587TIP3    H123176   1.414   3.583   0.512 -2.9653  1.1312  0.9906
  587TIP3    H223177   1.463   3.625   0.649 -1.8550  0.5915  0.7664
  588TIP3   OH223178   2.923   4.556   5.034  0.1415  0.1555  0.8115
  588TIP3    H123179   2.849   4.588   5.086 -1.1017 -0.0172 -0.8118
  588TIP3    H223180   2.898   4.574   4.944  1.2087 -1.7079  0.1129
  589TIP3   OH223181   6.022   2.555  13.697  0.3102  0.2524  0.1247
  589TIP3    H123182   5.974   2.474  13.684 -1.7827  1.3272  0.9203
  589TIP3    H223183   6.046   2.583  13.608  2.0749 -1.7832 -0.0882
  590TIP3   OH223184   4.852   4.696   3.266  0.3462 -0.6882 -0.4207
  590TIP3    H123185   4.823   4.659   3.183 -0.7606  0.8233 -0.7516
  590TIP3    H223186   4.778   4.751   3.294  0.7945 -1.0106  1.4468
  591TIP3   OH223187   1.285   1.553  11.229  1.1170 -0.9658 -0.1664
  591TIP3    H123188   1.237   1.470  11.225  0.9472 -0.9681  1.4068
  591TIP3    H223189   1.217   1.619  11.242  1.3176 -0.6644 -0.6370
  592TIP3   OH223190   0.316   2.849  11.799 -0.2671 -0.4131  0.4486
  592TIP3    H123191   0.333   2.943  11.797  1.4018 -0.7105 -0.7584
  592TIP3    H223192   0.271   2.834  11.882 -0.3056  1.4061  0.7728
  593TIP3   OH223193   5.810   5.587  11.509 -0.1925 -0.9111  0.3688
  593TIP3    H123194   5.741   5.545  11.458 -0.7940  0.7412 -0.2105
  593TIP3    H223195   5.873   5.517  11.525 -1.0596 -1.9865 -0.7634
  594TIP3   OH223196   4.767   0.876   6.385  0.4070  0.1807  0.4413
  594TIP3    H123197   4.749   0.797   6.334 -1.2169 -0.5420  2.0663
  594TIP3    H223198   4.696   0.936   6.361 -0.2786 -0.1073  1.6703
  595TIP3   OH223199   2.716   0.291  16.647 -0.6815  0.6046  0.0146
  595TIP3    H123200   2.721   0.320  16.556 -1.7985  0.5723 -0.0640
  595TIP3    H223201   2.625   0.264  16.659 -0.4478  0.2333  1.0302
  596TIP3   OH223202   4.148   0.788  14.675  0.8432  0.0213 -0.2345
  596TIP3    H123203   4.084   0.721  14.700  0.9256 -0.0062 -0.1007
  596TIP3    H223204   4.118   0.817  14.589 -0.0380  0.8650  0.3566
  597TIP3   OH223205   1.329   4.766  11.887 -0.0327  0.5123  0.4667
  597TIP3    H123206   1.255   4.708  11.870 -0.5486  1.6622 -1.3481
  597TIP3    H223207   1.323   4.833  11.819  1.6170  1.6564  1.4137
  598TIP3   OH223208   2.535   1.713   5.348  0.0328 -0.0887 -0.2087
  598TIP3    H123209   2.611   1.699   5.293 -0.3241 -0.3605 -0.6338
  598TIP3    H223210   2.510   1.626   5.378 -0.4883 -0.0717 -0.5779
  599TIP3   OH223211   2.980   1.820  13.342 -0.1912  0.6919 -0.3700
  599TIP3    H123212   2.893   1.858  13.336 -0.4936  0.0395 -0.2161
  599TIP3    H223213   3.040   1.894  13.335 -0.8135  1.5038  2.4353
  600TIP3   OH223214   4.337   3.742   4.373  0.0198  0.1757  0.7862
  600TIP3    H123215   4.313   3.801   4.302  0.1866  0.8557  1.2974
  600TIP3    H223216   4.322   3.792   4.453 -0.7393 -0.8031  1.2547
  601TIP3   OH223217   0.808   0.901  12.259 -0.4605 -0.0718 -0.8149
  601TIP3    H123218   0.865   0.901  12.182  1.8268 -2.3893  0.7807
  601TIP3    H223219   0.794   0.994  12.278  1.9687  0.5577 -1.8641
  602TIP3   OH223220   3.416   6.202  14.873  0.1014 -0.6257  0.4463
  602TIP3    H123221   3.386   6.293  14.867  0.8235 -0.3904  0.3876
  602TIP3    H223222   3.490   6.206  14.934  0.5393 -1.0798 -0.0598
  603TIP3   OH223223   0.272   2.586  13.786  0.2531  0.1268  0.0862
  603TIP3    H123224   0.269   2.597  13.881 -1.2541  0.4873  0.0012
  603TIP3    H223225   0.352   2.535  13.770 -0.0773 -0.8967  1.6386
  604TIP3   OH223226   5.526   4.587  13.606 -0.9107 -0.2477  0.0631
  604TIP3    H123227   5.445   4.639  13.599 -1.3860 -0.5264  2.8563
  604TIP3    H223228   5.561   4.609  13.692  1.0781 -1.4833 -0.3947
  605TIP3   OH223229   0.801   3.585  15.606  0.3830  0.1020 -0.2579
  605TIP3    H123230   0.719   3.583  15.557 -0.6139  0.5469  1.3566
  605TIP3    H223231   0.784   3.534  15.685  2.0448 -0.8013 -0.4539
  606TIP3   OH223232   6.059   3.920   3.594  0.2801  0.0409 -0.0590
  606TIP3    H123233   6.129   3.902   3.532  1.3601  0.4532  1.0104
  606TIP3    H223234   6.042   4.013   3.586 -0.0273 -0.0281 -0.2043
  607TIP3   OH223235   2.601   6.169   3.822  0.2978 -0.5317 -0.5136
  607TIP3    H123236   2.508   6.172   3.800 -0.0071  0.1629  0.8302
  607TIP3    H223237   2.624   6.260   3.841  1.2190 -0.7232 -0.6743
  608TIP3   OH223238   4.453   3.655   6.755 -0.0178 -0.3401 -0.1210
  608TIP3    H123239   4.521   3.616   6.699  1.6719 -0.9830  2.3093
  608TIP3    H223240   4.496   3.729   6.797 -1.0447 -0.3212  0.9147
  609TIP3   OH223241   4.406   5.588  13.968  0.2406  0.2755  0.5064
  609TIP3    H123242   4.356   5.573  14.048  1.1534  1.3958  1.2955
  609TIP3    H223243   4.349   5.644  13.914 -0.5372 -0.8035  0.1916
  610TIP3   OH223244   1.867   4.897   0.693 -0.5399 -0.2077 -0.1658
  610TIP3    H123245   1.847   4.982   0.653  0.6743  0.1624  0.0080
  610TIP3    H223246   1.828   4.903   0.781  0.2193  0.4622  0.1294
  611TIP3   OH223247   4.455   1.304  12.575 -0.6573 -0.3119 -0.0817
  611TIP3    H123248   4.481   1.282  12.665 -0.0564  0.7612  0.0149
  611TIP3    H223249   4.497   1.388  12.558 -1.0689 -0.3367 -1.2467
  612TIP3   OH223250   4.507   5.030   3.097 -0.3675 -0.5931  0.1847
  612TIP3    H123251   4.517   5.126   3.095  0.6860 -0.6698  1.4355
  612TIP3    H223252   4.417   5.016   3.127 -0.7829 -0.0025 -0.7381
  613TIP3   OH223253   0.847   5.524  16.474  0.1808  0.3803 -0.0124
  613TIP3    H123254   0.803   5.562  16.398  0.8465  2.2658  0.5156
  613TIP3    H223255   0.889   5.599  16.518 -1.4608 -0.4319  3.0840
  614TIP3   OH223256   3.066   2.566  17.208  0.1018  0.1777  0.2347
  614TIP3    H123257   3.039   2.583  17.118 -1.0643 -0.4266  0.4481
  614TIP3    H223258   2.999   2.609  17.261  0.9918  0.8473  0.8149
  615TIP3   OH223259   2.530   3.476  12.077  0.0328  0.2029 -0.2040
  615TIP3    H123260   2.559   3.497  11.988  0.7541 -0.2450 -0.0816
  615TIP3    H223261   2.481   3.553  12.105  1.7006  1.2902 -0.1644
  616TIP3   OH223262   0.218   1.526   1.269  0.3013  0.0469  0.4338
  616TIP3    H123263   0.260   1.464   1.209  0.8963  0.6823  0.1865
  616TIP3    H223264   0.225   1.484   1.355 -1.3196 -1.2588 -0.0482
  617TIP3   OH223265   2.907   0.218  15.232 -0.1106 -0.0161  0.0160
  617TIP3    H123266   2.875   0.279  15.299  1.5079  0.8002  0.0805
  617TIP3    H223267   2.899   0.132  15.273 -0.3016  0.3667  0.7993
  618TIP3   OH223268   5.486   4.442   0.285 -0.2481  0.1484  0.6161
  618TIP3    H123269   5.532   4.501   0.225  0.0214  0.2829  0.9583
  618TIP3    H223270   5.394   4.462   0.271 -0.1921  0.1237  0.1836
  619TIP3   OH223271   5.401   1.481   2.323  0.5892 -0.1777 -0.6025
  619TIP3    H123272   5.396   1.509   2.415  1.5293  0.7080 -0.8101
  619TIP3    H223273   5.379   1.560   2.273 -0.1473 -0.7162 -1.1382
  620TIP3   OH223274   4.399   0.041  15.176  0.5883  0.0419  0.1977
  620TIP3    H123275   4.435   0.050  15.087  2.8263 -3.3963  0.6794
  620TIP3    H223276   4.403  -0.052  15.194 -0.3303  0.6341  3.7643
  621TIP3   OH223277   3.817   6.251  13.808  0.3278  0.6423  0.5641
  621TIP3    H123278   3.893   6.241  13.750 -0.5815  0.1089 -0.5557
  621TIP3    H223279   3.751   6.192  13.771 -0.3626  0.5143  1.9880
  622TIP3   OH223280   1.231   1.497  12.367  0.3045  0.0821  0.0531
  622TIP3    H123281   1.170   1.505  12.294  2.6904  0.3128 -1.9729
  622TIP3    H223282   1.306   1.551  12.342  1.6905 -0.8300  2.1190
  623TIP3   OH223283   2.504   3.255   0.502 -0.4541 -0.0549 -0.8522
  623TIP3    H123284   2.517   3.349   0.516 -0.5211  0.1485 -2.1617
  623TIP3    H223285   2.444   3.249   0.428 -1.4802 -1.1222  0.0429
  624TIP3   OH223286   5.760   1.253   4.689  0.0216 -0.0171 -0.1574
  624TIP3    H123287   5.853   1.250   4.666  0.5501  0.7069  1.7778
  624TIP3    H223288   5.734   1.162   4.697  0.3687 -0.2379 -1.4178
  625TIP3   OH223289   2.615   2.607  14.108  0.0334  0.3094 -0.2743
  625TIP3    H123290   2.616   2.632  14.201 -1.7077 -1.0798  0.1319
  625TIP3    H223291   2.566   2.677  14.065  1.1028  1.1120 -0.2080
  626TIP3   OH223292   1.626   5.759  13.845  0.4072 -0.2017  0.1117
  626TIP3    H123293   1.628   5.779  13.752 -0.8425 -1.0366 -0.1131
  626TIP3    H223294   1.633   5.844  13.888 -1.0805  0.3992 -0.7783
  627TIP3   OH223295   2.498   4.089  15.083  0.1359 -0.2491  0.3571
  627TIP3    H123296   2.528   4.177  15.063  1.1560 -0.5196  0.6607
  627TIP3    H223297   2.402   4.093  15.075 -0.1445  1.7369  3.7708
  628TIP3   OH223298   4.231   3.243  14.583 -0.8173 -0.0768 -0.0538
  628TIP3    H123299   4.325   3.244  14.566 -0.8933 -1.1732 -0.5718
  628TIP3    H223300   4.192   3.284  14.506 -0.9204 -1.9004 -1.0077
  629TIP3   OH223301   4.675   0.750  15.721  0.0728  0.3465 -0.2027
  629TIP3    H123302   4.709   0.661  15.720 -0.3887  0.0879  2.3943
  629TIP3    H223303   4.749   0.805  15.696  0.4799 -0.7126 -1.3612
  630TIP3   OH223304   4.430   6.708   2.845  0.0042  0.0537  0.2005
  630TIP3    H123305   4.438   6.761   2.924 -0.1883  0.5602 -0.1232
  630TIP3    H223306   4.450   6.619   2.874 -2.4210 -0.1682  1.3487
  631TIP3   OH223307   4.822   2.245  13.535  0.3518  0.2834  0.2407
  631TIP3    H123308   4.773   2.179  13.486  1.3209  0.0398 -0.4077
  631TIP3    H223309   4.889   2.276  13.473  0.8032  0.8485  1.0075
  632TIP3   OH223310   5.105   5.536  13.879 -0.5207 -0.3390 -0.7424
  632TIP3    H123311   5.133   5.445  13.887  1.2370  0.2148 -0.4083
  632TIP3    H223312   5.033   5.533  13.816  0.0582 -1.8480 -1.3575
  633TIP3   OH223313   6.736   4.325   3.457 -0.1896 -0.4370 -0.4577
  633TIP3    H123314   6.677   4.398   3.443 -1.3435 -1.2513  0.1167
  633TIP3    H223315   6.812   4.345   3.402  0.3313  2.0877  1.0863
  634TIP3   OH223316   5.103   1.409  15.656  0.3211 -0.2968 -0.4393
  634TIP3    H123317   5.122   1.498  15.627  1.1562  0.3909  2.0724
  634TIP3    H223318   5.137   1.405  15.746  0.3106 -3.1471 -0.5108
  635TIP3   OH223319   3.649   2.341   3.116  0.9683  0.5397 -0.2148
  635TIP3    H123320   3.675   2.388   3.037  1.8074  0.7748  0.1953
  635TIP3    H223321   3.566   2.381   3.141  2.1668  2.5192  0.7005
  636TIP3   OH223322   3.501   2.109   3.803  0.0934  0.3310 -0.0464
  636TIP3    H123323   3.466   2.092   3.891 -0.4177 -1.0931 -0.5067
  636TIP3    H223324   3.596   2.104   3.814  0.0237 -0.3695  0.3443
  637TIP3   OH223325   2.060   5.360   3.496  0.5952 -0.5704  0.0651
  637TIP3    H123326   2.098   5.446   3.514  0.2872 -0.2956 -0.5966
  637TIP3    H223327   1.988   5.353   3.559  2.0603 -1.3183  1.6811
  638TIP3   OH223328   1.959   3.517  12.573 -0.1286 -0.5897  0.3763
  638TIP3    H123329   1.864   3.508  12.582 -0.2117 -1.0327 -0.9047
  638TIP3    H223330   1.992   3.508  12.663 -1.0687 -3.3522  0.4988
  639TIP3   OH223331   5.533   2.046  16.883 -0.6196  0.1391 -0.6508
  639TIP3    H123332   5.558   2.121  16.938  2.0286 -0.1652 -1.3728
  639TIP3    H223333   5.467   2.000  16.934 -1.1186  2.0768  0.5112
  640TIP3   OH223334   4.751   6.347  14.988  1.2596  0.0251 -0.4924
  640TIP3    H123335   4.707   6.410  15.045 -0.9766 -0.0961 -2.0137
  640TIP3    H223336   4.757   6.268  15.041 -0.4900  0.0213 -0.2554
  641TIP3   OH223337   6.667   4.171  15.543  0.5479 -0.4335  1.0740
  641TIP3    H123338   6.717   4.247  15.572 -0.2483  0.5630 -0.1246
  641TIP3    H223339   6.731   4.115  15.500  0.3483  1.7577 -2.2464
  642TIP3   OH223340   6.728   1.854   2.743  0.6253 -0.6148 -0.3231
  642TIP3    H123341   6.718   1.816   2.655 -1.8696  1.3486 -0.9521
  642TIP3    H223342   6.720   1.948   2.730 -0.0344 -0.3088  2.0359
  643TIP3   OH223343   2.114   3.219   2.592 -0.1926  0.1918  0.0429
  643TIP3    H123344   2.208   3.233   2.581 -0.1301 -0.3699 -0.1933
  643TIP3    H223345   2.080   3.301   2.628  0.6187 -0.1076  1.4971
  644TIP3   OH223346   3.521   4.898   2.324  0.2430  0.2174  0.3237
  644TIP3    H123347   3.522   4.804   2.304  1.5177  0.0000  1.3829
  644TIP3    H223348   3.604   4.930   2.290  0.9721  0.4680  2.3001
  645TIP3   OH223349   2.279   1.117  14.155 -0.6727 -0.1961 -0.3044
  645TIP3    H123350   2.278   1.026  14.186  1.5945 -0.4034 -0.7577
  645TIP3    H223351   2.342   1.161  14.213 -0.6497  0.7380 -1.0287
  646TIP3   OH223352   1.845   0.375   0.815  0.4604  0.1305  0.4924
  646TIP3    H123353   1.921   0.319   0.799  1.5975  2.0493 -1.0217
  646TIP3    H223354   1.788   0.360   0.740 -0.6756 -1.2534  1.5916
  647TIP3   OH223355   3.942   4.698   0.937  0.1725  0.3763  0.3736
  647TIP3    H123356   3.869   4.640   0.921  0.5603  0.3499 -1.3741
  647TIP3    H223357   3.927   4.773   0.879  1.5311  0.3545 -0.0333
  648TIP3   OH223358   2.317   4.204  12.294 -0.3341 -0.1417  0.1703
  648TIP3    H123359   2.224   4.205  12.315 -0.2503  0.3947  0.5241
  648TIP3    H223360   2.325   4.141  12.222 -0.9478 -0.2842  0.2270
  649TIP3   OH223361   0.314   4.249   3.466 -0.3117  0.3626  0.0254
  649TIP3    H123362   0.290   4.206   3.548  1.6325 -0.3009  0.2582
  649TIP3    H223363   0.267   4.200   3.398 -0.6085 -0.1298  0.5859
  650TIP3   OH223364   5.459   3.949  13.854 -0.4049 -0.3913  0.1324
  650TIP3    H123365   5.554   3.953  13.861 -0.5806  0.6660  2.4202
  650TIP3    H223366   5.428   4.023  13.905 -2.4898 -0.9050 -0.3192
  651TIP3   OH223367   2.612   4.714  12.315 -0.1662 -0.3968  0.1961
  651TIP3    H123368   2.626   4.633  12.266  0.8848  0.0753 -0.2747
  651TIP3    H223369   2.622   4.784  12.251  0.4810  0.1815  0.9182
  652TIP3   OH223370   0.700   4.402   2.210  0.1133  0.0803 -0.3385
  652TIP3    H123371   0.699   4.444   2.124  1.8513 -0.4135 -0.6342
  652TIP3    H223372   0.617   4.426   2.249  0.0034  1.7362 -1.4876
  653TIP3   OH223373   2.515   0.137  15.804  0.5712 -0.6602  0.9725
  653TIP3    H123374   2.589   0.196  15.817  0.3078 -0.4721  1.6357
  653TIP3    H223375   2.554   0.050  15.801  0.9335 -0.4728  0.2447
  654TIP3   OH223376   5.231   1.897  15.933  0.0708  0.2001  0.1797
  654TIP3    H123377   5.229   1.854  16.018 -1.4435  0.3082  0.2124
  654TIP3    H223378   5.164   1.965  15.939  0.7775  0.9900 -0.6935
  655TIP3   OH223379   4.300   3.827   3.282  0.0070  0.3788  0.8734
  655TIP3    H123380   4.309   3.910   3.329  1.5136  0.6389  0.1542
  655TIP3    H223381   4.292   3.761   3.351  2.5319  0.7149  1.5694
  656TIP3   OH223382   6.276   5.307  16.805  0.0361  0.0700 -0.1733
  656TIP3    H123383   6.312   5.232  16.853 -0.5030 -0.4489 -0.5597
  656TIP3    H223384   6.328   5.382  16.834  0.5211 -0.4408  0.2929
  657TIP3   OH223385   0.084   3.962   4.239 -0.3332  0.2893 -1.0190
  657TIP3    H123386   0.130   3.971   4.322 -2.4662 -1.7070  0.4242
  657TIP3    H223387   0.148   3.991   4.174  2.1417 -0.1375  1.1136
  658TIP3   OH223388   4.059   6.354   6.255 -0.1699 -0.0685  0.1894
  658TIP3    H123389   4.071   6.282   6.317 -0.2110 -0.5669 -0.3822
  658TIP3    H223390   3.964   6.364   6.247 -0.1985 -1.5073 -1.5207
  659TIP3   OH223391   5.655   4.088   5.337 -0.5535 -0.1768  0.1761
  659TIP3    H123392   5.729   4.038   5.372  1.0235  1.3719 -0.8647
  659TIP3    H223393   5.623   4.035   5.264 -1.9470 -1.9425  2.0033
  660TIP3   OH223394   1.332   5.945   0.360 -0.0152  0.0118 -0.3879
  660TIP3    H123395   1.399   5.899   0.309  1.2257  1.1068  0.2361
  660TIP3    H223396   1.317   5.889   0.436  0.0480 -0.3156 -0.6131
  661TIP3   OH223397   3.001   6.592  12.654 -0.0144  0.1537  0.5881
  661TIP3    H123398   3.091   6.567  12.677 -0.0513  0.9972  1.6524
  661TIP3    H223399   2.947   6.552  12.722 -0.2799  1.2387  1.0162
  662TIP3   OH223400   5.626   3.485  16.479 -0.0594 -0.9057  0.5779
  662TIP3    H123401   5.674   3.423  16.533  1.9018 -1.5948 -1.8816
  662TIP3    H223402   5.675   3.567  16.488 -0.5523 -0.6582  0.9866
  663TIP3   OH223403   1.145   2.184   1.015  0.3934 -0.0638  0.1645
  663TIP3    H123404   1.141   2.137   0.931 -0.7189 -0.7712  0.5946
  663TIP3    H223405   1.076   2.250   1.009  0.3816 -0.0453  0.4825
  664TIP3   OH223406   6.136   3.435  14.603 -0.9471 -0.4993  0.1496
  664TIP3    H123407   6.118   3.492  14.528 -1.7403 -0.0665  0.6578
  664TIP3    H223408   6.060   3.446  14.660 -0.5068 -1.0846  0.8597
  665TIP3   OH223409   3.779   6.455  16.011  0.5691 -0.3549  0.4253
  665TIP3    H123410   3.745   6.532  16.055 -0.0057 -1.2038  1.4721
  665TIP3    H223411   3.707   6.424  15.956  0.7275 -0.2676  0.1672
  666TIP3   OH223412   2.999   0.208   3.087 -0.0409 -0.1370  0.4385
  666TIP3    H123413   2.937   0.137   3.101 -1.1248  0.4760 -1.1509
  666TIP3    H223414   2.965   0.281   3.137 -1.0310  0.4263 -1.0256
  667TIP3   OH223415   0.204   1.661   5.362  0.2851 -0.1098 -0.2942
  667TIP3    H123416   0.184   1.665   5.269 -2.1953  0.3472  0.2358
  667TIP3    H223417   0.139   1.602   5.399  0.1401  1.0569  1.4078
  668TIP3   OH223418   4.339   0.156  16.729 -0.2153 -0.0290 -0.3108
  668TIP3    H123419   4.287   0.085  16.765  0.1685 -0.1086  0.1029
  668TIP3    H223420   4.401   0.178  16.799 -0.0059  0.3753 -0.6170
  669TIP3   OH223421   3.108   5.570   2.735 -0.6358  0.8217  0.4316
  669TIP3    H123422   3.093   5.614   2.819 -0.0248  0.5223  0.7037
  669TIP3    H223423   3.177   5.621   2.693 -0.1186  0.3011  0.6298
  670TIP3   OH223424   2.697   1.996  13.661  0.6023  0.6097 -0.1184
  670TIP3    H123425   2.654   2.011  13.577  0.0009  0.8589  0.2286
  670TIP3    H223426   2.676   1.906  13.683 -1.2392  1.2592  0.8878
  671TIP3   OH223427   0.147   5.484   5.125  0.6360  0.2707 -0.6268
  671TIP3    H123428   0.067   5.447   5.162  0.0604  0.7072 -1.4336
  671TIP3    H223429   0.123   5.510   5.037  1.6883  0.3485 -0.8973
  672TIP3   OH223430   3.950   3.503  10.592 -0.1166 -0.3370  0.2089
  672TIP3    H123431   4.015   3.462  10.536  0.4189  1.3225 -0.4007
  672TIP3    H223432   3.979   3.483  10.681 -0.6149 -2.4187 -0.0601
  673TIP3   OH223433   1.776   2.356   6.140  0.1894  0.2337  0.5882
  673TIP3    H123434   1.773   2.390   6.051 -0.7647  1.5764  1.1174
  673TIP3    H223435   1.699   2.300   6.148 -0.9328  1.8224  1.2188
  674TIP3   OH223436   0.566   1.007  15.902  0.0564  0.0806 -0.3995
  674TIP3    H123437   0.622   1.084  15.907  0.6018 -0.2231 -1.6553
  674TIP3    H223438   0.517   1.018  15.820 -1.2171  0.0020  0.3412
  675TIP3   OH223439   2.237   1.911   5.746 -0.1651 -0.4705  0.1388
  675TIP3    H123440   2.187   1.861   5.811 -0.3906 -0.9982 -0.4331
  675TIP3    H223441   2.203   2.000   5.753  2.1818  0.2659  3.1119
  676TIP3   OH223442   1.251   1.301  14.191 -0.5205 -0.1771 -0.0642
  676TIP3    H123443   1.307   1.235  14.233 -1.4553  0.4568  2.2519
  676TIP3    H223444   1.173   1.306  14.247  0.1562  3.9377  0.6932
  677TIP3   OH223445   3.823   6.064  14.627 -0.5908 -0.4513  0.1253
  677TIP3    H123446   3.834   6.112  14.709  0.5928 -0.0695 -0.2486
  677TIP3    H223447   3.741   6.098  14.590  0.5144  1.6939 -0.3966
  678TIP3   OH223448   5.546   6.759  16.026 -0.0796 -0.5563 -0.4342
  678TIP3    H123449   5.609   6.796  15.964 -0.9892  0.0225 -1.0281
  678TIP3    H223450   5.587   6.769  16.112  0.2369  0.6582 -0.7233
  679TIP3   OH223451   2.047   0.117  12.033  0.2821  0.0112 -0.2487
  679TIP3    H123452   2.007   0.094  12.117  1.5283 -1.7280 -0.0990
  679TIP3    H223453   2.005   0.200  12.008 -2.3894 -1.0614  0.5341
  680TIP3   OH223454   5.606   6.132   2.079 -0.5097 -0.0036 -0.7875
  680TIP3    H123455   5.692   6.140   2.039  0.2787  2.8964  1.3001
  680TIP3    H223456   5.566   6.219   2.068 -2.3468 -0.6993  0.0845
  681TIP3   OH223457   4.972   4.592   4.385  0.5177  0.2545 -0.3275
  681TIP3    H123458   4.891   4.615   4.430 -0.2076 -2.5445 -0.1253
  681TIP3    H223459   4.947   4.583   4.293  0.6534 -0.4106 -0.2980
  682TIP3   OH223460   0.133   6.417   0.622 -0.0476 -0.2384  0.0287
  682TIP3    H123461   0.122   6.332   0.580  0.2770 -0.0008 -0.5288
  682TIP3    H223462   0.217   6.412   0.667 -0.3618 -0.4677  0.6070
  683TIP3   OH223463   1.932   4.850  16.372  0.5252  0.1417 -0.5642
  683TIP3    H123464   1.926   4.767  16.419 -1.0873  0.4468 -0.2005
  683TIP3    H223465   2.020   4.849  16.333  0.1789 -2.1589 -1.3673
  684TIP3   OH223466   0.560   2.272  13.991  0.5288  0.6236 -0.2639
  684TIP3    H123467   0.516   2.189  14.009 -1.0409  1.3553 -0.6278
  684TIP3    H223468   0.575   2.311  14.077 -1.4495  1.3154 -0.1983
  685TIP3   OH223469   4.714   1.424   2.731 -0.0751 -0.3291 -0.0179
  685TIP3    H123470   4.718   1.427   2.636 -1.3750  1.0439 -0.0388
  685TIP3    H223471   4.674   1.339   2.751  0.2279 -0.6300 -0.6840
  686TIP3   OH223472   2.071   1.999  14.832  0.2226  0.2492  0.0950
  686TIP3    H123473   2.135   2.003  14.761 -0.0144 -0.3113 -0.1520
  686TIP3    H223474   1.999   1.947  14.796  0.3081 -0.4406  0.9068
  687TIP3   OH223475   0.579   3.318   3.134  0.4573  0.2401 -0.5264
  687TIP3    H123476   0.581   3.414   3.145  0.5151  0.2707 -0.7949
  687TIP3    H223477   0.529   3.305   3.053 -1.7510 -0.0666  0.8494
  688TIP3   OH223478   1.708   2.563  13.261 -0.5958  0.0137 -0.4668
  688TIP3    H123479   1.764   2.506  13.209  0.8185  0.9361  0.0014
  688TIP3    H223480   1.682   2.510  13.336  1.1180  0.1039  0.2235
  689TIP3   OH223481   3.928   6.037   0.819 -0.6765 -0.1831 -0.2119
  689TIP3    H123482   3.982   5.960   0.835 -0.7848 -0.7965 -2.6382
  689TIP3    H223483   3.849   6.003   0.776 -1.9056  0.9878  1.0603
  690TIP3   OH223484   1.307   4.893  14.337  0.1997  0.0513 -0.7803
  690TIP3    H123485   1.320   4.806  14.299  0.2236 -0.0773 -0.4761
  690TIP3    H223486   1.395   4.926  14.353  0.1864  0.0092 -0.6175
  691TIP3   OH223487   0.684   0.373   5.276 -0.4461  0.3943  0.2044
  691TIP3    H123488   0.635   0.410   5.203 -0.3005 -2.7237 -1.5461
  691TIP3    H223489   0.761   0.429   5.284 -2.0748  2.7196  0.1559
  692TIP3   OH223490   1.459   6.671   1.154  0.7237  0.7367  0.1195
  692TIP3    H123491   1.544   6.626   1.161 -0.8277 -2.3721 -0.3147
  692TIP3    H223492   1.440   6.671   1.060 -1.1250 -1.3430  0.4423
  693TIP3   OH223493   2.570   4.311   3.271  0.3102 -0.2769  0.4979
  693TIP3    H123494   2.559   4.236   3.213 -0.3958  0.0090  0.2591
  693TIP3    H223495   2.518   4.381   3.231 -0.3517 -0.1348  1.5837
  694TIP3   OH223496   2.306   1.340   5.237 -0.0511 -0.1475  0.6830
  694TIP3    H123497   2.316   1.396   5.159  0.4105  0.6678  1.3184
  694TIP3    H223498   2.254   1.266   5.206 -0.9290  0.7672 -0.1260
  695TIP3   OH223499   1.349   3.743  11.392  0.4103 -0.7575  0.1558
  695TIP3    H123500   1.298   3.808  11.344  0.1327 -0.9579  0.1810
  695TIP3    H223501   1.300   3.728  11.472  1.0020 -0.2376  0.6199
  696TIP3   OH223502   2.039   1.907  15.422  0.1427 -0.1533  0.0608
  696TIP3    H123503   2.035   1.973  15.491  1.2284 -0.8614  0.8091
  696TIP3    H223504   2.002   1.829  15.462  1.1041 -0.6623 -0.0376
  697TIP3   OH223505   2.657   6.247  15.600  0.1148  0.6399  0.2257
  697TIP3    H123506   2.726   6.282  15.543 -0.2030  1.5354  0.3734
  697TIP3    H223507   2.586   6.223  15.541  0.7002 -0.6482  0.0381
  698TIP3   OH223508   1.515   0.505  13.616 -0.4128  0.4784 -0.0667
  698TIP3    H123509   1.447   0.455  13.660 -1.4266  0.4448 -1.6356
  698TIP3    H223510   1.479   0.525  13.530  0.8058  2.1027 -0.2416
  699TIP3   OH223511   6.707   0.433  12.429  0.0346  0.3724 -0.4692
  699TIP3    H123512   6.622   0.404  12.462  0.3588 -1.1595 -0.9418
  699TIP3    H223513   6.691   0.457  12.338  0.3092 -0.9435 -0.8773
  700TIP3   OH223514   5.907   6.415  11.314 -0.2691 -0.1083 -0.3310
  700TIP3    H123515   5.901   6.320  11.312 -4.2479  0.0887 -2.8484
  700TIP3    H223516   5.992   6.435  11.274  0.2791 -2.5768 -0.4509
  701TIP3   OH223517   0.811   1.582   3.155 -0.1189 -0.1899  0.1372
  701TIP3    H123518   0.728   1.537   3.141 -0.6343  0.5147  0.8076
  701TIP3    H223519   0.863   1.522   3.209 -0.1229 -0.7063 -0.4343
  702TIP3   OH223520   5.317   1.299  10.463 -0.4688  0.3227 -0.0096
  702TIP3    H123521   5.364   1.261  10.389 -0.9732 -0.7635  0.2144
  702TIP3    H223522   5.386   1.323  10.525 -0.1736 -1.0545  0.2217
  703TIP3   OH223523   3.991   4.697   2.164 -0.4621  0.3433  0.5290
  703TIP3    H123524   4.055   4.626   2.168 -0.5974  0.0869 -1.3438
  703TIP3    H223525   3.969   4.715   2.256 -0.5833 -2.1821  1.0408
  704TIP3   OH223526   2.471   5.376   3.269  0.3805 -0.6962  0.2015
  704TIP3    H123527   2.557   5.417   3.272 -0.0656  0.2483  0.3461
  704TIP3    H223528   2.453   5.365   3.176 -1.2208  3.2143 -0.0845
  705TIP3   OH223529   1.086   4.842  13.443 -0.1362 -0.0613  0.1348
  705TIP3    H123530   1.157   4.844  13.379 -0.9812 -0.0179 -0.8215
  705TIP3    H223531   1.074   4.749  13.463  0.9654  0.0175  1.1862
  706TIP3   OH223532   0.186   1.637  15.745  0.5157 -0.1082  0.3816
  706TIP3    H123533   0.134   1.704  15.700 -0.6961 -0.7491  0.7935
  706TIP3    H223534   0.222   1.584  15.674 -1.9576 -1.5298  0.1146
  707TIP3   OH223535   1.292   3.176   5.574  0.1813  0.0908 -0.1898
  707TIP3    H123536   1.289   3.131   5.659  2.2647  0.5095  0.1174
  707TIP3    H223537   1.385   3.194   5.559 -0.1496 -0.0174 -2.5931
  708TIP3   OH223538   5.774   4.268   4.438  0.2722  0.0228  0.4609
  708TIP3    H123539   5.716   4.252   4.364  1.7750  0.6455 -0.8736
  708TIP3    H223540   5.730   4.338   4.487 -0.7727 -0.4512  0.2238
  709TIP3   OH223541   3.504   2.388  15.011 -0.8365 -0.5973 -0.0494
  709TIP3    H123542   3.589   2.349  15.033 -0.0027  0.1751 -1.7643
  709TIP3    H223543   3.466   2.326  14.947 -1.0373 -0.3463 -0.1738
  710TIP3   OH223544   5.517   2.875  16.511  0.6260  0.1223  0.4806
  710TIP3    H123545   5.503   2.788  16.474  1.9661 -0.0046  0.2394
  710TIP3    H223546   5.600   2.904  16.473 -1.3295  2.8175 -1.9450
  711TIP3   OH223547   3.124   4.646   2.861  0.2950 -0.7516 -0.0685
  711TIP3    H123548   3.126   4.586   2.786  0.0657  0.6943 -1.2813
  711TIP3    H223549   3.175   4.603   2.929 -1.6844 -3.3219 -0.1167
  712TIP3   OH223550   5.566   4.605   5.786  0.6565  0.1772 -0.2341
  712TIP3    H123551   5.634   4.545   5.816  0.7182  0.7696  0.8790
  712TIP3    H223552   5.603   4.692   5.800 -0.0565  0.4962 -0.2717
  713TIP3   OH223553   2.881   4.412  15.634  0.4920  0.8387  0.2184
  713TIP3    H123554   2.897   4.351  15.563 -0.9872  1.1905 -0.4494
  713TIP3    H223555   2.848   4.358  15.706 -0.8143  0.8258 -0.3721
  714TIP3   OH223556   0.729   4.837   1.959  0.1933 -0.1473  0.0868
  714TIP3    H123557   0.691   4.899   2.022 -0.6498  1.9282 -2.3716
  714TIP3    H223558   0.667   4.764   1.958 -0.1546  0.1216  1.1569
  715TIP3   OH223559   3.833   1.236   3.103 -0.0988  0.6992  0.2256
  715TIP3    H123560   3.794   1.276   3.026 -0.1110  0.7969  0.2822
  715TIP3    H223561   3.759   1.217   3.161 -0.1726 -0.1521 -0.1470
  716TIP3   OH223562   0.280   2.006   1.076  0.5993 -0.2283  0.4632
  716TIP3    H123563   0.238   1.927   1.109  1.1555 -0.5283  0.4613
  716TIP3    H223564   0.342   2.030   1.144 -0.4005  0.8872  1.0010
  717TIP3   OH223565   3.059   3.351   1.380 -0.4275 -0.7370 -0.1145
  717TIP3    H123566   2.965   3.369   1.375 -0.6667 -1.6040  1.1993
  717TIP3    H223567   3.099   3.435   1.400 -0.6800  0.1373 -3.0172
  718TIP3   OH223568   1.145   5.069  10.889 -0.2713  0.7434 -0.0776
  718TIP3    H123569   1.090   5.000  10.927  0.1902  1.4716  1.9883
  718TIP3    H223570   1.148   5.137  10.956  1.1231  1.8018 -1.1814
  719TIP3   OH223571   4.792   0.329  16.132 -0.4182 -0.1465  0.0291
  719TIP3    H123572   4.797   0.378  16.051  0.8202  0.9171  0.7312
  719TIP3    H223573   4.817   0.392  16.200 -3.0657 -0.5478  1.4417
  720TIP3   OH223574   1.572   2.781  13.182 -0.1691  0.1540 -0.3992
  720TIP3    H123575   1.588   2.697  13.225 -0.8283  0.8563  1.2634
  720TIP3    H223576   1.650   2.833  13.201  0.3177 -0.1255 -1.5768
  721TIP3   OH223577   5.470   4.448  14.311  0.1693  0.0223  0.3662
  721TIP3    H123578   5.416   4.510  14.262  0.6606  2.0660  2.3480
  721TIP3    H223579   5.558   4.486  14.309  0.2300  0.0665  2.6482
  722TIP3   OH223580   1.696   6.233  13.169 -0.7972 -0.0106  0.2427
  722TIP3    H123581   1.737   6.148  13.185 -1.4110 -0.2855  0.3907
  722TIP3    H223582   1.768   6.290  13.144 -0.1919 -0.2540  1.3843
  723TIP3   OH223583   0.476   1.352  11.536 -0.1711  0.0677 -0.5395
  723TIP3    H123584   0.539   1.341  11.607 -1.4810 -0.7188  0.5408
  723TIP3    H223585   0.405   1.403  11.575 -0.5289  0.3310 -1.5212
  724TIP3   OH223586   0.786   6.067   1.968 -0.1229  0.1313 -0.6382
  724TIP3    H123587   0.707   6.115   1.992 -0.8786 -1.8558  0.9347
  724TIP3    H223588   0.785   6.067   1.872 -3.5310 -2.2130 -0.6934
  725TIP3   OH223589   5.678   3.386   2.827 -0.1841  0.5275  0.6412
  725TIP3    H123590   5.705   3.457   2.769  1.6057 -0.1905  0.5916
  725TIP3    H223591   5.750   3.375   2.888  0.1207 -2.0995 -0.1290
  726TIP3   OH223592   4.154   6.480  11.441 -0.1565  0.5158 -0.0445
  726TIP3    H123593   4.141   6.390  11.469 -0.8892  0.9070  0.8925
  726TIP3    H223594   4.232   6.510  11.488  0.7224  0.0398 -1.1762
  727TIP3   OH223595   0.451   3.917   1.944 -0.0916 -0.3126 -0.0765
  727TIP3    H123596   0.418   3.972   2.015  0.2337  0.3666 -0.4451
  727TIP3    H223597   0.420   3.960   1.865 -0.3996 -1.0366 -0.3496
  728TIP3   OH223598   2.260   4.147  12.668 -0.3282 -0.2292 -0.3249
  728TIP3    H123599   2.176   4.192  12.671 -0.1207  0.2579 -1.4450
  728TIP3    H223600   2.258   4.086  12.742 -0.6895  1.4688  1.0914
  729TIP3   OH223601   2.705   5.250   3.926 -0.1249  0.0280  0.1282
  729TIP3    H123602   2.785   5.218   3.885 -0.7751 -0.7392 -0.5395
  729TIP3    H223603   2.678   5.324   3.872 -1.4568 -1.5141 -1.3794
  730TIP3   OH223604   4.093   6.150   5.668 -1.0549  0.2325  0.3376
  730TIP3    H123605   4.117   6.116   5.755 -1.0265  1.3768  0.7916
  730TIP3    H223606   4.053   6.075   5.623  1.4019 -1.1243  0.3458
  731TIP3   OH223607   5.028   0.335   4.708  0.5102  0.2167 -0.0147
  731TIP3    H123608   5.088   0.345   4.783  1.8777 -1.2630 -0.9026
  731TIP3    H223609   4.950   0.385   4.734  1.5876  1.0569  1.7238
  732TIP3   OH223610   0.366   3.018   1.063 -0.3452 -0.5880 -0.1749
  732TIP3    H123611   0.369   3.020   1.158  1.4609  1.7312 -0.2534
  732TIP3    H223612   0.273   3.029   1.041 -0.7320 -0.8788  1.2907
  733TIP3   OH223613   4.054   6.071   0.160 -0.2845  0.1581  0.3229
  733TIP3    H123614   4.144   6.055   0.134 -0.3151 -1.3911  1.1498
  733TIP3    H223615   4.050   6.047   0.253 -1.0411  2.2371  0.8754
  734TIP3   OH223616   0.014   5.361  15.128  0.4499 -0.1530 -0.4731
  734TIP3    H123617   0.058   5.402  15.203  0.4021  1.2702 -1.2045
  734TIP3    H223618   0.085   5.331  15.071  0.4951 -1.7152  0.3656
  735TIP3   OH223619   2.087   3.334   4.803 -0.4785 -0.0827  0.3546
  735TIP3    H123620   2.075   3.336   4.898  0.0836 -3.9370  0.6127
  735TIP3    H223621   2.181   3.350   4.790 -0.1756 -1.5075  0.6415
  736TIP3   OH223622   3.735   0.020  15.098 -0.3116 -0.7097 -0.4984
  736TIP3    H123623   3.721  -0.069  15.066 -1.5014 -0.8282  0.3343
  736TIP3    H223624   3.825   0.041  15.072 -0.5687 -1.5321 -2.1559
  737TIP3   OH223625   3.283   2.666   3.876 -0.0208  0.4871  0.0959
  737TIP3    H123626   3.293   2.576   3.907 -1.9474  0.8370  1.8195
  737TIP3    H223627   3.332   2.719   3.939 -0.0372  0.7802 -0.1364
  738TIP3   OH223628   5.248   4.525   4.131 -0.2698 -0.4277  0.0745
  738TIP3    H123629   5.165   4.503   4.173 -0.8036 -0.1519 -0.8362
  738TIP3    H223630   5.224   4.580   4.057  0.7063 -0.5570 -0.3445
  739TIP3   OH223631   1.077   6.522   2.000 -0.3384 -0.4955 -0.1972
  739TIP3    H123632   1.097   6.534   1.908 -0.5426  0.3657 -0.1354
  739TIP3    H223633   1.162   6.529   2.044 -0.6386  2.5347  0.0044
  740TIP3   OH223634   2.842   4.791  13.924 -0.0098  0.1459  0.5372
  740TIP3    H123635   2.748   4.774  13.935  0.0944 -0.8006  0.0461
  740TIP3    H223636   2.870   4.729  13.856  1.0171  0.2550  0.8454
  741TIP3   OH223637   5.302   2.966   3.054 -0.1485  0.4264 -0.2291
  741TIP3    H123638   5.381   2.930   3.013  0.4555  1.2329  0.1954
  741TIP3    H223639   5.283   3.045   3.003  0.6335  1.4628  1.0365
  742TIP3   OH223640   1.695   0.098   0.923 -0.3758  0.3286  0.2994
  742TIP3    H123641   1.631   0.168   0.916 -0.7422 -0.1414 -1.1832
  742TIP3    H223642   1.660   0.028   0.867 -0.0371 -1.0410  1.7652
  743TIP3   OH223643   1.931   2.177   2.168  0.3778 -0.2926 -0.2962
  743TIP3    H123644   1.953   2.088   2.139  0.0663  0.0883 -1.7582
  743TIP3    H223645   1.836   2.181   2.163  0.3451 -0.1173  0.5004
  744TIP3   OH223646   1.523   1.412   0.896  0.1573  0.3367 -0.0100
  744TIP3    H123647   1.444   1.425   0.843  0.2211  2.0417  0.2705
  744TIP3    H223648   1.585   1.369   0.837 -1.1011 -1.3450 -0.1196
  745TIP3   OH223649   2.738   4.319   1.061  0.0989  0.3103 -0.3691
  745TIP3    H123650   2.731   4.391   1.123 -0.5084  0.9547 -1.1689
  745TIP3    H223651   2.669   4.336   0.997  0.1247 -0.8420 -0.7107
  746TIP3   OH223652   6.408   5.578   2.626 -0.6344 -0.1260  0.7658
  746TIP3    H123653   6.365   5.636   2.563 -1.7649 -0.7691  0.9328
  746TIP3    H223654   6.363   5.494   2.616 -0.8831 -0.2127  2.4926
  747TIP3   OH223655   6.406   5.260   1.007 -0.0756 -0.0486 -0.3379
  747TIP3    H123656   6.420   5.355   1.012 -1.4996  0.1919 -0.7150
  747TIP3    H223657   6.340   5.242   1.074 -0.5590 -0.6197 -0.9623
  748TIP3   OH223658   4.030   4.823  14.351 -0.2602 -0.4183  0.1305
  748TIP3    H123659   4.126   4.826  14.347 -0.2779 -0.7416 -0.4973
  748TIP3    H223660   4.010   4.830  14.445  0.3518  0.2795  0.2099
  749TIP3   OH223661   2.738   5.851   0.755 -0.4696  0.3079  0.3917
  749TIP3    H123662   2.716   5.800   0.833 -0.3832  0.5707  0.5909
  749TIP3    H223663   2.661   5.907   0.741  0.9744  3.0111  2.5381
  750TIP3   OH223664   6.475   3.521  15.562  0.5295  0.0267 -0.6374
  750TIP3    H123665   6.532   3.467  15.617  0.1461 -0.4367 -0.6967
  750TIP3    H223666   6.390   3.477  15.565 -0.0406  1.1678  0.1042
  751TIP3   OH223667   4.532   6.455  16.873 -0.7058  0.0917 -0.0182
  751TIP3    H123668   4.574   6.540  16.884 -1.4989  0.1757  3.0328
  751TIP3    H223669   4.478   6.446  16.952 -2.1671 -2.3603 -1.2678
  752TIP3   OH223670   5.921   1.928   3.834 -0.1343 -0.2470  0.6542
  752TIP3    H123671   5.917   1.919   3.929  0.2382 -0.7993  0.6224
  752TIP3    H223672   5.954   2.016   3.819 -0.2674 -0.1320  1.0362
  753TIP3   OH223673   1.318   5.245  16.781  0.0613  0.1905 -0.2703
  753TIP3    H123674   1.318   5.217  16.872  0.4555  2.4710  0.4604
  753TIP3    H223675   1.360   5.173  16.733  0.7025 -0.6030  1.4601
  754TIP3   OH223676   0.761   2.715  15.980 -0.7930  0.6320 -0.0059
  754TIP3    H123677   0.740   2.787  15.921 -0.8924  0.0012 -0.7441
  754TIP3    H223678   0.683   2.706  16.035  0.2100  2.7981  1.8618
  755TIP3   OH223679   2.964   1.844   1.798 -0.6711  0.4448 -0.7772
  755TIP3    H123680   3.049   1.884   1.782  0.2982 -2.1290 -2.2804
  755TIP3    H223681   2.929   1.893   1.872  1.8318  1.9697 -0.5356
  756TIP3   OH223682   5.027   1.771  16.192 -0.2231  0.1100 -0.9500
  756TIP3    H123683   5.044   1.689  16.144 -0.7462  0.5893 -1.9813
  756TIP3    H223684   5.113   1.812  16.201 -0.2335  0.5001 -2.4072
  757TIP3   OH223685   5.940   2.978  12.557 -0.1133  0.7560 -0.3431
  757TIP3    H123686   5.870   2.928  12.515  0.2599  0.0513 -0.1517
  757TIP3    H223687   6.018   2.958  12.506  0.6465 -1.2979  1.5150
  758TIP3   OH223688   2.679   0.571   3.086 -0.1731  0.0886  0.1442
  758TIP3    H123689   2.654   0.607   3.000 -0.7621  1.0987  0.7321
  758TIP3    H223690   2.599   0.576   3.138  0.5384  0.7390  1.1825
  759TIP3   OH223691   4.467   5.450   5.640  0.2058 -0.1705  0.2442
  759TIP3    H123692   4.461   5.456   5.545  1.1657  0.7029  0.2217
  759TIP3    H223693   4.481   5.357   5.658 -1.4192 -0.5519 -0.3608
  760TIP3   OH223694   0.479   1.532  14.280 -0.4241 -0.2553  0.2313
  760TIP3    H123695   0.385   1.536  14.299 -0.3948 -0.2515  0.3772
  760TIP3    H223696   0.484   1.494  14.192 -0.5532 -0.4487  0.3088
  761TIP3   OH223697   3.939   2.153  15.347 -0.1031  0.4588  0.0933
  761TIP3    H123698   4.022   2.129  15.388  0.2810 -1.3165 -1.6545
  761TIP3    H223699   3.963   2.222  15.285 -0.3029  1.4691  1.1215
  762TIP3   OH223700   5.570   0.412  15.642  0.2195  0.2414 -0.1612
  762TIP3    H123701   5.644   0.453  15.687  0.7167 -1.4560  0.6208
  762TIP3    H223702   5.494   0.432  15.697  0.6065 -0.6420  0.7162
  763TIP3   OH223703   4.149   5.791   1.175  0.4904  0.4192  0.0018
  763TIP3    H123704   4.183   5.706   1.202  0.4924  0.0417 -1.1246
  763TIP3    H223705   4.163   5.792   1.080 -0.8665  1.0521 -0.2001
  764TIP3   OH223706   1.467   5.511  13.840  0.0404 -0.3052 -0.1498
  764TIP3    H123707   1.473   5.509  13.745  2.7854  0.0564 -0.0181
  764TIP3    H223708   1.509   5.592  13.866 -1.9695  0.3146  1.3393
  765TIP3   OH223709   4.635   5.826   0.254 -0.3617  0.0327  0.0941
  765TIP3    H123710   4.581   5.804   0.330 -0.3783 -1.0446 -0.2233
  765TIP3    H223711   4.693   5.750   0.244 -0.9556 -0.2164 -1.5053
  766TIP3   OH223712   1.529   1.517   1.806  0.3071 -0.9837 -0.1335
  766TIP3    H123713   1.545   1.502   1.900 -0.9469  1.4693  0.5031
  766TIP3    H223714   1.436   1.534   1.800  1.0034  2.7480 -1.2528
  767TIP3   OH223715   6.038   5.532   0.412 -0.7419 -0.2447  0.5240
  767TIP3    H123716   5.963   5.476   0.432  0.6922 -2.1081  0.8080
  767TIP3    H223717   6.024   5.559   0.321 -2.5882  0.7836  1.0881
  768TIP3   OH223718   5.763   6.627   4.285  0.3875 -0.0053 -0.2454
  768TIP3    H123719   5.831   6.695   4.289 -0.2604  0.6691 -0.6256
  768TIP3    H223720   5.681   6.675   4.276 -0.0815 -0.8378 -0.4755
  769TIP3   OH223721   6.669   4.530   5.891 -0.0090  0.0770  0.5325
  769TIP3    H123722   6.715   4.571   5.964 -2.0137 -0.8045  2.3517
  769TIP3    H223723   6.734   4.471   5.852  1.3597  1.2428  1.0002
  770TIP3   OH223724   2.732   1.300  17.062  0.3216  0.1689 -0.9603
  770TIP3    H123725   2.827   1.303  17.064  0.2950  0.7256 -0.4046
  770TIP3    H223726   2.710   1.213  17.097  0.5785  0.8201  0.8862
  771TIP3   OH223727   4.952   6.573  17.112 -0.2529  0.0592 -0.2945
  771TIP3    H123728   4.954   6.558  17.017 -0.1454  0.3627 -0.3409
  771TIP3    H223729   4.986   6.662  17.123  0.2144 -0.1637  0.0750
  772TIP3   OH223730   1.876   3.046   1.495  0.4603 -0.1237  0.0385
  772TIP3    H123731   1.820   2.987   1.444 -0.7137 -0.1437  1.3047
  772TIP3    H223732   1.932   2.987   1.545 -0.0305 -0.1562  0.5563
  773TIP3   OH223733   1.015   6.705  10.650 -0.3126 -0.3577  0.3449
  773TIP3    H123734   1.093   6.694  10.705 -0.2432 -1.8936 -0.0466
  773TIP3    H223735   1.036   6.780  10.594  0.1705  0.3519  1.4310
  774TIP3   OH223736   6.253   3.861   1.590 -0.1288 -0.2095 -0.9723
  774TIP3    H123737   6.193   3.924   1.550 -1.2856 -1.2605 -0.9575
  774TIP3    H223738   6.202   3.779   1.593  1.8790 -1.5445 -2.4688
  775TIP3   OH223739   3.191   2.496  14.925  0.0131 -0.0051  0.1647
  775TIP3    H123740   3.109   2.474  14.969 -0.1435  0.3814  0.0695
  775TIP3    H223741   3.242   2.543  14.991 -0.3354  0.8225 -0.1447
  776TIP3   OH223742   5.597   1.266   5.308  0.3393  0.4223 -1.1245
  776TIP3    H123743   5.524   1.311   5.265 -2.1108 -1.1184  1.2390
  776TIP3    H223744   5.593   1.295   5.399 -0.3363 -3.2525  0.1049
  777TIP3   OH223745   6.004   5.620   5.210 -0.7501 -0.7825 -0.3297
  777TIP3    H123746   6.058   5.655   5.139 -0.1305  0.4382  0.7113
  777TIP3    H223747   6.061   5.558   5.255 -1.0791 -1.4132 -0.7726
  778TIP3   OH223748   6.531   3.703   4.331  0.3937 -0.1094 -0.5543
  778TIP3    H123749   6.483   3.624   4.306  0.3728 -1.1150  2.4803
  778TIP3    H223750   6.589   3.675   4.401  0.3281  2.5885  0.6409
  779TIP3   OH223751   2.622   6.617  11.294 -0.2037  0.0587 -0.6224
  779TIP3    H123752   2.548   6.560  11.314  1.0752 -1.1247  0.8856
  779TIP3    H223753   2.637   6.605  11.200 -0.6221 -1.2748 -0.5237
  780TIP3   OH223754   0.211   6.328   2.799  0.1209  0.2960 -0.6011
  780TIP3    H123755   0.162   6.249   2.776 -2.1365  1.2989  0.6296
  780TIP3    H223756   0.252   6.307   2.883 -2.0376  1.0411  0.6877
  781TIP3   OH223757   0.235   6.071   2.543 -0.5342 -0.2293 -0.3757
  781TIP3    H123758   0.252   6.119   2.463 -0.5235 -2.3465 -1.6968
  781TIP3    H223759   0.140   6.076   2.555 -0.1815  2.9833  1.3961
  782TIP3   OH223760   6.237   5.446  11.173 -0.1116 -0.3844 -0.0793
  782TIP3    H123761   6.272   5.357  11.175 -2.8785 -1.5507 -1.1893
  782TIP3    H223762   6.241   5.472  11.081 -2.3802 -0.6827 -0.2948
  783TIP3   OH223763   5.858   4.678  15.698 -1.2037 -0.7154 -0.3749
  783TIP3    H123764   5.894   4.644  15.616 -1.1721 -1.3984 -0.0723
  783TIP3    H223765   5.802   4.752  15.670  0.7800  0.6636 -0.8036
  784TIP3   OH223766   6.115   4.687  13.569  0.1652 -0.4695 -0.2542
  784TIP3    H123767   6.029   4.693  13.610 -0.2204  2.4843 -1.3648
  784TIP3    H223768   6.104   4.624  13.498 -0.8183 -0.8176  0.2021
  785TIP3   OH223769   1.415   2.186   1.044 -0.0329  0.1887  0.5080
  785TIP3    H123770   1.328   2.170   1.006  0.0717 -3.1112  1.4593
  785TIP3    H223771   1.433   2.278   1.025 -3.0086  0.5006 -1.1871
  786TIP3   OH223772   1.810   1.285  13.780 -0.2732 -0.3828 -0.7621
  786TIP3    H123773   1.763   1.257  13.859  1.2921 -1.1109 -0.0437
  786TIP3    H223774   1.902   1.275  13.804  0.2524  1.5661 -1.9205
  787TIP3   OH223775   5.872   0.234   4.530  0.0927 -0.2179 -0.4865
  787TIP3    H123776   5.792   0.193   4.497 -0.7707  0.6357  0.5126
  787TIP3    H223777   5.923   0.162   4.567 -1.4701 -0.3983  1.4004
  788TIP3   OH223778   4.233   5.087   2.833 -0.3432  0.3218 -0.5115
  788TIP3    H123779   4.180   5.153   2.879 -0.1738  1.3263 -1.7243
  788TIP3    H223780   4.169   5.035   2.785 -0.4304 -0.0552  0.0081
  789TIP3   OH223781   0.126   2.798  16.848  0.3091  0.7325  0.1775
  789TIP3    H123782   0.060   2.800  16.918 -0.0198 -1.3067 -0.0492
  789TIP3    H223783   0.085   2.746  16.778  1.4979  0.8869 -0.6445
  790TIP3   OH223784   4.863   5.265   6.385  0.4216  0.6736  0.4819
  790TIP3    H123785   4.825   5.343   6.344  1.0946  0.9083  0.2936
  790TIP3    H223786   4.920   5.228   6.318 -2.3233 -1.8385 -0.6211
  791TIP3   OH223787   4.687   6.628   5.842 -0.4117  0.2456  0.1471
  791TIP3    H123788   4.729   6.714   5.835 -2.3005  1.1737  0.0600
  791TIP3    H223789   4.736   6.584   5.912 -0.0785  1.7867  0.9153
  792TIP3   OH223790   0.031   3.368   0.922 -0.6736 -0.2274  0.0163
  792TIP3    H123791   0.125   3.353   0.935 -0.5897  1.0898  1.1083
  792TIP3    H223792  -0.008   3.347   1.007 -1.6076 -2.4785 -0.9398
  793TIP3   OH223793   5.395   1.556   5.517  0.2521  0.0450 -0.1042
  793TIP3    H123794   5.345   1.604   5.450  1.6503  1.8077  0.0765
  793TIP3    H223795   5.371   1.598   5.599 -0.8933 -1.6383  0.4360
  794TIP3   OH223796   5.699   2.816   6.083 -0.8611 -0.2041 -0.6468
  794TIP3    H123797   5.741   2.734   6.109  1.0583  1.2804  1.1998
  794TIP3    H223798   5.613   2.814   6.126  0.2451 -0.0893  1.6754
  795TIP3   OH223799   2.529   1.532  10.485  0.4269  0.1293  0.4074
  795TIP3    H123800   2.622   1.521  10.464  0.4883  1.9387 -0.3463
  795TIP3    H223801   2.529   1.583  10.566  0.1007  0.5175  0.1644
  796TIP3   OH223802   1.850   6.297   6.619  0.2412 -0.1973 -0.7260
  796TIP3    H123803   1.849   6.219   6.674 -0.4469 -0.1998 -0.7340
  796TIP3    H223804   1.761   6.302   6.583 -0.1493  1.4115  0.4248
  797TIP3   OH223805   2.626   3.778  10.433  0.0613  0.7063 -0.2991
  797TIP3    H123806   2.574   3.849  10.470 -1.5052  0.1065 -1.2655
  797TIP3    H223807   2.717   3.805  10.445 -0.3512  0.6818  3.6892
  798TIP3   OH223808   4.382   2.509  11.563 -0.0604 -0.5092 -0.1220
  798TIP3    H123809   4.319   2.549  11.622  0.4661 -2.2804  1.7250
  798TIP3    H223810   4.343   2.425  11.540  0.5542 -0.5972 -0.8518
  799TIP3   OH223811   0.001   4.812  13.900  0.1134  0.5369 -0.2247
  799TIP3    H123812  -0.047   4.867  13.962 -1.7918 -0.5749 -0.6725
  799TIP3    H223813  -0.053   4.812  13.821 -0.2893 -2.4759 -0.0169
  800TIP3   OH223814   1.423   3.191   4.645 -0.2819  0.6768 -0.5665
  800TIP3    H123815   1.354   3.169   4.583  0.5555 -1.5237 -0.7601
  800TIP3    H223816   1.474   3.260   4.601  0.3538 -0.9070 -2.3714
  801TIP3   OH223817   2.911   5.032  12.948 -0.1749 -0.6175 -0.5231
  801TIP3    H123818   2.903   5.127  12.938 -0.3244 -0.7853 -2.1400
  801TIP3    H223819   2.974   5.020  13.019 -1.0848  0.6852  0.5260
  802TIP3   OH223820   3.689   4.155   3.552  0.3516  0.0937  0.4721
  802TIP3    H123821   3.780   4.185   3.554 -0.2253  1.9072  1.1678
  802TIP3    H223822   3.693   4.064   3.582  1.6632  0.9056  2.8877
  803TIP3   OH223823   2.205   5.486  16.915 -0.2895 -0.1645 -0.0902
  803TIP3    H123824   2.212   5.569  16.866 -0.2376 -0.0514  0.1081
  803TIP3    H223825   2.283   5.485  16.970  0.1059 -0.7188 -0.6591
  804TIP3   OH223826   3.095   4.727  14.793  0.3278 -0.0090 -0.2243
  804TIP3    H123827   3.077   4.634  14.783  0.3911 -0.4264  3.0356
  804TIP3    H223828   3.008   4.768  14.797  0.2436 -0.2677  0.8805
  805TIP3   OH223829   0.255   1.173  13.723 -0.0609  0.5205  0.1184
  805TIP3    H123830   0.287   1.216  13.644  2.5356  0.4048  1.0339
  805TIP3    H223831   0.261   1.080  13.704  1.1881  0.4746  0.6191
  806TIP3   OH223832   5.615   1.488   4.634 -0.3684  0.6813  0.2230
  806TIP3    H123833   5.556   1.441   4.577  0.3748  1.0705 -0.8876
  806TIP3    H223834   5.699   1.443   4.625 -0.3147  0.5490  1.2573
  807TIP3   OH223835   3.495   4.163   2.244  0.2495 -0.3811  0.0883
  807TIP3    H123836   3.585   4.196   2.252  0.4281 -0.7585 -0.3818
  807TIP3    H223837   3.448   4.208   2.314  1.0454 -1.0063  1.0536
  808TIP3   OH223838   4.683   1.689   4.331 -0.5125 -0.0183 -0.0979
  808TIP3    H123839   4.749   1.646   4.276 -0.7095 -0.3687 -0.0608
  808TIP3    H223840   4.639   1.617   4.376 -0.9065  0.2207 -0.1072
  809TIP3   OH223841   5.757   6.535  16.264 -0.0128  0.1990  0.4598
  809TIP3    H123842   5.750   6.503  16.354  0.8852 -1.5059 -0.0690
  809TIP3    H223843   5.766   6.630  16.273  0.6572 -0.0236  2.1957
  810TIP3   OH223844   6.060   0.225  10.813 -0.1552 -0.3185  0.1360
  810TIP3    H123845   6.033   0.143  10.854 -0.8402 -0.7684 -1.1729
  810TIP3    H223846   6.155   0.221  10.812 -0.1997 -1.3877 -0.4720
  811TIP3   OH223847   3.337   3.836  14.074  0.5622  0.1240 -0.2606
  811TIP3    H123848   3.316   3.768  14.010  0.6751  0.8964 -1.1325
  811TIP3    H223849   3.429   3.857  14.058  0.3333  0.9941 -0.4972
  812TIP3   OH223850   1.588   6.057  14.419 -0.3388  0.5980  0.1554
  812TIP3    H123851   1.494   6.057  14.434  0.0449  0.7694  2.8568
  812TIP3    H223852   1.623   6.114  14.487  1.8180 -0.5127  0.0322
  813TIP3   OH223853   1.817   4.325  15.281  0.1621  0.0475  0.0560
  813TIP3    H123854   1.874   4.249  15.288  1.6941  1.0051 -1.8341
  813TIP3    H223855   1.764   4.309  15.203  2.0198  1.9034 -1.6328
  814TIP3   OH223856   0.537   1.821   1.974 -0.1340  0.0356  0.6971
  814TIP3    H123857   0.574   1.797   1.889 -4.6750  0.3667 -1.5094
  814TIP3    H223858   0.564   1.912   1.986  2.9476 -0.8533  1.0815
  815TIP3   OH223859   4.183   6.266   5.189  0.4865  0.0569  0.0813
  815TIP3    H123860   4.088   6.262   5.179  0.5844  0.5878 -1.1000
  815TIP3    H223861   4.197   6.328   5.261 -0.0501  0.1167  0.1348
  816TIP3   OH223862   1.154   5.127   1.550  0.5605 -0.0722 -1.0174
  816TIP3    H123863   1.067   5.138   1.512 -0.5336 -2.5001  0.6969
  816TIP3    H223864   1.201   5.072   1.487 -0.8565 -3.0696  0.4479
  817TIP3   OH223865   0.960   2.459   5.566 -0.0768  0.5720 -0.0620
  817TIP3    H123866   0.931   2.550   5.569 -0.3546  0.4299  1.6797
  817TIP3    H223867   1.042   2.458   5.615 -0.9369 -0.4346  1.3705
  818TIP3   OH223868   1.183   2.897  15.644 -0.5350  0.0799  0.3152
  818TIP3    H123869   1.275   2.923  15.649 -0.3786 -0.3657 -0.2881
  818TIP3    H223870   1.137   2.975  15.613 -0.1027 -0.2646 -1.2255
  819TIP3   OH223871   4.144   2.983  16.192 -0.0300  0.3323  0.4782
  819TIP3    H123872   4.049   2.996  16.191  0.0855  1.1763 -0.0971
  819TIP3    H223873   4.176   3.044  16.258  0.1590  0.4105  0.3146
  820TIP3   OH223874   3.166   3.794   0.086  0.4741 -0.1919  0.2179
  820TIP3    H123875   3.126   3.874   0.054 -0.4321  0.0820  1.9929
  820TIP3    H223876   3.249   3.822   0.124  0.1920 -0.0966  0.7696
  821TIP3   OH223877   5.663   1.780   4.683  0.0081  0.4967 -0.1415
  821TIP3    H123878   5.670   1.785   4.778 -0.4303  2.0921 -0.1716
  821TIP3    H223879   5.648   1.687   4.664 -0.4787  0.2589  1.3754
  822TIP3   OH223880   6.524   3.833   4.993 -0.1410 -0.2108 -0.2538
  822TIP3    H123881   6.548   3.745   4.964  0.3099  0.5665 -2.3373
  822TIP3    H223882   6.451   3.858   4.936  0.1388  1.0066 -0.0961
  823TIP3   OH223883   0.890   4.791   4.994 -0.2374 -0.4343  0.9469
  823TIP3    H123884   0.878   4.793   5.089  0.2524 -0.1217  1.0068
  823TIP3    H223885   0.971   4.741   4.982 -0.0685 -0.1025  0.7187
  824TIP3   OH223886   1.380   3.405  14.185  0.1495 -0.2548 -0.4647
  824TIP3    H123887   1.287   3.402  14.165 -0.4101 -0.1904  1.9975
  824TIP3    H223888   1.402   3.498  14.187 -0.2751 -0.1839  1.2838
  825TIP3   OH223889   4.300   6.108  13.009 -0.3068 -0.1748  0.2188
  825TIP3    H123890   4.344   6.035  12.965 -0.1963  0.3464 -0.5486
  825TIP3    H223891   4.207   6.095  12.988 -0.2189  0.2662 -0.4787
  826TIP3   OH223892   3.101   6.012  16.979 -0.6324  0.2537  0.2324
  826TIP3    H123893   3.043   5.936  16.972 -1.6962  0.8698  2.0921
  826TIP3    H223894   3.085   6.061  16.898 -1.7526 -0.2640  0.1240
  827TIP3   OH223895   3.385   3.476   5.734 -0.2568 -0.3505  0.4241
  827TIP3    H123896   3.442   3.538   5.687 -0.1445 -1.3743 -0.8164
  827TIP3    H223897   3.324   3.532   5.782  1.5964  0.7738  1.5274
  828TIP3   OH223898   6.446   5.569  14.191 -0.4553  0.0911 -0.6046
  828TIP3    H123899   6.501   5.646  14.179 -0.7019  0.1771 -1.1963
  828TIP3    H223900   6.492   5.516  14.256  1.4881 -0.8953 -2.7083
  829TIP3   OH223901   4.348   0.672  14.147 -0.3156  0.2632  0.1433
  829TIP3    H123902   4.289   0.745  14.164 -0.1514  0.1261  1.3037
  829TIP3    H223903   4.321   0.639  14.061 -2.2079 -0.0628  0.8339
  830TIP3   OH223904   4.946   3.601   3.041  0.3548 -0.2394  0.2362
  830TIP3    H123905   4.972   3.693   3.030  1.7259 -0.6686 -0.2049
  830TIP3    H223906   4.991   3.572   3.120  1.6299 -1.1108 -0.7746
  831TIP3   OH223907   4.268   2.686   0.854 -0.4752  0.0941 -0.4731
  831TIP3    H123908   4.315   2.756   0.809  1.4038 -1.1638 -0.5582
  831TIP3    H223909   4.292   2.696   0.946 -1.4954  0.5231 -0.2452
  832TIP3   OH223910   6.665   3.473  13.825  0.5344  0.1392  0.2776
  832TIP3    H123911   6.725   3.497  13.754  1.9159  1.1005  1.7183
  832TIP3    H223912   6.603   3.546  13.829 -1.7436 -1.5872 -2.2367
  833TIP3   OH223913   3.493   2.132  12.350 -0.5121 -0.3032 -0.0914
  833TIP3    H123914   3.586   2.154  12.349 -0.7985  0.8831 -0.6483
  833TIP3    H223915   3.477   2.090  12.265 -0.5930 -0.0329 -0.2122
  834TIP3   OH223916   0.802   4.869   0.612 -0.1366  0.1891 -0.6806
  834TIP3    H123917   0.766   4.798   0.560 -1.6422  1.6469 -1.6836
  834TIP3    H223918   0.858   4.917   0.551 -0.2722  0.7009 -0.4049
  835TIP3   OH223919   2.293   4.685  16.015  0.1117 -0.1386 -0.1021
  835TIP3    H123920   2.297   4.759  15.954 -1.4090 -0.0230 -0.0785
  835TIP3    H223921   2.199   4.672  16.031  0.4270 -1.2185  0.9385
  836TIP3   OH223922   1.409   5.859  11.342 -0.0682 -0.2726  0.2978
  836TIP3    H123923   1.383   5.870  11.434  1.2018  0.5065  0.5662
  836TIP3    H223924   1.413   5.948  11.307  1.2480 -0.4536 -0.0156
  837TIP3   OH223925   2.111   5.492  15.845 -0.1036  0.4033  0.0691
  837TIP3    H123926   2.071   5.420  15.797  0.2992 -1.2406  2.1152
  837TIP3    H223927   2.036   5.543  15.877 -0.4651 -0.3052  0.3761
  838TIP3   OH223928   4.648   0.875   0.136  0.4024  0.5170  0.6882
  838TIP3    H123929   4.681   0.816   0.068 -1.6309  0.6002 -0.4192
  838TIP3    H223930   4.725   0.922   0.167  1.8542 -1.7775  0.6749
  839TIP3   OH223931   2.966   4.003   1.995  0.4064  0.0875  0.2438
  839TIP3    H123932   3.001   3.914   2.005  0.6433 -0.0396 -1.5713
  839TIP3    H223933   3.039   4.053   1.958 -0.7284  0.2625 -1.7988
  840TIP3   OH223934   6.239   6.281   1.747  0.0136 -0.2054 -0.0980
  840TIP3    H123935   6.265   6.290   1.655 -0.2383 -1.6014 -0.3110
  840TIP3    H223936   6.143   6.279   1.744 -0.0064  0.1464  0.2425
  841TIP3   OH223937   6.666   4.978   3.187  0.4148 -0.0906 -0.2385
  841TIP3    H123938   6.580   4.941   3.168  0.5243 -0.4292 -0.0942
  841TIP3    H223939   6.652   5.035   3.262  0.1525  0.5405 -0.7680
  842TIP3   OH223940   4.111   3.989   2.518 -0.6180  0.1670 -0.1030
  842TIP3    H123941   4.187   3.940   2.490  0.0689  1.1666 -0.0156
  842TIP3    H223942   4.047   3.922   2.544 -0.3481 -0.7000 -1.6313
  843TIP3   OH223943   2.567   1.608   0.779 -0.2858 -0.0349  0.2090
  843TIP3    H123944   2.588   1.641   0.866 -1.3273  2.2228 -0.3558
  843TIP3    H223945   2.520   1.680   0.736 -1.6214 -1.8368 -1.5013
  844TIP3   OH223946   0.054   2.484   1.403 -0.1109 -0.2924  0.1875
  844TIP3    H123947   0.003   2.452   1.477  0.0673  1.0266  0.8914
  844TIP3    H223948   0.123   2.537   1.442  0.0877  0.2822 -0.9175
  845TIP3   OH223949   0.948   5.425  11.908 -0.0092 -0.0486 -0.4063
  845TIP3    H123950   0.874   5.484  11.920 -0.8643 -1.1631 -0.1785
  845TIP3    H223951   0.972   5.434  11.816 -1.6466 -1.1073 -0.9429
  846TIP3   OH223952   0.541   5.880   0.895 -0.4408  0.6104  0.3491
  846TIP3    H123953   0.572   5.965   0.862 -0.3495  0.0571 -1.0414
  846TIP3    H223954   0.615   5.845   0.944 -0.3520  1.1774  0.6283
  847TIP3   OH223955   3.297   2.708   2.396  0.4375 -0.2438 -0.1342
  847TIP3    H123956   3.289   2.647   2.470  0.4853 -1.5174 -1.1535
  847TIP3    H223957   3.304   2.794   2.436 -3.1675 -0.5093  1.3017
  848TIP3   OH223958   1.131   6.621  13.205 -0.4860  0.0343 -0.8848
  848TIP3    H123959   1.219   6.581  13.208 -1.0369 -1.1764 -0.4334
  848TIP3    H223960   1.127   6.676  13.283 -0.6575 -1.0765 -0.0966
  849TIP3   OH223961   0.379   0.678  11.066 -0.1691 -0.1046 -0.1782
  849TIP3    H123962   0.355   0.589  11.043 -0.0693  0.4484 -2.4551
  849TIP3    H223963   0.343   0.732  10.996 -1.4845  1.8131  1.9062
  850TIP3   OH223964   2.926   1.240   0.753 -0.2439 -0.1023  0.1397
  850TIP3    H123965   2.990   1.286   0.808 -0.1662  1.2802 -1.0733
  850TIP3    H223966   2.970   1.226   0.670 -0.8432 -0.9298 -0.0488
  851TIP3   OH223967   4.959   4.608   2.977  0.3360  0.0506  0.2648
  851TIP3    H123968   4.972   4.697   2.945  0.9193  0.2088  0.9248
  851TIP3    H223969   4.885   4.575   2.927 -0.6639  1.3305  0.8596
  852TIP3   OH223970   6.347   2.448  13.525 -0.2090 -0.0083  0.2554
  852TIP3    H123971   6.317   2.539  13.526  1.0120  0.4552 -1.9162
  852TIP3    H223972   6.386   2.434  13.612  2.2109  2.4820 -0.3590
  853TIP3   OH223973   4.008   4.717  16.082 -0.8962 -0.2616 -0.3371
  853TIP3    H123974   4.100   4.728  16.107 -1.0945  1.2163 -0.2497
  853TIP3    H223975   3.965   4.692  16.164 -0.4623 -1.7509 -0.5362
  854TIP3   OH223976   5.944   1.023   1.473 -0.0349  0.3205 -0.0448
  854TIP3    H123977   6.031   1.002   1.438 -0.5073 -2.2363  0.1738
  854TIP3    H223978   5.953   1.110   1.511  2.5327 -0.0609  0.3078
  855TIP3   OH223979   0.899   1.746   2.787 -0.2533  0.2434 -0.6241
  855TIP3    H123980   0.950   1.811   2.739  0.4639  0.2921  0.1898
  855TIP3    H223981   0.863   1.794   2.862 -1.2195  0.1284 -1.0138
  856TIP3   OH223982   2.090   3.596  11.742  0.1204 -0.2397  0.3928
  856TIP3    H123983   2.139   3.676  11.763  0.2269 -0.5019  1.1324
  856TIP3    H223984   2.084   3.597  11.646 -1.1465  1.4062  0.4777
  857TIP3   OH223985   3.367   2.599  15.145 -0.2511  0.6007  0.2025
  857TIP3    H123986   3.400   2.513  15.121  0.3773  1.3250 -1.6466
  857TIP3    H223987   3.316   2.584  15.224  2.5981 -0.9409  1.8471
  858TIP3   OH223988   2.028   4.101  11.432  0.0212  0.5756 -0.1129
  858TIP3    H123989   1.967   4.173  11.444 -1.9031 -0.8717 -0.8899
  858TIP3    H223990   1.980   4.024  11.463  1.6626 -0.5160 -0.2203
  859TIP3   OH223991   4.898   2.617  12.011  0.1730  0.0090  0.3570
  859TIP3    H123992   4.982   2.572  12.017  1.2355  1.5852 -2.0013
  859TIP3    H223993   4.908   2.693  12.068  0.0865 -0.1802  0.6261
  860TIP3   OH223994   0.486   1.910   3.954  0.3616  0.0948  0.1284
  860TIP3    H123995   0.408   1.881   3.907  0.1958 -0.5814  0.7998
  860TIP3    H223996   0.472   2.003   3.971 -0.8872 -0.3055  1.3677
  861TIP3   OH223997   3.289   5.669   1.968 -0.2169  0.1776  0.0895
  861TIP3    H123998   3.323   5.720   1.894  1.3211  0.2249  0.8129
  861TIP3    H223999   3.360   5.671   2.032 -0.1188 -2.8780  0.1327
  862TIP3   OH224000   1.487   4.215  15.262 -0.2104  0.5766 -0.2006
  862TIP3    H124001   1.531   4.289  15.219  0.2392  0.8558  0.7355
  862TIP3    H224002   1.501   4.142  15.202  1.3162  0.7284 -0.0531
  863TIP3   OH224003   6.658   2.851   1.388  0.1682  0.1181 -0.1224
  863TIP3    H124004   6.744   2.869   1.425 -0.0686 -0.8115  0.9035
  863TIP3    H224005   6.596   2.881   1.455 -0.3078  0.5521 -0.7479
  864TIP3   OH224006   5.504   6.578  16.361  0.7327 -0.2366  0.0651
  864TIP3    H124007   5.465   6.616  16.439  0.9480  0.1545 -0.0177
  864TIP3    H224008   5.581   6.631  16.344 -0.3483  0.8781 -1.5088
  865TIP3   OH224009   6.743   6.357   5.131 -0.4749 -1.0089 -0.1427
  865TIP3    H124010   6.776   6.394   5.213 -2.3423 -0.0569  0.1923
  865TIP3    H224011   6.687   6.284   5.158  0.3561 -1.8717 -0.6736
  866TIP3   OH224012   2.877   3.882   2.309 -0.4955  1.1322  0.3612
  866TIP3    H124013   2.929   3.830   2.249 -0.0394  1.5063  0.4278
  866TIP3    H224014   2.797   3.832   2.321 -0.3854  0.8227 -0.1777
  867TIP3   OH224015   0.657   4.103   1.017  0.3752 -0.0688 -0.3634
  867TIP3    H124016   0.592   4.169   1.042 -0.0545  0.0952 -1.8356
  867TIP3    H224017   0.740   4.139   1.047 -0.2792 -0.5595  2.0720
  868TIP3   OH224018   2.624   4.888  16.562  0.2208  0.0721 -0.7247
  868TIP3    H124019   2.607   4.842  16.481  1.2933 -1.4636 -0.1065
  868TIP3    H224020   2.710   4.857  16.590 -0.1883  0.4456  1.0684
  869TIP3   OH224021   3.649   2.962   5.315 -0.3176 -0.0203 -0.6627
  869TIP3    H124022   3.683   3.006   5.392 -0.3737 -0.7377 -0.2231
  869TIP3    H224023   3.688   2.874   5.318 -0.6440 -0.1882 -1.2210
  870TIP3   OH224024   2.715   4.173  16.268 -0.0334 -0.3836  0.2676
  870TIP3    H124025   2.798   4.218  16.252 -0.8422  1.8899  2.1212
  870TIP3    H224026   2.737   4.080  16.264  1.8361  0.1295 -2.9446
  871TIP3   OH224027   5.248   4.328  15.970 -0.2162 -0.1471 -0.3634
  871TIP3    H124028   5.159   4.364  15.979 -0.0868  0.1695 -0.3437
  871TIP3    H224029   5.246   4.282  15.886 -0.5068 -0.4503 -0.1952
  872TIP3   OH224030   2.696   3.558   1.078 -0.0254  0.4654  0.1060
  872TIP3    H124031   2.699   3.492   1.147  1.1744  0.6418  0.2410
  872TIP3    H224032   2.603   3.576   1.065 -0.2737  0.2056  1.4693
  873TIP3   OH224033   2.786   2.550  12.610  0.3369 -0.3856  0.7918
  873TIP3    H124034   2.764   2.643  12.611 -0.7345 -0.6362  0.6154
  873TIP3    H224035   2.742   2.513  12.686 -0.2180 -0.9620  0.2055
  874TIP3   OH224036   4.785   3.268  17.172  0.2989 -0.5620  0.4258
  874TIP3    H124037   4.792   3.208  17.098 -0.1578  1.2230 -1.1148
  874TIP3    H224038   4.862   3.324  17.165  0.6138 -0.8361  1.7156
  875TIP3   OH224039   4.947   4.861  14.777  0.1921  0.2250  0.4316
  875TIP3    H124040   4.979   4.916  14.849  1.5691  0.9489 -0.6987
  875TIP3    H224041   4.874   4.910  14.739  0.9232  0.9290 -0.0848
  876TIP3   OH224042   4.703   0.393  12.092 -0.1067 -0.4201 -0.2774
  876TIP3    H124043   4.786   0.362  12.055 -0.0088 -1.1256  0.5168
  876TIP3    H224044   4.640   0.323  12.072 -0.4619  0.0077 -0.6749
  877TIP3   OH224045   6.300   5.726  13.935 -0.1212  0.6708  0.1341
  877TIP3    H124046   6.358   5.656  13.906  0.3044  0.7593  0.7553
  877TIP3    H224047   6.341   5.807  13.903 -0.5433  0.6551 -0.4696
  878TIP3   OH224048   5.312   3.557   2.193 -0.2674  0.5288 -0.1605
  878TIP3    H124049   5.285   3.577   2.283 -0.8039 -0.6197 -0.0526
  878TIP3    H224050   5.374   3.485   2.203 -0.7530  0.0289 -0.7501
  879TIP3   OH224051   2.994   2.951  12.704 -0.2209 -0.1919 -0.7963
  879TIP3    H124052   3.024   2.890  12.772  0.5165 -0.6693 -1.5371
  879TIP3    H224053   3.072   2.969  12.652 -0.4930  1.2216 -0.7177
  880TIP3   OH224054   2.501   3.074   2.402 -0.3503 -0.0204 -0.1950
  880TIP3    H124055   2.519   2.985   2.372 -1.2950 -0.3744  0.2545
  880TIP3    H224056   2.462   3.117   2.326  0.4385  0.1180 -0.5221
  881TIP3   OH224057   3.060   4.733  13.349 -0.1831 -0.3133 -0.5451
  881TIP3    H124058   3.115   4.735  13.427 -0.7364 -0.8892 -0.1276
  881TIP3    H224059   3.118   4.758  13.277  0.6579 -1.1001 -0.1439
  882TIP3   OH224060   5.491   5.255  14.258  0.2746 -0.0955  0.2450
  882TIP3    H124061   5.443   5.302  14.190  0.5894  0.1850  0.2194
  882TIP3    H224062   5.529   5.179  14.213 -1.0772 -0.9503  0.4867
  883TIP3   OH224063   4.046   1.577  13.264  0.4079  0.0331 -0.0469
  883TIP3    H124064   4.074   1.510  13.202 -0.4529  0.2360 -0.6599
  883TIP3    H224065   3.966   1.542  13.303 -0.8145  1.2853 -1.3636
  884TIP3   OH224066   5.479   4.274   5.577 -0.2629  0.1881 -0.1073
  884TIP3    H124067   5.424   4.196   5.585 -0.2093  0.1728  0.0973
  884TIP3    H224068   5.568   4.242   5.590 -0.0483 -0.0565 -1.9200
  885TIP3   OH224069   1.326   6.737   1.765  0.3480  0.3932 -0.2718
  885TIP3    H124070   1.275   6.658   1.748 -0.6341  1.1394 -0.9009
  885TIP3    H224071   1.271   6.808   1.731  1.5701  1.2702 -0.4472
  886TIP3   OH224072   0.795   1.905   5.717  0.8482  0.1507  0.4790
  886TIP3    H124073   0.859   1.853   5.668  1.1027  0.1961  0.7616
  886TIP3    H224074   0.714   1.853   5.713  0.4636  0.8613 -1.2421
  887TIP3   OH224075   0.026   5.482  14.630  0.0912 -0.2477  0.3714
  887TIP3    H124076   0.116   5.467  14.602 -0.2396 -1.6252  0.0523
  887TIP3    H224077   0.027   5.466  14.724 -0.1310 -1.7627  0.1307
  888TIP3   OH224078   6.624   3.585   0.672 -0.2831  0.2462 -0.2012
  888TIP3    H124079   6.647   3.607   0.762 -2.3662  0.4392  0.3250
  888TIP3    H224080   6.593   3.667   0.634 -0.0013  0.0337 -0.8919
  889TIP3   OH224081   3.465   6.080  16.819  0.0944 -0.3805  0.2146
  889TIP3    H124082   3.409   6.148  16.782  2.1727  1.2082 -0.0781
  889TIP3    H224083   3.536   6.070  16.755  0.4122 -2.0498  0.7975
  890TIP3   OH224084   6.378   6.011   4.500  0.3962 -0.1677 -0.1703
  890TIP3    H124085   6.376   5.949   4.427 -2.4100 -2.2823  1.5936
  890TIP3    H224086   6.297   6.061   4.492  1.9944  2.4707 -0.7771
  891TIP3   OH224087   5.280   1.696   2.172 -0.2903 -0.1870 -0.0919
  891TIP3    H124088   5.256   1.725   2.084 -0.0663 -0.1792 -0.1511
  891TIP3    H224089   5.204   1.718   2.226  0.2430  1.4103  0.0453
  892TIP3   OH224090   1.840   3.856   4.445 -0.0310  0.4519 -0.0249
  892TIP3    H124091   1.780   3.794   4.486  0.2985  1.3119  1.8394
  892TIP3    H224092   1.794   3.939   4.447 -0.3928  0.3324 -2.3359
  893TIP3   OH224093   1.659   3.047   4.664  0.0312  0.0812 -0.3340
  893TIP3    H124094   1.648   3.003   4.748 -1.3044 -0.3370 -0.7081
  893TIP3    H224095   1.577   3.096   4.652  0.6037  0.9136 -0.9425
  894TIP3   OH224096   6.594   6.176   1.665  0.1307  0.0885  0.0491
  894TIP3    H124097   6.559   6.094   1.630  0.1596 -0.1917  0.6587
  894TIP3    H224098   6.624   6.224   1.588 -3.0521  1.0555 -0.6279
  895TIP3   OH224099   2.324   3.316   5.098  0.3078  0.3334  0.0556
  895TIP3    H124100   2.344   3.321   5.005  0.8071  2.5917  0.2650
  895TIP3    H224101   2.229   3.329   5.103  0.0429 -1.3630 -0.2372
  896TIP3   OH224102   3.269   3.623   1.221  0.2663 -0.4177  0.1261
  896TIP3    H124103   3.175   3.642   1.230  0.2806 -0.7299  0.9948
  896TIP3    H224104   3.271   3.542   1.170  0.1087  0.2400 -0.9422
  897TIP3   OH224105   1.753   2.308   4.021 -0.6275 -0.2563 -0.0973
  897TIP3    H124106   1.680   2.252   3.998 -2.0760  1.1368  1.0199
  897TIP3    H224107   1.727   2.351   4.102  1.6064 -0.0578  0.5620
  898TIP3   OH224108   5.987   1.353   1.763 -0.2184 -0.2343  0.2346
  898TIP3    H124109   5.917   1.393   1.814  0.1170  1.6528 -0.7486
  898TIP3    H224110   5.948   1.335   1.678 -0.0885 -1.1038  0.3538
  899TIP3   OH224111   0.005   4.970  16.964  0.1186 -0.1547  0.2171
  899TIP3    H124112  -0.052   4.894  16.970  0.9444 -0.9485 -1.5015
  899TIP3    H224113  -0.036   5.026  16.898  0.3238  0.1451  0.3427
  900TIP3   OH224114   1.086   3.647   2.964 -0.4642  0.5099 -0.3515
  900TIP3    H124115   1.089   3.562   2.920  0.6067  0.3068  0.0893
  900TIP3    H224116   1.138   3.705   2.909  0.0099  0.5129  0.0928
  901TIP3   OH224117   6.760   6.596  12.004  0.7346 -0.0138 -0.3953
  901TIP3    H124118   6.845   6.569  11.970  1.2493  1.3691 -0.2287
  901TIP3    H224119   6.709   6.616  11.925  1.0219  0.4905 -0.4583
  902TIP3   OH224120   1.096   5.416   1.335  0.6568 -0.5619 -0.0949
  902TIP3    H124121   1.171   5.374   1.292  0.3286 -0.4730 -0.7562
  902TIP3    H224122   1.099   5.507   1.305  0.7811 -0.3443  0.5550
  903TIP3   OH224123   4.807   5.687   2.952 -0.3247 -0.6914  0.1420
  903TIP3    H124124   4.844   5.634   3.023 -1.3738  0.5861  1.6853
  903TIP3    H224125   4.883   5.726   2.910  0.2246  0.4238  2.0898
  904TIP3   OH224126   2.782   3.404  13.607 -0.2706  0.6747 -0.2778
  904TIP3    H124127   2.765   3.346  13.681  1.3629 -0.0201 -0.4292
  904TIP3    H224128   2.731   3.483  13.626 -1.8146 -0.4585  0.3599
  905TIP3   OH224129   5.598   3.244   3.996 -0.3546 -0.2887 -0.8254
  905TIP3    H124130   5.628   3.249   4.087  0.6810  4.2197 -1.2756
  905TIP3    H224131   5.506   3.222   4.002 -0.3427  0.0910  1.3622
  906TIP3   OH224132   0.601   4.828  16.757  0.4968  0.0688 -0.1576
  906TIP3    H124133   0.517   4.817  16.714 -0.3520  0.8558  1.2819
  906TIP3    H224134   0.625   4.919  16.741  0.6624  0.0846  0.1759
  907TIP3   OH224135   6.290   1.733  14.701  0.6580  0.4649  0.4410
  907TIP3    H124136   6.232   1.753  14.774 -0.5178 -0.3343 -0.2712
  907TIP3    H224137   6.253   1.781  14.627  0.4487 -0.6872 -0.2011
  908TIP3   OH224138   6.705   6.621   5.669 -0.8797  0.0529  0.3116
  908TIP3    H124139   6.668   6.632   5.756  0.4203 -0.4409  0.9395
  908TIP3    H224140   6.696   6.527   5.651 -1.0563  0.1372 -0.0318
  909TIP3   OH224141   6.624   0.026  16.933 -0.2858 -0.1011 -0.3884
  909TIP3    H124142   6.666   0.107  16.961 -2.0676  0.6818  0.1010
  909TIP3    H224143   6.651  -0.038  16.998 -2.5279  1.1743  1.8735
  910TIP3   OH224144   3.488   4.413   4.715 -0.1051 -0.2689  0.3269
  910TIP3    H124145   3.416   4.392   4.775  0.5960 -2.5245  0.4079
  910TIP3    H224146   3.463   4.374   4.632 -0.9488  2.6398 -0.8461
  911TIP3   OH224147   0.554   6.220   1.675  0.0073  0.1184 -0.5169
  911TIP3    H124148   0.566   6.140   1.625  1.7365  0.0685 -0.0636
  911TIP3    H224149   0.563   6.291   1.611  0.5135  0.0000 -0.5831
  912TIP3   OH224150   2.467   5.074  12.817 -0.1475  0.3906 -0.9573
  912TIP3    H124151   2.402   5.007  12.796  0.9586 -0.7301 -0.8532
  912TIP3    H224152   2.548   5.025  12.834  0.5778  1.7213 -0.4875
  913TIP3   OH224153   5.135   1.292   6.361  0.1656  0.0252  0.0120
  913TIP3    H124154   5.106   1.289   6.452 -2.3569  1.2810 -0.7292
  913TIP3    H224155   5.094   1.216   6.321  0.8456 -0.2215 -0.2234
  914TIP3   OH224156   1.922   6.273  13.622 -0.2868  0.1400 -0.3681
  914TIP3    H124157   1.992   6.317  13.574 -0.1922  0.3852 -0.0056
  914TIP3    H224158   1.919   6.317  13.707  1.5745 -2.2577  1.0163
  915TIP3   OH224159   1.025   4.261  15.928 -0.3040 -0.0134  0.2430
  915TIP3    H124160   1.099   4.201  15.919  1.0784  1.6374  0.4003
  915TIP3    H224161   1.059   4.347  15.902 -1.7090  1.0765  1.8412
  916TIP3   OH224162   5.228   3.538  15.786 -0.4805  0.0052  0.1963
  916TIP3    H124163   5.276   3.599  15.842 -0.0857 -0.5604  0.4804
  916TIP3    H224164   5.152   3.513  15.839 -0.7988  0.4768 -0.0360
  917TIP3   OH224165   3.336   6.239   6.332  0.3052  0.2173  0.3476
  917TIP3    H124166   3.267   6.240   6.399 -0.1450  0.0839 -0.1154
  917TIP3    H224167   3.363   6.148   6.327  0.5493  0.2754  0.5556
  918TIP3   OH224168   1.188   4.540  11.871  0.0940  0.5047 -0.6800
  918TIP3    H124169   1.242   4.485  11.927 -2.8514 -2.9515 -1.0199
  918TIP3    H224170   1.181   4.491  11.788 -2.3990  1.4733 -1.0916
  919TIP3   OH224171   2.753   1.163  11.392  0.3832 -0.9281  0.1825
  919TIP3    H124172   2.752   1.248  11.349 -0.0142 -0.5461  0.9258
  919TIP3    H224173   2.716   1.102  11.327 -0.5854 -0.2918  0.1220
  920TIP3   OH224174   3.301   1.171  11.590  0.3475  0.1103  0.2108
  920TIP3    H124175   3.362   1.231  11.633 -0.5591  1.5548 -0.4774
  920TIP3    H224176   3.358   1.105  11.550  1.5077  1.4979 -0.5234
  921TIP3   OH224177   1.533   4.171  11.167  0.1325  0.2421  0.0419
  921TIP3    H124178   1.514   4.098  11.226 -1.2350 -0.5407 -1.3280
  921TIP3    H224179   1.627   4.166  11.151  0.4410  0.2255  1.8208
  922TIP3   OH224180   3.286   3.254  14.539 -1.1234  0.3344  0.3757
  922TIP3    H124181   3.294   3.348  14.555 -1.1744 -0.1168  3.3722
  922TIP3    H224182   3.376   3.226  14.518 -0.9193  0.8828  0.5072
  923TIP3   OH224183   4.276   5.904  12.605  0.5493 -0.2937  0.2836
  923TIP3    H124184   4.280   5.870  12.694 -0.2478 -1.1852 -0.0042
  923TIP3    H224185   4.224   5.838  12.557 -0.7421  1.1684 -0.3735
  924TIP3   OH224186   2.401   2.752   3.418  0.0321  0.0804 -0.9303
  924TIP3    H124187   2.380   2.803   3.339 -2.2666 -0.1055 -0.4788
  924TIP3    H224188   2.319   2.707   3.439  0.7942 -0.3310  1.2189
  925TIP3   OH224189   2.445   2.106   0.204  0.1320  0.1266  0.2121
  925TIP3    H124190   2.525   2.117   0.152 -0.8056  1.4262 -0.9886
  925TIP3    H224191   2.455   2.167   0.277 -0.9790  2.3459 -1.4506
  926TIP3   OH224192   2.498   1.460   1.921 -0.2329 -0.3779  0.2724
  926TIP3    H124193   2.446   1.433   1.997 -0.0911  1.3918  1.0146
  926TIP3    H224194   2.488   1.389   1.858 -1.2842 -1.3287  1.5095
  927TIP3   OH224195   0.873   2.517  15.302 -0.2828  0.3593 -0.3491
  927TIP3    H124196   0.876   2.487  15.393 -0.2560  1.9644  0.1917
  927TIP3    H224197   0.963   2.542  15.281 -0.3897  0.5073 -0.6410
  928TIP3   OH224198   5.580   4.686  11.019 -1.1391  0.5905  0.4120
  928TIP3    H124199   5.543   4.765  11.060 -0.9754  0.1591  1.4055
  928TIP3    H224200   5.628   4.718  10.943  1.4920  1.7803  2.5100
  929TIP3   OH224201   3.492   3.818   6.135 -0.1265 -0.5786 -0.1175
  929TIP3    H124202   3.420   3.762   6.164 -0.7764  0.0171 -0.5526
  929TIP3    H224203   3.515   3.869   6.212 -0.3291 -0.6048 -0.0378
  930TIP3   OH224204   5.696   3.611  14.232  0.0759  0.1487 -0.1725
  930TIP3    H124205   5.742   3.690  14.258  2.4578 -1.8411  1.9579
  930TIP3    H224206   5.624   3.603  14.295  0.5114  0.0387  0.3146
  931TIP3   OH224207   2.478   1.692   1.294 -0.1027 -0.0831 -0.0706
  931TIP3    H124208   2.451   1.774   1.252  0.2237  0.7147  1.2228
  931TIP3    H224209   2.396   1.649   1.318 -0.2709  1.1280  1.5894
  932TIP3   OH224210   1.630   6.786  13.166 -0.2599  0.9398  0.8081
  932TIP3    H124211   1.586   6.793  13.082 -0.6776 -1.5060  0.7849
  932TIP3    H224212   1.720   6.760  13.144 -0.7533 -1.1370  1.1458
  933TIP3   OH224213   6.322   3.281   3.058  0.0121  0.1702  0.4298
  933TIP3    H124214   6.379   3.222   3.008  0.1083  0.2448  0.4500
  933TIP3    H224215   6.354   3.369   3.037  0.0277  0.2038  0.5913
  934TIP3   OH224216   0.178   4.241   1.669  0.0408 -0.2051 -0.0421
  934TIP3    H124217   0.091   4.204   1.656 -0.2798  0.3955  0.3927
  934TIP3    H224218   0.190   4.303   1.598 -0.4569  0.7549  0.6960
  935TIP3   OH224219   6.317   0.258  11.623  0.2532 -0.2060 -0.3148
  935TIP3    H124220   6.275   0.278  11.540  0.7351  0.9559 -0.2850
  935TIP3    H224221   6.258   0.295  11.689  1.2105  1.2845 -0.2670
  936TIP3   OH224222   6.002   3.363  14.127 -0.4329 -0.4539 -0.1202
  936TIP3    H124223   5.973   3.391  14.214 -2.1212 -0.9980 -0.4772
  936TIP3    H224224   6.075   3.303  14.144  0.1793  0.5428  0.8447
  937TIP3   OH224225   1.823   6.703  14.435 -0.0437  0.4385 -0.2436
  937TIP3    H124226   1.785   6.616  14.436 -2.1486  1.3059 -1.7745
  937TIP3    H224227   1.788   6.746  14.513  0.0072  0.3349 -0.1635
  938TIP3   OH224228   1.182   1.744  16.844 -0.4243  0.6029 -0.3538
  938TIP3    H124229   1.121   1.706  16.782 -0.0522  1.4944 -1.2902
  938TIP3    H224230   1.129   1.766  16.921 -1.0499  0.2909 -0.7012
  939TIP3   OH224231   3.039   2.972   3.495 -0.5843  0.3530  0.4365
  939TIP3    H124232   3.094   2.905   3.455  0.1606  1.2514 -0.0674
  939TIP3    H224233   3.009   2.933   3.577  0.1476 -0.4573  0.3203
  940TIP3   OH224234   4.824   3.760   6.592 -0.3196  0.4430  0.3150
  940TIP3    H124235   4.826   3.855   6.601 -2.2856  0.3740  1.8671
  940TIP3    H224236   4.787   3.744   6.505 -0.8105  1.1183  0.3974
  941TIP3   OH224237   6.527   3.641  13.142 -0.4043  0.2687  0.0707
  941TIP3    H124238   6.588   3.695  13.093  0.0563 -0.0106  0.3317
  941TIP3    H224239   6.568   3.630  13.227 -0.5631 -0.3703  0.0661
  942TIP3   OH224240   5.138   5.199   1.705  0.3029 -0.4329 -0.2816
  942TIP3    H124241   5.227   5.186   1.738  0.8312 -1.2392 -1.9888
  942TIP3    H224242   5.120   5.123   1.651 -2.0624 -1.0928  1.3086
  943TIP3   OH224243   4.711   4.956  16.476 -0.2970 -0.0516 -0.4683
  943TIP3    H124244   4.662   5.026  16.432 -0.0512 -0.4736 -1.4253
  943TIP3    H224245   4.767   5.002  16.538 -1.1629  0.5091 -0.0841
  944TIP3   OH224246   0.228   3.565  13.160 -0.1180  0.5337  0.4620
  944TIP3    H124247   0.218   3.613  13.078  1.6873  0.5947  0.2410
  944TIP3    H224248   0.262   3.629  13.222 -0.2013  0.1714  0.8865
  945TIP3   OH224249   4.166   3.421  14.375 -0.0929 -0.1415 -0.1512
  945TIP3    H124250   4.156   3.460  14.288 -0.0565 -0.5075 -0.3207
  945TIP3    H224251   4.136   3.489  14.436 -0.1233  0.1110 -0.4517
  946TIP3   OH224252   0.239   6.380   0.196 -0.1443 -0.3338  0.2494
  946TIP3    H124253   0.236   6.356   0.289 -1.5577  0.0236  0.2983
  946TIP3    H224254   0.226   6.474   0.195 -0.9926 -0.4505 -0.3561
  947TIP3   OH224255   1.464   0.804  11.946  0.1191  0.3848 -0.0746
  947TIP3    H124256   1.526   0.874  11.925 -0.3657  0.5109 -1.1194
  947TIP3    H224257   1.386   0.825  11.895 -1.0789  0.6460  1.8072
  948TIP3   OH224258   5.944   1.065  15.480 -0.0245  0.4721 -0.0621
  948TIP3    H124259   5.880   1.135  15.468 -0.0241  0.3502 -0.7522
  948TIP3    H224260   5.968   1.038  15.392 -0.3631 -0.7068  0.2020
  949TIP3   OH224261   6.507   2.191   1.603  0.1476  0.0429  0.0102
  949TIP3    H124262   6.464   2.124   1.549  1.3568 -0.1918 -0.6651
  949TIP3    H224263   6.459   2.188   1.686 -0.8505 -0.5380 -0.5716
  950TIP3   OH224264   5.532   0.723   2.563 -0.6346 -0.2360  0.2658
  950TIP3    H124265   5.452   0.767   2.535 -0.4797 -0.1781 -0.0975
  950TIP3    H224266   5.602   0.786   2.545 -0.5144 -0.2684  0.6237
  951TIP3   OH224267   5.827   0.423  16.234  0.1570  0.5169 -0.1301
  951TIP3    H124268   5.890   0.495  16.244  0.6678  0.4523 -2.5770
  951TIP3    H224269   5.878   0.352  16.196 -0.6167 -0.7802  1.2068
  952TIP3   OH224270   2.790   3.758  14.933 -0.0096 -0.4300  0.2464
  952TIP3    H124271   2.813   3.674  14.973  2.0719  0.2132  0.4322
  952TIP3    H224272   2.835   3.757  14.848 -3.0895 -1.1049 -1.4688
  953TIP3   OH224273   2.773   6.212  14.785  0.6085 -0.1407 -0.0988
  953TIP3    H124274   2.700   6.259  14.826  2.5211  0.1199  3.1848
  953TIP3    H224275   2.750   6.119  14.794  0.7611 -0.0669  1.1426
  954TIP3   OH224276   4.549   6.669  12.730 -0.2761  0.7492 -0.0151
  954TIP3    H124277   4.461   6.697  12.705 -1.0555 -2.4202 -1.1238
  954TIP3    H224278   4.551   6.575  12.708  2.6687  0.2939  1.9417
  955TIP3   OH224279   1.944   2.075  11.250  0.2126 -0.0297  0.0241
  955TIP3    H124280   1.933   2.163  11.285  0.8221  0.6014 -1.3526
  955TIP3    H224281   1.861   2.054  11.208  0.2941  0.1572 -0.2319
  956TIP3   OH224282   2.057   4.165  12.395 -0.4667  0.4180  0.5082
  956TIP3    H124283   1.997   4.118  12.452 -0.5793  0.4077  0.3809
  956TIP3    H224284   2.025   4.255  12.396  0.7639  0.8851  2.1422
  957TIP3   OH224285   3.752   3.391   0.422  0.2040 -0.2307  0.3554
  957TIP3    H124286   3.790   3.304   0.411  0.4355 -0.0011 -0.6444
  957TIP3    H224287   3.786   3.421   0.507 -0.2760 -1.3092  0.9408
  958TIP3   OH224288   4.693   3.143  13.055  0.1658  0.3281  0.6680
  958TIP3    H124289   4.675   3.176  12.966  0.3401 -0.0378  0.4954
  958TIP3    H224290   4.662   3.212  13.113 -3.9696 -1.2207  0.4672
  959TIP3   OH224291   0.742   5.987  12.314  0.1142  0.1100 -0.7079
  959TIP3    H124292   0.776   6.028  12.234  0.9274  0.7973 -0.0212
  959TIP3    H224293   0.655   5.955  12.289  1.5673 -2.3913 -2.6971
  960TIP3   OH224294   6.421   6.781   2.725  0.0250 -0.4068 -0.1768
  960TIP3    H124295   6.490   6.758   2.788 -0.3006 -1.7185 -0.2815
  960TIP3    H224296   6.434   6.720   2.652  0.9781  1.6997 -1.8343
  961TIP3   OH224297   0.220   0.659   5.302 -0.3645  0.2865  0.0080
  961TIP3    H124298   0.281   0.699   5.364 -0.0478  0.3177 -0.3259
  961TIP3    H224299   0.272   0.595   5.254 -0.7130 -0.0503  0.0758
  962TIP3   OH224300   1.918   2.693  11.854  0.3997  0.2489  0.6335
  962TIP3    H124301   1.898   2.772  11.906 -1.0394  0.2788  0.0586
  962TIP3    H224302   1.910   2.722  11.763 -0.4476 -0.6388  0.4235
  963TIP3   OH224303   2.984   0.535  11.160 -0.5150  0.0113 -0.8098
  963TIP3    H124304   2.942   0.555  11.243  0.1935 -0.8552 -0.2306
  963TIP3    H224305   2.973   0.614  11.107 -0.0747  0.9357  0.4729
  964TIP3   OH224306   1.646   0.931  15.702  0.0869 -0.4362 -0.2536
  964TIP3    H124307   1.702   0.917  15.625 -1.1875  1.8241 -1.6778
  964TIP3    H224308   1.562   0.893  15.677 -0.2670  0.0999  0.1245
  965TIP3   OH224309   4.334   6.608  13.312 -0.5747 -0.0758 -0.3403
  965TIP3    H124310   4.248   6.576  13.338 -0.2011  0.3774  1.5305
  965TIP3    H224311   4.321   6.643  13.224 -2.2307 -0.2709 -0.1893
  966TIP3   OH224312   1.666   3.083  16.583 -0.0594  0.2762 -0.2622
  966TIP3    H124313   1.588   3.055  16.631 -0.1664  1.3061  0.1662
  966TIP3    H224314   1.703   3.001  16.550 -1.3741 -0.2120 -0.5670
  967TIP3   OH224315   5.096   5.629   0.018  0.2171  0.2950  0.4419
  967TIP3    H124316   5.183   5.659   0.043  0.2361  0.3954  0.2576
  967TIP3    H224317   5.048   5.709  -0.004  0.2149  0.2035  0.1172
  968TIP3   OH224318   6.574   1.946  10.734  1.1015  0.7596  0.0691
  968TIP3    H124319   6.659   1.915  10.702  1.2816  1.5693 -0.2688
  968TIP3    H224320   6.512   1.877  10.711  1.6388  0.2590  0.1255
  969TIP3   OH224321   0.665   6.577  17.076  0.0784 -0.0806 -0.0909
  969TIP3    H124322   0.595   6.561  17.012 -0.4225 -1.3780  0.7766
  969TIP3    H224323   0.707   6.492  17.089  0.4081  0.2413  1.0452
  970TIP3   OH224324   4.008   4.694   1.786  0.2999 -0.1383 -0.4091
  970TIP3    H124325   3.919   4.723   1.766 -0.0930 -0.1439  1.2994
  970TIP3    H224326   4.012   4.605   1.751 -0.4207 -0.1926 -0.3616
  971TIP3   OH224327   2.275   4.744  13.602  0.7065  0.2547  0.2774
  971TIP3    H124328   2.203   4.807  13.590  1.6608  1.1225 -0.9447
  971TIP3    H224329   2.249   4.668  13.549  0.5047  0.3953  0.1735
  972TIP3   OH224330   2.918   1.526   3.258  0.6810 -0.6573 -0.3984
  972TIP3    H124331   2.860   1.466   3.304  2.0776 -2.1835 -0.5852
  972TIP3    H224332   2.981   1.554   3.324 -0.9183  1.9216  0.1053
  973TIP3   OH224333   4.220   5.353   0.425  0.2232  0.1627  0.7029
  973TIP3    H124334   4.233   5.348   0.331 -0.8066 -0.0072  0.5666
  973TIP3    H224335   4.158   5.425   0.437  1.0558  0.7913  1.3200
  974TIP3   OH224336   4.003   5.526   4.318 -0.4844 -0.4325  0.7656
  974TIP3    H124337   4.033   5.435   4.321  0.9457 -0.0652 -1.6853
  974TIP3    H224338   4.078   5.577   4.346 -1.4412  0.0030  2.6194
  975TIP3   OH224339   3.050   0.543  12.017 -0.1623  0.3798 -0.3345
  975TIP3    H124340   3.137   0.528  12.055 -0.0501  3.8448  0.9372
  975TIP3    H224341   2.992   0.482  12.064  0.6717  1.7863  2.6298
  976TIP3   OH224342   1.506   2.564   2.438  0.0533 -0.5753 -0.1436
  976TIP3    H124343   1.533   2.522   2.357 -0.1937  1.5995 -1.3917
  976TIP3    H224344   1.410   2.565   2.434  0.0696  1.2145 -0.7585
  977TIP3   OH224345   1.357   2.552  13.234  0.1062  0.0782  0.0197
  977TIP3    H124346   1.365   2.581  13.325  2.2333 -1.1833  0.2556
  977TIP3    H224347   1.401   2.467  13.232 -0.0154  0.0555 -2.1773
  978TIP3   OH224348   0.225   1.163  15.270  0.1497  0.2178  0.2242
  978TIP3    H124349   0.317   1.181  15.255 -0.0821  2.3092  1.1401
  978TIP3    H224350   0.183   1.177  15.185  0.3506  1.6681  0.3487
  979TIP3   OH224351   6.366   5.779  12.667  0.0436  0.1541  0.1874
  979TIP3    H124352   6.359   5.873  12.646  0.0005  0.1121  0.0113
  979TIP3    H224353   6.460   5.764  12.678  0.3004 -0.3019 -2.2422
  980TIP3   OH224354   1.362   1.092   2.451  0.0002 -0.1288  0.5319
  980TIP3    H124355   1.332   1.012   2.408 -2.0514  1.5297 -1.2746
  980TIP3    H224356   1.427   1.063   2.514  0.6002 -3.0305 -1.3333
  981TIP3   OH224357   1.327   4.998  16.644 -0.4166  0.1560 -1.6574
  981TIP3    H124358   1.361   4.918  16.605 -0.1944 -0.4570 -0.2254
  981TIP3    H224359   1.233   4.982  16.653 -0.5054  0.3882 -2.1376
  982TIP3   OH224360   4.284   3.577  11.711  0.2456 -0.1876  0.0095
  982TIP3    H124361   4.276   3.506  11.775 -0.0096 -0.8113 -0.6943
  982TIP3    H224362   4.196   3.585  11.673  0.5490 -0.2806 -0.7238
  983TIP3   OH224363   4.534   4.591  16.063 -0.0698 -0.4906  0.1664
  983TIP3    H124364   4.454   4.636  16.036  1.4843  2.3876  0.2140
  983TIP3    H224365   4.540   4.606  16.157  0.2696 -1.1322  0.2502
  984TIP3   OH224366   1.246   3.250  11.849  0.5114  0.1942  0.5464
  984TIP3    H124367   1.253   3.341  11.878 -0.0795  1.0628 -1.9345
  984TIP3    H224368   1.158   3.223  11.874  0.3333  0.6300  0.3946
  985TIP3   OH224369   4.605   0.269  11.219 -0.1004 -0.2063  0.1901
  985TIP3    H124370   4.558   0.192  11.251 -0.5725 -0.0929 -0.2285
  985TIP3    H224371   4.660   0.235  11.148  0.6351 -0.3824  0.8377
  986TIP3   OH224372   4.324   2.210   4.739 -0.3871  0.3167 -0.0704
  986TIP3    H124373   4.315   2.133   4.795 -0.0499  0.6547  0.4468
  986TIP3    H224374   4.264   2.274   4.777 -0.5326  0.3725 -0.3939
  987TIP3   OH224375   0.012   1.329   0.488  0.0558 -0.0741  0.4296
  987TIP3    H124376  -0.047   1.259   0.462  1.6236 -0.3188 -2.7604
  987TIP3    H224377   0.097   1.286   0.500  0.4899  0.8870  0.9087
  988TIP3   OH224378   2.472   5.010   0.264 -0.0156 -0.1822  0.3421
  988TIP3    H124379   2.556   4.967   0.248  1.3210  2.4212 -0.0595
  988TIP3    H224380   2.468   5.021   0.359  0.2375 -0.0925  0.3435
  989TIP3   OH224381   0.591   0.510   1.655 -0.0010 -0.7804  0.6145
  989TIP3    H124382   0.587   0.447   1.583  2.0073 -0.3837  0.1058
  989TIP3    H224383   0.672   0.488   1.701  0.4642  1.0638  0.7329
  990TIP3   OH224384   5.245   5.794  11.939 -0.4006  0.2047  0.0749
  990TIP3    H124385   5.210   5.710  11.970  0.3148  0.8040  2.5609
  990TIP3    H224386   5.316   5.770  11.880 -0.0100 -0.9499  0.9995
  991TIP3   OH224387   3.225   1.921  11.335  0.0203 -0.2331  0.4929
  991TIP3    H124388   3.264   1.900  11.250 -2.9539  2.8963 -1.7858
  991TIP3    H224389   3.287   1.981  11.375  0.1504  0.4846 -0.7449
  992TIP3   OH224390   4.995   0.799   2.943  0.0826  0.4703 -0.3191
  992TIP3    H124391   5.038   0.869   2.893  0.5536 -0.7108 -1.5810
  992TIP3    H224392   5.046   0.793   3.024  0.4427  1.1472 -0.4904
  993TIP3   OH224393   5.414   0.285  12.914 -0.0047 -0.1013 -0.3062
  993TIP3    H124394   5.409   0.366  12.863  0.6489  0.1366  0.0059
  993TIP3    H224395   5.327   0.246  12.905 -0.1154  0.3043 -1.0034
  994TIP3   OH224396   4.007   4.928  13.920 -0.4164 -0.1886  0.4701
  994TIP3    H124397   4.088   4.878  13.921 -1.2477 -1.5733  1.9304
  994TIP3    H224398   4.000   4.963  14.009 -1.3922 -0.0584  0.3493
  995TIP3   OH224399   2.165   5.055  17.057  0.0887 -0.4375  0.6169
  995TIP3    H124400   2.211   4.972  17.067 -2.1157 -1.8568 -0.5505
  995TIP3    H224401   2.158   5.068  16.963 -0.4163  0.5740  0.7859
  996TIP3   OH224402   5.254   6.503  13.622  0.4361  0.3003 -0.0766
  996TIP3    H124403   5.316   6.430  13.628  2.0348  1.6038 -0.5686
  996TIP3    H224404   5.184   6.480  13.684 -1.0085 -3.4557 -2.9043
  997TIP3   OH224405   6.139   0.957  14.648 -0.4773  0.1419  0.1622
  997TIP3    H124406   6.233   0.974  14.646 -0.1595 -1.5688 -0.3699
  997TIP3    H224407   6.101   1.022  14.589  0.5508 -0.2125 -0.9001
  998TIP3   OH224408   2.578   6.164  12.845 -0.1153  0.2028  0.4419
  998TIP3    H124409   2.559   6.129  12.932 -0.4420  0.0060  0.2966
  998TIP3    H224410   2.492   6.192  12.812  0.1997  1.4397  0.6839
  999TIP3   OH224411   3.218   5.393   0.927  0.0111 -0.1899 -0.1055
  999TIP3    H124412   3.245   5.407   0.836 -3.7447  1.6473 -1.0567
  999TIP3    H224413   3.215   5.298   0.936 -0.6782 -0.4218 -2.3120
 1000TIP3   OH224414   3.852   4.190  13.905 -0.3290  0.5782 -0.5092
 1000TIP3    H124415   3.817   4.266  13.858 -0.5251 -0.0492 -1.4056
 1000TIP3    H224416   3.864   4.220  13.994  0.4478  1.9303 -1.0580
 1001TIP3   OH224417   5.374   0.354  16.079  0.0850  0.1644  0.2561
 1001TIP3    H124418   5.445   0.295  16.052  0.7378  0.7739  0.6279
 1001TIP3    H224419   5.408   0.399  16.156 -0.9267  0.0542  0.7770
 1002TIP3   OH224420   6.163   4.196   2.453  0.0325 -0.1243 -0.2139
 1002TIP3    H124421   6.226   4.153   2.510  0.9428  1.6660  0.1443
 1002TIP3    H224422   6.096   4.230   2.512 -0.0287  0.0562 -0.3870
 1003TIP3   OH224423   0.277   3.037  13.418  0.0884 -0.5943  0.4927
 1003TIP3    H124424   0.273   2.946  13.448 -0.1121 -0.8085 -0.1876
 1003TIP3    H224425   0.186   3.063  13.407  0.0671  0.2700  2.4067
 1004TIP3   OH224426   5.264   0.648   3.672 -0.3130  0.0714  0.7310
 1004TIP3    H124427   5.256   0.724   3.614  1.1401 -1.0142 -0.9650
 1004TIP3    H224428   5.176   0.634   3.707 -0.7346  2.1075  0.5283
 1005TIP3   OH224429   4.455   1.200   2.364  0.0151 -0.2219 -0.4671
 1005TIP3    H124430   4.411   1.263   2.307 -0.8836  0.1835  0.6576
 1005TIP3    H224431   4.383   1.157   2.412  0.8645  0.9004  1.8687
 1006TIP3   OH224432   3.626   6.711  13.329  0.8174 -0.2506  0.9119
 1006TIP3    H124433   3.579   6.744  13.252  1.2299 -1.1533  0.2615
 1006TIP3    H224434   3.630   6.786  13.388  3.8099  1.5901 -1.4754
 1007TIP3   OH224435   5.135   2.695  16.321 -0.1926  0.1349  0.3363
 1007TIP3    H124436   5.050   2.650  16.325 -0.2268  0.1932  0.2663
 1007TIP3    H224437   5.125   2.758  16.250 -0.2110  0.3885  0.5643
 1008TIP3   OH224438   2.921   2.168  13.718 -0.2404  0.2790  0.4144
 1008TIP3    H124439   2.995   2.110  13.698 -0.1282  0.2427  0.9214
 1008TIP3    H224440   2.844   2.119  13.689 -0.0327  0.4608 -0.4264
 1009TIP3   OH224441   3.823   6.632   2.677  0.1960 -0.5778 -0.2781
 1009TIP3    H124442   3.813   6.634   2.581 -0.4244  0.0322 -0.2063
 1009TIP3    H224443   3.741   6.595   2.708  0.2233 -0.3713  0.0397
 1010TIP3   OH224444   4.886   0.909  12.558  0.2316 -0.2444 -0.2293
 1010TIP3    H124445   4.976   0.877  12.548 -0.2994 -1.7322 -0.3437
 1010TIP3    H224446   4.875   0.970  12.485  0.9447 -0.5286 -0.5830
 1011TIP3   OH224447   3.969   4.981  13.190  0.0167 -0.2424 -0.1082
 1011TIP3    H124448   4.010   4.948  13.269  2.0172 -0.5226 -1.2268
 1011TIP3    H224449   3.970   5.077  13.201 -0.4884 -0.3094  0.5613
 1012TIP3   OH224450   5.491   4.777  16.551  0.0025  0.0392  0.3145
 1012TIP3    H124451   5.555   4.721  16.507  2.6203  2.2961  1.1881
 1012TIP3    H224452   5.476   4.849  16.490  0.5312  1.0349  1.3402
 1013TIP3   OH224453   0.756   6.249  15.713 -0.2566  0.5278 -0.1622
 1013TIP3    H124454   0.775   6.243  15.807 -0.8829 -0.5812 -0.0963
 1013TIP3    H224455   0.842   6.264  15.673  0.1040  0.3824  0.5319
 1014TIP3   OH224456   2.286   1.933   3.308 -0.1103  0.0123 -0.1998
 1014TIP3    H124457   2.324   2.015   3.275  1.6873 -1.4751 -1.9344
 1014TIP3    H224458   2.326   1.921   3.395  1.5964 -0.2902 -1.0000
 1015TIP3   OH224459   1.435   0.554   0.685  0.1261 -0.2033 -0.2982
 1015TIP3    H124460   1.451   0.561   0.591  1.2812  0.5944 -0.0491
 1015TIP3    H224461   1.457   0.640   0.720 -1.6022 -0.0658  0.5311
 1016TIP3   OH224462   4.689   1.842  11.572 -0.1157  0.6460 -0.0356
 1016TIP3    H124463   4.654   1.896  11.500 -0.0438 -0.2502 -0.7417
 1016TIP3    H224464   4.611   1.816  11.621 -0.3839 -0.6151 -1.1013
 1017TIP3   OH224465   0.795   5.531   3.820  0.5023  0.5680  0.7194
 1017TIP3    H124466   0.770   5.506   3.732  1.9574  2.7369 -0.3451
 1017TIP3    H224467   0.891   5.524   3.821  0.4522 -0.1227  2.3390
 1018TIP3   OH224468   6.594   1.433   4.196  0.2244  0.4993 -0.2734
 1018TIP3    H124469   6.633   1.360   4.148  1.3644  0.8010  0.1679
 1018TIP3    H224470   6.505   1.439   4.163  0.2683 -0.7986 -0.6410
 1019TIP3   OH224471   4.847   5.252  17.227 -0.8313 -0.0891 -0.0516
 1019TIP3    H124472   4.935   5.254  17.264 -0.8530 -1.3592  0.1154
 1019TIP3    H224473   4.848   5.176  17.168 -1.4578  0.5916 -0.9422
 1020TIP3   OH224474   6.545   2.513   4.402  0.4422 -0.2436 -0.4555
 1020TIP3    H124475   6.621   2.526   4.459  0.4973 -0.5462 -0.4594
 1020TIP3    H224476   6.540   2.592   4.349  1.5167 -0.7627 -1.3522
 1021TIP3   OH224477   5.366   1.207   2.420  0.2685  0.1214 -0.3184
 1021TIP3    H124478   5.375   1.151   2.343 -1.5643 -1.1479  0.3421
 1021TIP3    H224479   5.370   1.296   2.386  0.9729 -0.4160 -1.6795
 1022TIP3   OH224480   2.009   5.382   5.610 -0.0313 -0.7415  0.4226
 1022TIP3    H124481   2.092   5.347   5.576  0.5133  0.0238  0.9644
 1022TIP3    H224482   2.028   5.473   5.631 -0.3991 -1.1576  2.6782
 1023TIP3   OH224483   0.329   1.948  11.506  0.5319  0.0218 -0.0244
 1023TIP3    H124484   0.263   1.901  11.556 -0.4030 -0.4109 -1.6601
 1023TIP3    H224485   0.352   1.890  11.434  1.0683  1.0875 -0.7332
 1024TIP3   OH224486   6.620   1.794  16.060 -0.4351  0.5071 -0.0123
 1024TIP3    H124487   6.625   1.745  15.979  0.1435  0.5058  0.0175
 1024TIP3    H224488   6.606   1.884  16.033  3.6323  1.1544 -0.3205
 1025TIP3   OH224489   2.674   3.538  12.862 -0.0257  0.1825 -0.5702
 1025TIP3    H124490   2.702   3.619  12.821  0.2422 -0.7354 -2.2175
 1025TIP3    H224491   2.604   3.504  12.806  0.1801 -0.9663 -0.1599
 1026TIP3   OH224492   4.005   5.838   0.341 -0.7420 -0.1051  0.0114
 1026TIP3    H124493   4.004   5.790   0.259  2.2912  0.8924 -0.6723
 1026TIP3    H224494   4.039   5.776   0.406 -0.1941  0.0255 -0.1456
 1027TIP3   OH224495   4.135   6.459   0.899 -0.5258 -0.1664 -0.3546
 1027TIP3    H124496   4.104   6.368   0.894  1.2680 -0.9014  0.9674
 1027TIP3    H224497   4.111   6.487   0.988  0.0250  0.2174 -0.3251
 1028TIP3   OH224498   5.027   0.018  15.393  0.3544 -0.0888  0.3522
 1028TIP3    H124499   5.001   0.094  15.445 -1.1513 -0.2917 -0.0952
 1028TIP3    H224500   5.012   0.044  15.302  2.4104  0.0420  0.0293
 1029TIP3   OH224501   4.077   1.908   5.395 -0.1274  0.4390  0.4178
 1029TIP3    H124502   4.017   1.905   5.320 -0.4208 -0.2185  0.6748
 1029TIP3    H224503   4.042   1.976   5.452  0.0423  0.8770  0.0035
 1030TIP3   OH224504   5.619   6.150   4.804 -0.5084 -1.0170  0.0287
 1030TIP3    H124505   5.655   6.067   4.834 -0.6441 -1.3381 -0.6834
 1030TIP3    H224506   5.556   6.174   4.871  0.4199 -0.8702  0.8553
 1031TIP3   OH224507   0.564   2.303  14.280 -0.1327 -0.2435  0.1456
 1031TIP3    H124508   0.649   2.348  14.287 -0.5289  0.5094  0.0746
 1031TIP3    H224509   0.585   2.211  14.300  1.0885 -0.4683 -1.9818
 1032TIP3   OH224510   5.629   5.027   1.075  0.0695  0.3929 -0.0270
 1032TIP3    H124511   5.616   4.932   1.077 -1.7207  0.6224 -0.2922
 1032TIP3    H224512   5.698   5.040   1.009  1.7815 -0.8539  1.4538
 1033TIP3   OH224513   5.951   6.240  13.303  0.0155 -0.6039  0.6030
 1033TIP3    H124514   5.964   6.334  13.288 -0.6228 -0.6746 -0.4711
 1033TIP3    H224515   6.032   6.210  13.343  0.7616  0.1348 -0.3458
 1034TIP3   OH224516   6.753   4.794  11.929  0.2502  0.4386  0.0448
 1034TIP3    H124517   6.797   4.866  11.883 -0.6965  1.6573  1.0134
 1034TIP3    H224518   6.757   4.819  12.021  1.2761 -1.5146  0.5611
 1035TIP3   OH224519   2.020   6.226  17.203  0.6614 -0.5055  0.1127
 1035TIP3    H124520   1.944   6.217  17.261 -0.1387 -2.8633 -1.2279
 1035TIP3    H224521   2.081   6.281  17.252 -1.9968  1.6970  1.1257
 1036TIP3   OH224522   3.005   3.295   1.116  0.3276 -0.4758 -0.2530
 1036TIP3    H124523   3.006   3.199   1.124 -1.1597 -0.4007  1.1645
 1036TIP3    H224524   3.055   3.326   1.191  1.6199 -0.1429 -1.2338
 1037TIP3   OH224525   5.035   2.823  15.640 -0.4936  0.1011 -0.1731
 1037TIP3    H124526   4.998   2.795  15.557  0.8149  0.8904 -1.0241
 1037TIP3    H224527   5.057   2.742  15.685 -0.9462 -0.3185 -0.7049
 1038TIP3   OH224528   3.301   2.757   0.458 -0.4866 -0.2559  0.4678
 1038TIP3    H124529   3.387   2.729   0.426 -0.8543 -0.2070 -0.5512
 1038TIP3    H224530   3.310   2.851   0.471 -0.9046  0.0335 -1.2752
 1039TIP3   OH224531   3.492   6.458   5.945  0.0150  0.2095  0.0771
 1039TIP3    H124532   3.586   6.460   5.963  0.0345  2.1483 -0.1053
 1039TIP3    H224533   3.482   6.396   5.873  1.1522  0.0624  0.0424
 1040TIP3   OH224534   4.079   6.579   2.418  0.4015  0.1166 -0.5129
 1040TIP3    H124535   4.126   6.623   2.489 -1.3916  1.2860 -0.0220
 1040TIP3    H224536   4.019   6.519   2.463  0.6552 -0.5804 -1.0979
 1041TIP3   OH224537   4.021   0.938  16.564  0.3713  0.2163 -0.4546
 1041TIP3    H124538   4.062   0.891  16.491  0.4841 -0.4897  0.0567
 1041TIP3    H224539   4.081   0.926  16.637  0.1598  0.7578 -0.1930
 1042TIP3   OH224540   5.243   5.800   5.021 -0.0145  0.0183  0.5832
 1042TIP3    H124541   5.307   5.808   5.091 -1.2945  1.6481  1.5906
 1042TIP3    H224542   5.161   5.778   5.065 -0.9727  1.6972 -0.3170
 1043TIP3   OH224543   5.614   6.570   1.735 -0.2894  0.1372 -0.2123
 1043TIP3    H124544   5.526   6.598   1.711 -0.6835 -0.6421  0.3066
 1043TIP3    H224545   5.665   6.578   1.655 -0.6012  1.5082 -0.2802
 1044TIP3   OH224546   4.502   4.640  13.779  0.1514 -0.1326  0.2304
 1044TIP3    H124547   4.512   4.619  13.872 -2.2654 -0.9011  0.3680
 1044TIP3    H224548   4.488   4.555  13.737  1.8535  0.1529 -0.9472
 1045TIP3   OH224549   0.591   5.017   0.348  0.2362  0.1247 -0.6243
 1045TIP3    H124550   0.677   4.981   0.328  1.6087  3.0129 -0.2110
 1045TIP3    H224551   0.562   5.056   0.265 -0.2942 -0.1232 -0.5537
 1046TIP3   OH224552   2.743   0.852   5.545 -0.0074  0.4440 -0.2919
 1046TIP3    H124553   2.697   0.935   5.561 -0.4347  0.5738 -2.0994
 1046TIP3    H224554   2.700   0.789   5.602 -1.3287  0.9359 -0.7416
 1047TIP3   OH224555   2.454   5.562   1.469 -0.3218 -0.3601 -0.1332
 1047TIP3    H124556   2.430   5.568   1.562 -2.2632 -0.6670 -0.5945
 1047TIP3    H224557   2.389   5.615   1.424  0.3004 -0.6358 -1.3842
 1048TIP3   OH224558   2.013   1.765  12.759  0.1682  0.1978  0.5525
 1048TIP3    H124559   2.053   1.802  12.837  2.2846 -0.4047 -0.1996
 1048TIP3    H224560   2.045   1.821  12.687  1.2234 -1.4186 -0.2726
 1049TIP3   OH224561   0.221   3.107  14.088  0.0669 -0.5314  0.6050
 1049TIP3    H124562   0.230   3.170  14.016 -1.5718 -0.9389  0.0216
 1049TIP3    H224563   0.298   3.122  14.143  0.1074  1.4200  0.0391
 1050TIP3   OH224564   2.529   4.526   3.610  0.1150 -0.0135 -0.2494
 1050TIP3    H124565   2.523   4.595   3.544 -0.0697  1.3195  1.1263
 1050TIP3    H224566   2.579   4.565   3.682 -0.1176 -1.2492  0.6068
 1051TIP3   OH224567   6.731   6.648  17.114  0.3932  0.3139  0.2408
 1051TIP3    H124568   6.742   6.561  17.151  0.7387 -0.0541 -0.7094
 1051TIP3    H224569   6.819   6.673  17.085  0.1148  0.5486 -0.4165
 1052TIP3   OH224570   2.551   2.169  14.477  0.1176  0.0898  0.0018
 1052TIP3    H124571   2.600   2.159  14.559 -1.6982  0.9975  1.2366
 1052TIP3    H224572   2.602   2.234  14.427  1.6468 -1.0360  0.0636
 1053TIP3   OH224573   3.769   1.237   5.549 -0.1964  0.1347  0.5395
 1053TIP3    H124574   3.778   1.314   5.493  1.6427  0.8944  1.8380
 1053TIP3    H224575   3.763   1.163   5.488  1.1261  0.9994 -0.6723
 1054TIP3   OH224576   1.720   6.338  12.784 -0.4230 -0.8403  0.5927
 1054TIP3    H124577   1.631   6.311  12.807 -0.5879 -1.6918 -0.9622
 1054TIP3    H224578   1.729   6.426  12.822 -1.3123 -1.4263  2.2139
 1055TIP3   OH224579   4.363   1.722   1.841 -0.0210  0.5398 -0.1981
 1055TIP3    H124580   4.355   1.773   1.922 -0.1020  0.5001 -0.1800
 1055TIP3    H224581   4.327   1.779   1.773  0.3709  0.7072 -0.2621
 1056TIP3   OH224582   2.401   4.440   3.902 -0.1351  0.0865  0.0029
 1056TIP3    H124583   2.394   4.535   3.912  0.4841  0.0894  0.4207
 1056TIP3    H224584   2.401   4.425   3.808 -0.6264  0.4734 -0.0601
 1057TIP3   OH224585   6.333   0.468  16.567 -0.6065 -0.3169  0.7633
 1057TIP3    H124586   6.246   0.461  16.606 -0.3736  0.4900  1.4292
 1057TIP3    H224587   6.329   0.545  16.511 -1.1171 -1.7991 -1.3207
 1058TIP3   OH224588   2.135   5.217  12.328  0.0860  0.5208 -0.0907
 1058TIP3    H124589   2.105   5.130  12.355 -0.6914  0.4657 -1.1147
 1058TIP3    H224590   2.185   5.249  12.403 -1.9652  0.3314  1.4191
 1059TIP3   OH224591   4.017   0.499  14.366 -0.0934 -0.4876  0.1054
 1059TIP3    H124592   3.992   0.503  14.458 -0.3371  0.2167  0.0099
 1059TIP3    H224593   4.093   0.441  14.365  0.1808 -0.1503  0.8113
 1060TIP3   OH224594   3.085   2.049   3.428  0.3133 -0.0281 -0.2230
 1060TIP3    H124595   3.142   2.112   3.384  1.6346 -1.0171  0.0625
 1060TIP3    H224596   3.111   2.055   3.520  2.1426 -2.7351 -0.5228
 1061TIP3   OH224597   2.620   6.043  12.228 -0.7565  0.6191 -0.0827
 1061TIP3    H124598   2.584   6.103  12.162 -0.6194  1.0534  0.2312
 1061TIP3    H224599   2.715   6.052  12.219 -0.7253 -0.2707 -0.6774
 1062TIP3   OH224600   2.342   2.517   4.201 -0.1564 -0.2172 -0.4580
 1062TIP3    H124601   2.263   2.499   4.151  0.1323  0.4745 -1.1748
 1062TIP3    H224602   2.399   2.442   4.185 -0.6004 -0.6371 -0.0711
 1063TIP3   OH224603   0.017   4.348   2.970  0.0658  0.0488 -0.0945
 1063TIP3    H124604  -0.015   4.350   2.879 -0.8548 -1.0169  0.1994
 1063TIP3    H224605   0.112   4.346   2.962 -0.0122 -0.0876 -1.0394
 1064TIP3   OH224606   6.170   5.366  15.482  0.5186 -0.4329 -0.2554
 1064TIP3    H124607   6.149   5.303  15.414 -0.2274 -1.0564  0.5454
 1064TIP3    H224608   6.182   5.449  15.435 -2.6970 -0.2485 -0.8561
 1065TIP3   OH224609   5.370   1.633   3.656  0.2972  0.7946  0.4714
 1065TIP3    H124610   5.466   1.635   3.653  0.4392 -2.5992  0.8798
 1065TIP3    H224611   5.344   1.636   3.564  0.7399  2.5672  0.3877
 1066TIP3   OH224612   5.338   1.432  14.694 -0.2560 -0.3197 -0.0640
 1066TIP3    H124613   5.255   1.475  14.714  0.4850  1.1785 -0.1097
 1066TIP3    H224614   5.398   1.464  14.761  0.0653 -2.1111  0.5128
 1067TIP3   OH224615   2.306   0.902  13.798  0.2196  0.0798  0.3337
 1067TIP3    H124616   2.393   0.866  13.781  1.9513  2.3088  4.0130
 1067TIP3    H224617   2.322   0.981  13.850 -3.9414  1.3702 -0.1478
 1068TIP3   OH224618   0.133   0.403  13.465 -0.2028 -0.0578 -0.0184
 1068TIP3    H124619   0.114   0.457  13.542  0.3326 -0.9888  0.7827
 1068TIP3    H224620   0.134   0.464  13.392  0.8033  1.0750  0.9282
 1069TIP3   OH224621   2.532   6.335  15.885 -0.4257 -0.1258  0.2715
 1069TIP3    H124622   2.523   6.260  15.826 -1.9878 -1.1643  1.7768
 1069TIP3    H224623   2.468   6.399  15.853  1.7587  1.1266 -1.7629
 1070TIP3   OH224624   6.139   1.472   3.702 -0.5311 -0.3462  0.3917
 1070TIP3    H124625   6.093   1.539   3.753 -0.4029  0.8559 -1.0337
 1070TIP3    H224626   6.211   1.519   3.660  0.1831 -1.5971  0.2019
 1071TIP3   OH224627   1.273   1.538  13.827 -0.2959  0.4615  0.1359
 1071TIP3    H124628   1.346   1.562  13.770 -1.0187  0.9691 -0.5835
 1071TIP3    H224629   1.304   1.460  13.874  1.5831  2.0117  1.5362
 1072TIP3   OH224630   5.183   2.428   4.445 -0.6667  0.4078 -0.2216
 1072TIP3    H124631   5.270   2.451   4.413 -0.8313  0.3133 -0.7558
 1072TIP3    H224632   5.141   2.512   4.462 -0.6908  0.4729 -0.5851
 1073TIP3   OH224633   3.858   3.264   2.879  0.2476  0.1549 -0.6999
 1073TIP3    H124634   3.811   3.201   2.825 -1.6801  1.0757 -0.1237
 1073TIP3    H224635   3.902   3.211   2.945  0.1107 -0.7210 -1.3047
 1074TIP3   OH224636   2.691   2.499   0.392 -0.2477 -0.4843 -0.1278
 1074TIP3    H124637   2.637   2.506   0.471 -1.5141 -1.2779 -0.9104
 1074TIP3    H224638   2.774   2.463   0.423 -0.8802 -1.1751  0.7925
 1075TIP3   OH224639   3.004   5.797   0.177 -0.1500  0.0141  0.2704
 1075TIP3    H124640   3.024   5.735   0.107 -1.2773  1.2310 -1.1609
 1075TIP3    H224641   2.992   5.742   0.255  2.2962 -1.2632 -0.2039
 1076TIP3   OH224642   5.684   6.135  16.348  0.5484  0.1133  0.0103
 1076TIP3    H124643   5.732   6.178  16.277  2.2902  0.1600  1.1817
 1076TIP3    H224644   5.749   6.081  16.392 -0.4871  0.1503  1.6331
 1077TIP3   OH224645   2.920   1.591   0.082 -0.2249 -0.0361 -0.2007
 1077TIP3    H124646   2.835   1.603   0.040 -1.0913  0.3356  1.6423
 1077TIP3    H224647   2.899   1.562   0.170  1.5611  0.5983  0.4427
 1078TIP3   OH224648   2.145   4.473  11.950  0.0415 -0.0519  0.4154
 1078TIP3    H124649   2.176   4.439  11.866 -0.5130  0.0487  0.1631
 1078TIP3    H224650   2.146   4.568  11.939  1.9568  0.0435  1.2542
 1079TIP3   OH224651   6.769   6.569  13.087 -0.6503  0.0278  0.3266
 1079TIP3    H124652   6.716   6.613  13.154 -1.6346  0.7110 -0.8853
 1079TIP3    H224653   6.732   6.598  13.004 -0.3535 -1.9527 -0.5171
 1080TIP3   OH224654   0.909   3.359  13.107  0.0291 -0.3800  0.6339
 1080TIP3    H124655   0.898   3.429  13.171  1.8868  0.6416 -0.1102
 1080TIP3    H224656   0.837   3.300  13.123 -1.5953  1.7172  1.3021
 1081TIP3   OH224657   2.035   0.276  12.329 -0.4567  0.2986  0.3205
 1081TIP3    H124658   2.017   0.322  12.411 -1.9600  0.9094 -0.3219
 1081TIP3    H224659   2.012   0.184  12.348  1.8749 -0.0866  1.3913
 1082TIP3   OH224660   4.266   1.732   5.418  0.1024  0.3237 -0.4370
 1082TIP3    H124661   4.226   1.654   5.456  0.9154  1.0079  1.8604
 1082TIP3    H224662   4.192   1.790   5.401 -0.1782  0.4513  1.1547
 1083TIP3   OH224663   5.321   0.666   0.433  0.7475 -0.0571 -0.3633
 1083TIP3    H124664   5.328   0.584   0.483  1.2456 -0.5422 -1.2016
 1083TIP3    H224665   5.341   0.640   0.343  0.6336  0.9446 -0.6828
 1084TIP3   OH224666   1.728   5.886   1.990 -0.3258 -0.5557 -0.2265
 1084TIP3    H124667   1.736   5.966   2.042 -2.7597 -0.5142  0.1307
 1084TIP3    H224668   1.818   5.856   1.979  0.4476  0.9311  1.6713
 1085TIP3   OH224669   0.224   5.233  14.381  0.1947  0.3369  0.0035
 1085TIP3    H124670   0.220   5.315  14.429  0.4235  0.1493  0.3409
 1085TIP3    H224671   0.317   5.212  14.376  0.0206 -0.9493  1.7020
 1086TIP3   OH224672   3.208   1.406  14.187 -0.3169 -0.0350  0.3618
 1086TIP3    H124673   3.117   1.422  14.213 -0.6027 -2.0827  0.7227
 1086TIP3    H224674   3.221   1.312  14.200  2.3096  0.4589  1.7571
 1087TIP3   OH224675   5.257   1.301   0.097 -0.5811  0.1349 -0.2227
 1087TIP3    H124676   5.184   1.259   0.143 -0.3104 -0.8154 -0.6437
 1087TIP3    H224677   5.281   1.375   0.152 -1.1714 -0.1706  0.4521
 1088TIP3   OH224678   5.056   5.049  10.589  0.3963  0.4583  0.5510
 1088TIP3    H124679   5.076   5.065  10.681 -0.9952  0.9905  0.7771
 1088TIP3    H224680   4.988   4.981  10.590  0.5801  0.2561 -0.0954
 1089TIP3   OH224681   4.028   5.824  13.939  0.2472 -0.0055 -0.4035
 1089TIP3    H124682   3.970   5.750  13.957 -1.6717  1.0441 -1.9344
 1089TIP3    H224683   3.978   5.900  13.968  1.9602  0.7452  0.6201
 1090TIP3   OH224684   2.072   4.177   6.156 -0.4523  0.6428  0.2791
 1090TIP3    H124685   2.077   4.187   6.252 -1.5810  0.7859  0.3248
 1090TIP3    H224686   2.012   4.105   6.142 -1.2595  1.4224 -0.3497
 1091TIP3   OH224687   0.032   2.324  16.556 -0.1083 -0.1851  0.3053
 1091TIP3    H124688  -0.059   2.312  16.527  0.6972  1.6517 -3.2634
 1091TIP3    H224689   0.074   2.241  16.534 -0.4108 -0.1980 -0.2567
 1092TIP3   OH224690   4.439   0.843   2.704  0.0691 -0.4752  0.4059
 1092TIP3    H124691   4.512   0.901   2.680  0.5086 -1.5239 -0.8557
 1092TIP3    H224692   4.478   0.755   2.706 -0.9864 -0.9438  0.5047
 1093TIP3   OH224693   0.128   2.105  11.408 -0.1804  0.4354  0.2025
 1093TIP3    H124694   0.201   2.062  11.453  0.2095 -0.1598 -0.9879
 1093TIP3    H224695   0.064   2.035  11.394  0.1710  0.3818 -1.1542
 1094TIP3   OH224696   5.869   6.762  13.345 -0.1776 -0.1481  0.4086
 1094TIP3    H124697   5.797   6.704  13.370 -1.6049  1.3207 -0.1940
 1094TIP3    H224698   5.831   6.822  13.281  1.6267  0.5811 -0.0275
 1095TIP3   OH224699   5.422   6.062   3.138  0.5687 -0.2802 -0.5583
 1095TIP3    H124700   5.471   6.117   3.198 -1.9377  0.4968  0.8747
 1095TIP3    H224701   5.378   6.124   3.079  0.4584 -0.9092 -1.1531
 1096TIP3   OH224702   5.168   4.237   3.449  0.1924 -0.1014 -0.2510
 1096TIP3    H124703   5.236   4.277   3.502  1.4170 -0.3424 -1.5945
 1096TIP3    H224704   5.122   4.311   3.409 -0.3287  0.0612  0.6490
 1097TIP3   OH224705   6.001   5.867  12.516 -0.6945  0.0929 -0.3766
 1097TIP3    H124706   5.968   5.782  12.546  0.5496 -0.0784  0.5725
 1097TIP3    H224707   6.035   5.908  12.596  2.2906 -0.1668 -1.4503
 1098TIP3   OH224708   5.200   6.558  13.341  0.2392 -0.1507 -0.4635
 1098TIP3    H124709   5.223   6.522  13.426  1.5694 -0.6765 -1.0352
 1098TIP3    H224710   5.256   6.512  13.279 -0.4408  0.5014 -1.5832
 1099TIP3   OH224711   3.786   0.921  10.575 -0.1807  0.0845 -0.3420
 1099TIP3    H124712   3.840   0.926  10.496  1.2024 -1.1787  0.4961
 1099TIP3    H224713   3.734   0.841  10.562  2.4062 -1.9751  1.4285
 1100TIP3   OH224714   3.302   4.125  15.315 -0.9892  0.3511  0.3709
 1100TIP3    H124715   3.313   4.096  15.405 -1.7876  1.5030  0.8594
 1100TIP3    H224716   3.336   4.053  15.262 -0.9176 -0.5249  1.5791
 1101TIP3   OH224717   3.124   6.449  15.046  0.3119 -0.1868  0.3693
 1101TIP3    H124718   3.060   6.381  15.066 -0.3248  0.1913 -0.3967
 1101TIP3    H224719   3.141   6.440  14.952 -0.7060  1.5164  0.0135
 1102TIP3   OH224720   0.235   2.325  13.976  0.3556 -0.2202  0.7880
 1102TIP3    H124721   0.252   2.403  14.030 -0.1991  0.4027  0.0747
 1102TIP3    H224722   0.312   2.317  13.920  1.0327 -0.9974  1.8126
 1103TIP3   OH224723   6.108   0.578   0.688 -0.6921 -0.3805 -0.1956
 1103TIP3    H124724   6.185   0.522   0.694  0.7591  1.4749 -0.8102
 1103TIP3    H224725   6.086   0.598   0.779 -0.3142 -0.7576 -0.0165
 1104TIP3   OH224726   6.495   6.400  12.938 -0.3482  0.2630 -0.0782
 1104TIP3    H124727   6.575   6.384  12.889 -0.6089 -0.7868 -0.1618
 1104TIP3    H224728   6.425   6.388  12.874 -0.6320  0.0243  0.2757
 1105TIP3   OH224729   0.244   6.032  10.889 -1.0983  0.1466 -0.0186
 1105TIP3    H124730   0.313   6.044  10.954 -1.3512  0.0858  0.2619
 1105TIP3    H224731   0.251   5.941  10.863 -1.6384 -0.0972  0.6596
 1106TIP3   OH224732   4.495   0.658  13.375  0.4166  0.1505 -0.4902
 1106TIP3    H124733   4.522   0.721  13.441 -1.8772  0.4996  0.1561
 1106TIP3    H224734   4.550   0.581  13.391 -0.0190  0.2764  1.7823
 1107TIP3   OH224735   2.480   5.430   5.206 -0.5214  0.1840 -0.3706
 1107TIP3    H124736   2.498   5.520   5.234 -3.9281  0.7648  0.2080
 1107TIP3    H224737   2.461   5.383   5.287  0.8291 -0.9948 -0.7138
 1108TIP3   OH224738   4.237   4.994   0.152  0.4283  0.2955 -0.2930
 1108TIP3    H124739   4.143   5.014   0.147  0.5546  0.8176 -0.6880
 1108TIP3    H224740   4.257   4.994   0.245 -0.0941 -0.4449 -0.1732
 1109TIP3   OH224741   0.852   3.895  11.470  0.2243  0.3188  0.2300
 1109TIP3    H124742   0.761   3.920  11.483  0.2247 -0.0032  0.8570
 1109TIP3    H224743   0.895   3.915  11.553  0.9102  1.2730 -0.3414
 1110TIP3   OH224744   3.302   0.829  16.624 -0.5533 -0.3396 -0.1340
 1110TIP3    H124745   3.242   0.785  16.684 -0.7521 -1.8473 -1.4081
 1110TIP3    H224746   3.387   0.789  16.642 -0.5979 -0.7427 -0.7810
 1111TIP3   OH224747   3.327   3.976   0.404  0.6098  0.1365  0.1453
 1111TIP3    H124748   3.315   3.987   0.309  0.1547  0.3235  0.2248
 1111TIP3    H224749   3.416   3.940   0.412  0.7058  0.2506 -0.3432
 1112TIP3   OH224750   5.808   2.039  11.084 -0.5351 -0.6273 -0.5126
 1112TIP3    H124751   5.851   1.992  11.155  0.8937  0.2786 -0.7501
 1112TIP3    H224752   5.716   2.042  11.109  0.2222  1.2971  2.2065
 1113TIP3   OH224753   0.973   6.190   0.113 -0.1954  0.2880 -0.4326
 1113TIP3    H124754   1.019   6.107   0.101  1.0661  1.1809 -1.9736
 1113TIP3    H224755   1.034   6.244   0.163  0.1234  1.1987 -1.7831
 1114TIP3   OH224756   3.024   2.899   2.247 -0.2975 -0.0558  0.2464
 1114TIP3    H124757   3.067   2.923   2.329 -0.6644 -2.8136  1.3064
 1114TIP3    H224758   2.933   2.926   2.258 -0.5511 -1.2418  1.1393
 1115TIP3   OH224759   5.123   3.697   4.093  0.5464 -0.1271  0.0588
 1115TIP3    H124760   5.047   3.752   4.075  1.0048  0.1936 -0.9386
 1115TIP3    H224761   5.116   3.676   4.186 -0.2568  0.6535  0.1809
 1116TIP3   OH224762   5.790   0.868   3.886 -0.0244 -0.1210 -0.3611
 1116TIP3    H124763   5.814   0.778   3.910 -0.6475 -0.1764  0.0719
 1116TIP3    H224764   5.723   0.892   3.950  1.0869  1.1178  0.3625
 1117TIP3   OH224765   2.742   5.402   2.845 -0.0447  0.5982 -0.2738
 1117TIP3    H124766   2.774   5.482   2.803  0.4834  1.0247  0.9223
 1117TIP3    H224767   2.700   5.353   2.774  1.0374  1.1933 -1.3420
 1118TIP3   OH224768   6.473   4.634  15.694  0.3618 -0.0421 -0.4611
 1118TIP3    H124769   6.500   4.725  15.696 -1.2572  0.4571 -0.5277
 1118TIP3    H224770   6.468   4.608  15.786 -0.8338  0.4533 -0.3793
 1119TIP3   OH224771   3.175   2.748   4.359 -0.1701  0.2819 -0.1881
 1119TIP3    H124772   3.255   2.775   4.404 -0.1600  1.1000 -0.6918
 1119TIP3    H224773   3.203   2.678   4.301  0.2340  0.7577 -0.5706
 1120TIP3   OH224774   1.007   2.285   5.057 -0.4006  0.5819 -0.5192
 1120TIP3    H124775   0.961   2.342   5.119 -0.3051 -0.1534  0.2293
 1120TIP3    H224776   1.093   2.326   5.046  0.3006 -0.3411  1.3443
 1121TIP3   OH224777   2.675   4.343  15.282 -0.6365  0.3438  0.3249
 1121TIP3    H124778   2.661   4.350  15.188  0.2282  0.1241  0.1728
 1121TIP3    H224779   2.623   4.414  15.320 -1.1519  0.3062 -0.2981
 1122TIP3   OH224780   0.333   0.311   4.625 -0.4792 -0.3741 -0.2709
 1122TIP3    H124781   0.405   0.318   4.688  0.5867  1.8974 -1.6656
 1122TIP3    H224782   0.352   0.231   4.576  1.3337  0.3970 -0.8743
 1123TIP3   OH224783   1.000   5.189   2.688 -0.0487  0.8334 -0.3065
 1123TIP3    H124784   1.040   5.106   2.663  0.7216  1.2929 -0.6431
 1123TIP3    H224785   0.972   5.228   2.606  0.1405  1.1799 -0.2069
 1124TIP3   OH224786   5.820   0.904  16.504 -0.1293  0.7899  0.0182
 1124TIP3    H124787   5.906   0.928  16.536 -0.4795  1.7689  0.2461
 1124TIP3    H224788   5.759   0.943  16.567 -0.6942 -1.5830  0.9943
 1125TIP3   OH224789   4.171   0.051  11.685  0.3561 -0.1673  0.3546
 1125TIP3    H124790   4.119   0.060  11.764 -0.2971  0.1041 -0.1002
 1125TIP3    H224791   4.202  -0.040  11.687  1.4661  0.2316  1.5882
 1126TIP3   OH224792   1.634   5.295   0.976 -0.8047 -0.1174  0.8385
 1126TIP3    H124793   1.720   5.280   1.016 -0.3157  0.6172  0.0766
 1126TIP3    H224794   1.637   5.386   0.947 -1.1108 -0.6431 -0.9410
 1127TIP3   OH224795   0.547   5.008  13.265 -0.0990 -0.6171 -0.1603
 1127TIP3    H124796   0.631   5.054  13.268 -0.3223 -0.2774  1.6994
 1127TIP3    H224797   0.482   5.075  13.286 -0.7597 -1.0756 -0.7031
 1128TIP3   OH224798   3.298   1.647   3.210  0.4263 -0.5305 -0.2190
 1128TIP3    H124799   3.226   1.647   3.273  1.3963 -1.0721  0.9102
 1128TIP3    H224800   3.296   1.559   3.172  1.3804 -1.0172  0.8508
 1129TIP3   OH224801   2.623   3.524   3.364  0.1335 -0.4690 -0.0442
 1129TIP3    H124802   2.718   3.509   3.356  0.2199  0.4757 -0.7935
 1129TIP3    H224803   2.589   3.442   3.400  0.7784 -2.0137 -2.8484
 1130TIP3   OH224804   5.123   3.019   4.545  0.4234  0.2587 -0.1009
 1130TIP3    H124805   5.070   2.944   4.572  0.1258  1.3536  2.4456
 1130TIP3    H224806   5.208   2.981   4.523  0.2022 -0.8588  0.9459
 1131TIP3   OH224807   3.156   6.139  13.148 -0.5774 -0.4064  0.2291
 1131TIP3    H124808   3.112   6.056  13.130 -1.1848 -0.1045  0.3161
 1131TIP3    H224809   3.094   6.206  13.118 -0.0824  0.0147  0.1398
 1132TIP3   OH224810   4.510   0.303  14.575 -0.0414 -0.4122 -0.1317
 1132TIP3    H124811   4.449   0.256  14.519 -0.2760 -0.6285  0.3009
 1132TIP3    H224812   4.595   0.261  14.559 -0.3111 -1.2128  0.4977
 1133TIP3   OH224813   2.657   3.696   0.780 -0.6454  0.0638 -0.1773
 1133TIP3    H124814   2.722   3.727   0.843 -2.8707  3.3394  0.6114
 1133TIP3    H224815   2.708   3.667   0.705  1.8109  0.6213  1.2311
 1134TIP3   OH224816   0.060   4.501  15.709  0.5976 -0.0567 -0.6845
 1134TIP3    H124817  -0.029   4.482  15.678 -0.3473 -0.9077  2.3085
 1134TIP3    H224818   0.115   4.437  15.666 -0.8505 -2.0990  0.4217
 1135TIP3   OH224819   4.789   1.955   3.308  1.0284  0.0455  0.2947
 1135TIP3    H124820   4.751   2.028   3.260 -1.0037  0.1734  1.9695
 1135TIP3    H224821   4.789   1.882   3.246 -2.4163 -0.0478  0.3092
 1136TIP3   OH224822   6.652   5.829   3.053 -0.4645 -0.6585 -0.3410
 1136TIP3    H124823   6.745   5.807   3.048 -0.0946  0.9165 -0.4825
 1136TIP3    H224824   6.612   5.780   2.981  0.2898 -1.0893 -0.4771
 1137TIP3   OH224825   1.481   1.757  14.040  0.3662 -0.0829  0.3017
 1137TIP3    H124826   1.426   1.678  14.038  1.0440 -0.5726  0.8712
 1137TIP3    H224827   1.570   1.724  14.040  0.6580  0.6359  2.2434
 1138TIP3   OH224828   5.678   6.472   3.066  0.4450  0.8779  0.1969
 1138TIP3    H124829   5.654   6.513   2.983 -1.2948 -0.1861  0.1535
 1138TIP3    H224830   5.700   6.546   3.123 -0.1239  1.7337 -0.6658
 1139TIP3   OH224831   4.306   3.922  15.128  0.3905 -0.2312  0.1941
 1139TIP3    H124832   4.387   3.970  15.142  1.2335 -0.7869 -2.5795
 1139TIP3    H224833   4.262   3.968  15.057 -1.2012 -0.6234  0.8935
 1140TIP3   OH224834   1.895   1.382   5.831 -0.3537 -0.1492  0.0177
 1140TIP3    H124835   1.959   1.315   5.855  1.3520  0.4514 -2.7309
 1140TIP3    H224836   1.908   1.451   5.896 -0.2430 -1.2581  1.2082
 1141TIP3   OH224837   5.694   5.391   2.513  0.0919 -0.2418  0.5468
 1141TIP3    H124838   5.785   5.410   2.536  0.5838 -1.5398 -0.3081
 1141TIP3    H224839   5.674   5.451   2.442  0.0846  0.4477  1.1213
 1142TIP3   OH224840   0.869   3.395   1.198 -0.7717  0.2487 -0.3437
 1142TIP3    H124841   0.874   3.476   1.146  0.2778 -0.3112 -1.1514
 1142TIP3    H224842   0.943   3.401   1.259 -0.5775 -0.1798 -0.5331
 1143TIP3   OH224843   6.656   5.946   4.132  0.3285 -0.5279 -0.3958
 1143TIP3    H124844   6.731   5.944   4.192 -0.0207  0.5608  0.0959
 1143TIP3    H224845   6.689   5.990   4.054  0.8045 -2.0153 -1.0458
 1144TIP3   OH224846   3.249   3.794   2.703  0.1160  0.2181 -0.0094
 1144TIP3    H124847   3.286   3.823   2.619 -0.2047 -1.4953 -0.7489
 1144TIP3    H224848   3.313   3.731   2.737 -0.4313 -0.1276  0.3772
 1145TIP3   OH224849   2.224   2.750  14.277 -0.7057 -0.2728 -0.1810
 1145TIP3    H124850   2.134   2.781  14.271 -1.1586 -1.6416 -0.5980
 1145TIP3    H224851   2.228   2.676  14.217  0.6930 -0.2446 -0.1405
 1146TIP3   OH224852   4.288   2.600  15.044  0.0033  0.5869  0.0709
 1146TIP3    H124853   4.328   2.562  15.122  1.3801  3.3430  0.7914
 1146TIP3    H224854   4.194   2.590  15.058  0.2703 -0.0005  1.5262
 1147TIP3   OH224855   6.723   5.939   0.978 -0.2157 -0.4385  0.6290
 1147TIP3    H124856   6.647   5.945   1.036 -0.1030  1.2661  0.6149
 1147TIP3    H224857   6.690   5.965   0.892  0.3380  0.1012  0.5781
 1148TIP3   OH224858   4.142   0.824  11.801  0.4180 -0.0019  0.0411
 1148TIP3    H124859   4.138   0.839  11.706  0.2053  0.3346  0.1004
 1148TIP3    H224860   4.051   0.830  11.829  0.2903 -1.6709  0.0357
 1149TIP3   OH224861   2.108   2.203  16.502 -0.2698  0.0445 -0.1228
 1149TIP3    H124862   2.123   2.282  16.450 -1.4257  0.7966  0.6547
 1149TIP3    H224863   2.173   2.208  16.573  1.1537 -0.8661 -1.3185
 1150TIP3   OH224864   1.188   0.230   5.416 -0.4700  0.1254  0.1016
 1150TIP3    H124865   1.201   0.298   5.483 -0.5395 -2.0347  2.3940
 1150TIP3    H224866   1.106   0.253   5.373  0.9944  3.1259 -1.2203
 1151TIP3   OH224867   3.595   6.428  13.602 -0.3475 -0.2978 -0.5332
 1151TIP3    H124868   3.653   6.450  13.529 -1.8041 -0.1141 -1.6563
 1151TIP3    H224869   3.516   6.479  13.587  0.0647  1.2955  2.2949
 1152TIP3   OH224870   1.509   1.649   4.730  0.2039 -0.0968  0.2338
 1152TIP3    H124871   1.540   1.625   4.817  2.1710 -1.5239 -0.8117
 1152TIP3    H224872   1.433   1.593   4.716 -0.2163  0.2516  1.1012
 1153TIP3   OH224873   4.645   0.829   2.226 -0.1723 -0.2691 -0.1704
 1153TIP3    H124874   4.553   0.829   2.201 -0.0864 -1.8183 -0.5442
 1153TIP3    H224875   4.692   0.815   2.144  0.3488 -0.5645  0.1771
 1154TIP3   OH224876   5.947   1.998   4.872 -0.1707 -0.8163  0.1995
 1154TIP3    H124877   5.863   2.026   4.909  0.5333  0.0269  1.1615
 1154TIP3    H224878   5.968   1.917   4.918  0.8871  0.4258  1.9408
 1155TIP3   OH224879   3.170   4.560   6.017  0.6193 -0.5900 -0.3481
 1155TIP3    H124880   3.169   4.526   6.106 -2.4592 -1.1581 -0.5745
 1155TIP3    H224881   3.208   4.489   5.965  0.3218 -1.1398  0.1738
 1156TIP3   OH224882   6.303   3.264  14.105 -0.3056  0.2276 -0.4978
 1156TIP3    H124883   6.385   3.237  14.063  0.2413 -0.8671  1.2076
 1156TIP3    H224884   6.293   3.356  14.082  2.9009  1.1894  1.5671
 1157TIP3   OH224885   6.776   5.082   5.565 -0.1758  0.4855 -0.0183
 1157TIP3    H124886   6.787   5.089   5.470 -2.6404  0.0397 -0.3762
 1157TIP3    H224887   6.865   5.085   5.600  0.7422  1.1377 -2.3027
 1158TIP3   OH224888   4.992   0.096  17.127 -0.4517  0.4960  0.5974
 1158TIP3    H124889   4.898   0.096  17.146 -0.7598  1.3500 -0.8083
 1158TIP3    H224890   5.034   0.087  17.212 -1.8310 -1.4014  1.0980
 1159TIP3   OH224891   4.195   1.445  15.931  0.0995 -0.0229 -0.1984
 1159TIP3    H124892   4.170   1.537  15.932  1.1361  0.3499 -3.3603
 1159TIP3    H224893   4.121   1.400  15.891  0.6069 -0.2231 -0.9126
 1160TIP3   OH224894   6.169   1.014   1.158 -0.1673 -0.2398 -0.1021
 1160TIP3    H124895   6.159   1.030   1.064  1.2515  0.9777 -0.0631
 1160TIP3    H224896   6.080   1.015   1.192 -0.6591 -0.2451 -1.3705
 1161TIP3   OH224897   0.789   6.779   4.461 -0.3087  0.0205 -0.0345
 1161TIP3    H124898   0.730   6.704   4.452  1.4698 -1.5534  0.9824
 1161TIP3    H224899   0.876   6.740   4.468  0.6467  2.1947  0.5911
 1162TIP3   OH224900   1.800   3.584   4.329 -0.4812 -0.2868 -0.0311
 1162TIP3    H124901   1.818   3.677   4.338 -0.0387 -0.4099  0.4036
 1162TIP3    H224902   1.790   3.553   4.419 -1.9522 -0.4061 -0.2208
 1163TIP3   OH224903   6.779   4.056   6.038  0.1594  0.3787 -0.1553
 1163TIP3    H124904   6.871   4.075   6.021  0.0036  1.0200 -0.2819
 1163TIP3    H224905   6.766   3.966   6.005  1.7175 -1.2584  3.4840
 1164TIP3   OH224906   4.865   3.905   3.269 -0.2069 -0.0836 -0.2501
 1164TIP3    H124907   4.779   3.947   3.275 -0.2640 -0.0796 -1.0890
 1164TIP3    H224908   4.925   3.975   3.245 -0.0256 -0.1614 -0.0295
 1165TIP3   OH224909   4.147   4.290  11.445  0.1858 -0.2645 -0.0920
 1165TIP3    H124910   4.077   4.322  11.388  0.7825 -0.9069 -1.1919
 1165TIP3    H224911   4.107   4.286  11.532 -0.8049  0.4725 -0.5047
 1166TIP3   OH224912   6.448   4.627   1.369  0.1336  0.9019 -0.2225
 1166TIP3    H124913   6.458   4.571   1.292  1.5606  1.0533 -0.1554
 1166TIP3    H224914   6.371   4.680   1.351 -0.0864  0.2765 -1.1330
 1167TIP3   OH224915   6.653   6.641   5.269  0.5121  0.2664  0.6629
 1167TIP3    H124916   6.663   6.731   5.301 -0.6986  0.1234  1.4631
 1167TIP3    H224917   6.569   6.612   5.306  0.4143 -0.8397 -0.4195
 1168TIP3   OH224918   0.051   0.010   5.538  0.3275  0.0393  0.7554
 1168TIP3    H124919   0.005  -0.048   5.598  1.9274  1.3331  3.3108
 1168TIP3    H224920   0.127  -0.040   5.508 -0.5730 -0.6729 -0.3806
 1169TIP3   OH224921   3.652   0.184  17.069  0.0193  0.2746  0.1767
 1169TIP3    H124922   3.692   0.201  17.154  0.6047 -0.6581  0.0912
 1169TIP3    H224923   3.616   0.096  17.077  0.3451  0.0629 -0.6378
 1170TIP3   OH224924   5.957   1.146  15.893  1.0756 -0.1988 -0.1596
 1170TIP3    H124925   5.910   1.090  15.955  2.2399 -1.0934 -0.0815
 1170TIP3    H224926   5.897   1.220  15.878  0.2084 -0.6587  0.9603
 1171TIP3   OH224927   0.982   5.726  13.105 -0.2115 -0.1552  0.1903
 1171TIP3    H124928   1.046   5.738  13.035  0.0297  0.8739  0.5759
 1171TIP3    H224929   0.937   5.645  13.083 -0.4739  0.4056 -1.4124
 1172TIP3   OH224930   5.758   1.263   3.092 -0.8306 -0.2937 -0.2004
 1172TIP3    H124931   5.724   1.327   3.154  0.8655  0.1861  0.2385
 1172TIP3    H224932   5.818   1.312   3.037 -0.7397 -1.1717 -0.8920
 1173TIP3   OH224933   2.961   1.303   1.792  1.0990 -0.0958  0.0018
 1173TIP3    H124934   2.897   1.232   1.799  0.1535  0.3994 -2.9301
 1173TIP3    H224935   2.927   1.372   1.850 -1.3536  0.3490 -1.8792
 1174TIP3   OH224936   3.618   4.487  13.324 -0.3106  0.5195  0.2546
 1174TIP3    H124937   3.573   4.565  13.290  0.2585  0.5523 -0.4295
 1174TIP3    H224938   3.662   4.518  13.403 -0.8458  0.6695  0.5003
 1175TIP3   OH224939   6.732   1.122   2.555 -0.1763  0.3883  0.2671
 1175TIP3    H124940   6.809   1.099   2.503  0.2631 -0.4045  1.2388
 1175TIP3    H224941   6.760   1.197   2.608 -0.0922  0.1433  0.5707
 1176TIP3   OH224942   5.766   1.252  15.299  0.0162  0.5526 -0.2854
 1176TIP3    H124943   5.716   1.334  15.299  0.3534  0.8157  3.0735
 1176TIP3    H224944   5.703   1.184  15.322  0.5525  0.4469  0.8924
 1177TIP3   OH224945   3.167   3.066  11.465 -0.5152  0.1110  0.1278
 1177TIP3    H124946   3.103   3.031  11.527  0.3607 -1.1548  0.3216
 1177TIP3    H224947   3.119   3.078  11.384 -1.1652 -0.1901  0.4708
 1178TIP3   OH224948   6.277   1.436  14.378  0.3684 -0.1582  0.3888
 1178TIP3    H124949   6.248   1.431  14.469 -0.5446 -0.7628  0.0796
 1178TIP3    H224950   6.213   1.493  14.335  0.1628 -0.7302 -0.0912
 1179TIP3   OH224951   0.037   2.643  16.613 -0.1783  0.7406  0.3540
 1179TIP3    H124952   0.030   2.567  16.671  1.1025 -0.6876 -1.3093
 1179TIP3    H224953  -0.031   2.630  16.547  0.7258  0.4713 -0.5445
 1180TIP3   OH224954   3.810   4.986  16.019 -0.4217  0.5185 -0.1555
 1180TIP3    H124955   3.842   5.076  16.017  1.3575 -0.1122 -1.7333
 1180TIP3    H224956   3.887   4.934  16.041 -1.5654 -0.5825  1.3070
 1181TIP3   OH224957   2.555   4.611  16.088 -0.1293 -0.3465 -0.0903
 1181TIP3    H124958   2.460   4.616  16.074  0.0883 -2.5257 -2.7712
 1181TIP3    H224959   2.592   4.656  16.012  1.0247 -0.7906  0.2014
 1182TIP3   OH224960   1.793   6.622   1.988  0.7049 -0.4502 -0.2014
 1182TIP3    H124961   1.740   6.635   1.910  1.5238  0.5534 -0.5985
 1182TIP3    H224962   1.764   6.690   2.049  2.1693  0.6959 -0.7679
 1183TIP3   OH224963   4.451   1.554   3.364  0.3020 -0.9137 -0.3831
 1183TIP3    H124964   4.487   1.505   3.438  0.9447  1.7048  1.1113
 1183TIP3    H224965   4.527   1.572   3.309  0.0963 -1.4117 -0.8340
 1184TIP3   OH224966   2.385   0.706  17.195  0.2493 -0.2061  0.4095
 1184TIP3    H124967   2.365   0.760  17.118  0.9371 -0.8567 -0.2315
 1184TIP3    H224968   2.317   0.730  17.259  0.8589  1.8172  0.3400
 1185TIP3   OH224969   6.587   4.480  13.785  0.0085 -0.3605 -0.3091
 1185TIP3    H124970   6.656   4.491  13.850  0.1755 -0.4260 -0.4744
 1185TIP3    H224971   6.518   4.540  13.813  0.7930  0.9081 -1.0292
 1186TIP3   OH224972   1.288   0.333  15.403 -0.3511 -0.1506  0.4842
 1186TIP3    H124973   1.236   0.396  15.352 -0.3076 -0.2248  0.3481
 1186TIP3    H224974   1.378   0.346  15.372 -0.1275  0.6783  1.4263
 1187TIP3   OH224975   3.724   6.544  11.667  0.1789  0.3089  0.9306
 1187TIP3    H124976   3.815   6.542  11.639 -0.2954 -2.2050 -0.5800
 1187TIP3    H224977   3.709   6.457  11.705 -1.2022  1.1890  2.4543
 1188TIP3   OH224978   0.883   2.841   6.327 -0.6966  0.0492  0.2243
 1188TIP3    H124979   0.894   2.821   6.420 -2.0801  1.2789  0.6791
 1188TIP3    H224980   0.948   2.909   6.309 -0.8059  0.2106  0.4351
 1189TIP3   OH224981   1.578   4.716   0.641 -0.2503  0.0080  0.1250
 1189TIP3    H124982   1.667   4.709   0.607  0.7271  5.2132  1.2010
 1189TIP3    H224983   1.582   4.675   0.728  1.5573  1.6082  0.8301
 1190TIP3   OH224984   3.776   2.701  14.210 -0.0755  0.2217  0.6591
 1190TIP3    H124985   3.739   2.623  14.169 -2.3521  0.8368  1.4757
 1190TIP3    H224986   3.798   2.759  14.137  1.6026 -1.1475  0.0501
 1191TIP3   OH224987   0.037   2.422   0.168 -0.3873 -0.4210 -0.2706
 1191TIP3    H124988   0.035   2.505   0.216  0.1006 -1.4376  1.5189
 1191TIP3    H224989   0.078   2.444   0.084 -0.0254  1.0844  0.2887
 1192TIP3   OH224990   1.532   1.531   4.362  0.3347 -0.2219 -0.1384
 1192TIP3    H124991   1.510   1.451   4.412 -0.2185  0.8224  1.3371
 1192TIP3    H224992   1.466   1.534   4.293 -1.7276  0.6805  1.7937
 1193TIP3   OH224993   4.666   2.952  17.197  0.3124 -0.3981 -0.3317
 1193TIP3    H124994   4.580   2.916  17.218  0.0427 -0.0195 -0.7915
 1193TIP3    H224995   4.685   3.013  17.269  0.0195 -0.1791 -0.4398
 1194TIP3   OH224996   2.598   1.044  14.028  0.0304  0.9852  0.3206
 1194TIP3    H124997   2.577   0.981  14.097 -0.7059  1.3969  0.4818
 1194TIP3    H224998   2.597   0.992  13.947 -2.8845  1.2039  0.1676
 1195TIP3   OH224999   6.081   6.198   4.018  0.4179  0.0858  0.0042
 1195TIP3    H125000   6.153   6.260   4.029  0.1010  0.8108 -1.8494
 1195TIP3    H225001   6.120   6.112   4.036  1.1813  0.6916  1.2916
 1196TIP3   OH225002   1.202   5.191  11.416 -0.4420 -0.0685  0.0417
 1196TIP3    H125003   1.199   5.149  11.329 -0.2108 -1.9374  0.9057
 1196TIP3    H225004   1.262   5.265  11.404  0.7474 -1.1777 -1.0386
 1197TIP3   OH225005   0.071   4.545   0.054  0.5503  0.0025 -0.1694
 1197TIP3    H125006  -0.022   4.534   0.072  0.4748 -1.5799 -1.4684
 1197TIP3    H225007   0.081   4.639   0.036 -1.1136 -0.1302 -1.8917
 1198TIP3   OH225008   4.499   1.131   6.019 -0.4714  0.5093  0.4509
 1198TIP3    H125009   4.494   1.206   5.960 -0.2433  0.4831  0.3996
 1198TIP3    H225010   4.471   1.057   5.965 -0.7352  0.5649  0.5136
 1199TIP3   OH225011   1.184   4.096   2.992 -0.2101 -0.3545 -0.1173
 1199TIP3    H125012   1.208   4.030   3.058 -2.6280  0.8274  2.0216
 1199TIP3    H225013   1.225   4.177   3.023 -0.9629  0.1066 -0.3051
 1200TIP3   OH225014   5.917   3.542  13.763  0.1934 -0.0554  0.1781
 1200TIP3    H125015   5.919   3.450  13.788 -0.7761  0.2484  1.4670
 1200TIP3    H225016   5.957   3.588  13.837  0.9820  0.5285 -0.6053
 1201TIP3   OH225017   5.539   1.494  16.632  0.1919  0.2160  0.4284
 1201TIP3    H125018   5.632   1.483  16.652  0.6953  1.9200 -0.8979
 1201TIP3    H225019   5.498   1.509  16.717  1.0606 -0.8563  1.0598
 1202TIP3   OH225020   6.320   2.614   1.158 -0.8400  0.1214 -0.1474
 1202TIP3    H125021   6.329   2.521   1.134 -0.8867  0.3368 -1.0112
 1202TIP3    H225022   6.407   2.651   1.145 -0.4126 -0.1443  1.7551
 1203TIP3   OH225023   0.126   3.552  16.721 -0.2717 -0.1325 -0.0222
 1203TIP3    H125024   0.048   3.524  16.768  0.2282  0.6134  1.2827
 1203TIP3    H225025   0.191   3.568  16.789  0.6058  0.5497 -0.9966
 1204TIP3   OH225026   1.587   3.792  12.262  0.2742  0.3500 -0.3204
 1204TIP3    H125027   1.561   3.862  12.321  1.6253 -0.3830  1.1802
 1204TIP3    H225028   1.682   3.791  12.266  0.2476 -2.2379  0.4923
 1205TIP3   OH225029   6.073   0.329   4.384 -0.8370  0.1599 -0.4577
 1205TIP3    H125030   6.008   0.286   4.441  0.0819 -0.3583  0.2095
 1205TIP3    H225031   6.111   0.398   4.438  3.4694 -3.3351  1.3095
 1206TIP3   OH225032   4.658   5.434  14.039  0.1835 -0.2669  0.7037
 1206TIP3    H125033   4.587   5.483  13.998  2.0554 -0.3893 -2.8665
 1206TIP3    H225034   4.724   5.500  14.060  0.3962 -0.5564  0.9500
 1207TIP3   OH225035   4.172   5.766  11.146  0.3318  0.3346 -0.0470
 1207TIP3    H125036   4.243   5.719  11.191 -0.1582  0.1935  0.5790
 1207TIP3    H225037   4.201   5.858  11.147 -0.0616  0.4656  1.3255
 1208TIP3   OH225038   5.782   6.252   5.492 -0.3203 -0.4125  0.0835
 1208TIP3    H125039   5.688   6.236   5.499 -0.4814  1.4774  2.9278
 1208TIP3    H225040   5.821   6.192   5.556  0.4145 -1.0410 -0.9378
 1209TIP3   OH225041   0.908   1.736   6.731 -0.6537 -0.6150 -0.1828
 1209TIP3    H125042   0.819   1.730   6.767 -0.3942 -0.8565  0.4319
 1209TIP3    H225043   0.958   1.671   6.780 -0.0538 -0.2229 -0.2716
 1210TIP3   OH225044   5.766   2.882   0.670  0.0602 -0.9010 -0.2958
 1210TIP3    H125045   5.838   2.888   0.608  0.6246 -2.5572  0.1575
 1210TIP3    H225046   5.792   2.938   0.743  0.7125 -1.1990 -0.2988
 1211TIP3   OH225047   4.842   6.024  17.104  0.1779 -0.3062  0.1659
 1211TIP3    H125048   4.812   5.942  17.065 -0.2875 -0.2365  0.3731
 1211TIP3    H225049   4.769   6.085  17.091  1.4885  0.7955 -2.2242
 1212TIP3   OH225050   2.749   2.218   5.125 -0.2905  0.1201 -0.2679
 1212TIP3    H125051   2.736   2.299   5.074  1.5153 -0.2294 -1.3355
 1212TIP3    H225052   2.828   2.235   5.176 -0.4670 -0.6103  0.2455
 1213TIP3   OH225053   6.589   2.304   6.408 -0.4552  0.1522  0.2329
 1213TIP3    H125054   6.513   2.306   6.467 -1.0019  0.6134 -0.4643
 1213TIP3    H225055   6.578   2.383   6.354  1.3194  1.0108  1.1006
 1214TIP3   OH225056   3.735   4.861   4.460  0.2014 -0.4535 -0.4668
 1214TIP3    H125057   3.752   4.772   4.492 -0.2150 -0.9185 -1.5091
 1214TIP3    H225058   3.667   4.894   4.519  0.8024 -0.5897  0.3128
 1215TIP3   OH225059   3.555   2.128   2.002  0.4278 -0.1245 -0.3642
 1215TIP3    H125060   3.510   2.052   2.039 -1.1705  1.0843  0.1815
 1215TIP3    H225061   3.577   2.101   1.912  0.8950 -1.6392  0.1875
 1216TIP3   OH225062   1.582   3.689   4.763 -0.0320 -0.3574  0.1448
 1216TIP3    H125063   1.624   3.731   4.838 -3.6863  2.6185  0.6586
 1216TIP3    H225064   1.535   3.614   4.800  0.5148 -0.5947  0.3614
 1217TIP3   OH225065   4.852   5.455   5.759  0.3802  0.2314 -0.0724
 1217TIP3    H125066   4.916   5.388   5.781  0.8271  0.5699 -0.3376
 1217TIP3    H225067   4.845   5.508   5.839 -0.8596 -0.8246  0.5498
 1218TIP3   OH225068   0.395   5.479   5.005  0.3163  0.4523 -0.4241
 1218TIP3    H125069   0.471   5.443   5.051 -1.5181 -3.6134 -0.3305
 1218TIP3    H225070   0.324   5.475   5.068 -0.8916  0.3575 -1.7571
 1219TIP3   OH225071   0.178   5.535  16.117  0.4716 -0.0855  0.1104
 1219TIP3    H125072   0.255   5.490  16.081  0.8527  1.2393 -0.7728
 1219TIP3    H225073   0.200   5.547  16.210  0.8478 -0.7232  0.1099
 1220TIP3   OH225074   5.013   0.942   3.220  0.0942  0.1974 -0.4111
 1220TIP3    H125075   5.069   0.996   3.275 -0.4536 -0.0325  0.3895
 1220TIP3    H225076   5.068   0.867   3.195  0.5569  0.6466 -0.7499
 1221TIP3   OH225077   4.461   2.592  15.535  0.4173  0.7437  0.2863
 1221TIP3    H125078   4.496   2.681  15.540  2.1028  0.1289 -0.3556
 1221TIP3    H225079   4.428   2.584  15.446  1.3682  0.3284 -0.0322
 1222TIP3   OH225080   0.414   1.134   5.960  0.4516  0.6201 -0.1400
 1222TIP3    H125081   0.442   1.064   6.018  0.9551  0.3653 -0.6825
 1222TIP3    H225082   0.484   1.141   5.895 -2.0238 -1.9445 -3.2184
 1223TIP3   OH225083   4.007   2.098   4.168 -0.6040 -0.2195 -0.4507
 1223TIP3    H125084   4.001   2.175   4.225  2.5624  0.0043 -0.3699
 1223TIP3    H225085   4.089   2.110   4.120  0.5261 -4.1263  0.3611
 1224TIP3   OH225086   6.207   1.896   3.139 -0.4211  0.1699  0.0565
 1224TIP3    H125087   6.236   1.838   3.210  1.8862  1.3806  0.1413
 1224TIP3    H225088   6.155   1.963   3.184 -0.2960  0.0478  0.3894
 1225TIP3   OH225089   5.911   2.337   4.512  0.0796 -0.1038  0.2707
 1225TIP3    H125090   5.850   2.394   4.466 -0.6907 -1.5488 -0.5331
 1225TIP3    H225091   5.869   2.319   4.596  0.4936  0.7972  0.6760
 1226TIP3   OH225092   4.601   1.791  16.562 -0.3640  0.1823  0.0001
 1226TIP3    H125093   4.618   1.723  16.627 -0.0786 -0.1495 -0.4186
 1226TIP3    H225094   4.687   1.830  16.545 -0.3396 -0.1228 -0.6017
 1227TIP3   OH225095   0.651   0.804   6.444  0.8808  0.4613 -0.4735
 1227TIP3    H125096   0.615   0.880   6.400  0.1958  1.5060  1.8120
 1227TIP3    H225097   0.729   0.837   6.489  1.0226 -0.3572 -0.0991
 1228TIP3   OH225098   0.897   1.743   5.375  0.3588 -0.3812  0.3105
 1228TIP3    H125099   0.968   1.792   5.333  1.3313 -2.2519 -0.2656
 1228TIP3    H225100   0.821   1.758   5.320  1.0638 -0.8999 -0.8207
 1229TIP3   OH225101   1.940   5.046  13.769  0.0210 -0.1424  0.0651
 1229TIP3    H125102   1.988   4.990  13.707 -1.6730  1.2145 -2.5962
 1229TIP3    H225103   2.008   5.086  13.823  1.6123 -1.0826 -1.1820
 1230TIP3   OH225104   2.542   0.761  14.151 -0.2399  0.0943 -0.4660
 1230TIP3    H125105   2.521   0.719  14.068 -0.0377  0.1578 -0.5514
 1230TIP3    H225106   2.457   0.775  14.193 -0.3884  0.5658 -0.9118
 1231TIP3   OH225107   2.738   3.555  16.349 -0.3711 -0.1301 -0.1666
 1231TIP3    H125108   2.755   3.575  16.441  1.7966  1.4372 -0.8675
 1231TIP3    H225109   2.785   3.623  16.301 -0.7204 -1.4703 -2.4654
 1232TIP3   OH225110   0.222   1.299   5.342 -0.2077 -0.2077  0.4143
 1232TIP3    H125111   0.206   1.212   5.377 -0.5821 -0.9072 -1.4268
 1232TIP3    H225112   0.157   1.355   5.385 -1.3000 -1.2221  0.0770
 1233TIP3   OH225113   5.788   5.517  16.676  0.4729 -0.3580  0.0156
 1233TIP3    H125114   5.882   5.503  16.669  0.7402 -0.0055  2.5812
 1233TIP3    H225115   5.768   5.504  16.768 -1.6202  1.8449 -0.0729
 1234TIP3   OH225116   4.278   3.847  13.515  0.3706  0.5111 -0.3313
 1234TIP3    H125117   4.229   3.786  13.459  0.2119  1.1322 -0.8811
 1234TIP3    H225118   4.240   3.836  13.602 -0.0352  0.2224 -0.5419
 1235TIP3   OH225119   3.804   2.102   1.111 -0.5757  0.3094  0.5430
 1235TIP3    H125120   3.859   2.054   1.173 -0.3675  0.3639  0.3963
 1235TIP3    H225121   3.722   2.116   1.159 -0.9517 -0.9270  0.3030
 1236TIP3   OH225122   3.472   3.614   0.679  0.4654 -0.8839  0.5972
 1236TIP3    H125123   3.535   3.565   0.731 -0.4849 -0.9260  1.7473
 1236TIP3    H225124   3.453   3.558   0.604  1.1765 -1.2188  0.6639
 1237TIP3   OH225125   0.202   5.688   3.462 -0.6832  0.8473  0.8610
 1237TIP3    H125126   0.226   5.642   3.382 -1.3041  0.2917  0.9828
 1237TIP3    H225127   0.175   5.775   3.434 -2.9249 -0.0211  0.2184
 1238TIP3   OH225128   1.613   5.756  16.960  0.5270  0.5372  0.0684
 1238TIP3    H125129   1.581   5.666  16.951  0.6896  0.3964  0.8802
 1238TIP3    H225130   1.565   5.805  16.894  0.2811 -0.1076 -0.2346
 1239TIP3   OH225131   1.650   0.100   5.721  0.2377 -0.0108 -0.2375
 1239TIP3    H125132   1.664   0.068   5.811  1.8709  2.2802  0.3663
 1239TIP3    H225133   1.690   0.033   5.666 -0.2959 -1.1710  0.7629
 1240TIP3   OH225134   0.792   4.840   3.487  0.3538 -0.0110  0.3738
 1240TIP3    H125135   0.879   4.867   3.518  0.0987  1.6509 -0.3449
 1240TIP3    H225136   0.743   4.922   3.479 -1.9193 -1.0863  2.6711
 1241TIP3   OH225137   1.214   3.748  17.143 -0.1070  0.0096 -0.2447
 1241TIP3    H125138   1.245   3.821  17.090 -1.0270  0.3089 -0.3762
 1241TIP3    H225139   1.289   3.725  17.198 -0.1951  1.8790  0.7133
 1242TIP3   OH225140   0.748   3.387   0.628  0.3900 -0.2245 -0.5152
 1242TIP3    H125141   0.712   3.397   0.540 -0.4917 -1.4396 -0.3149
 1242TIP3    H225142   0.780   3.297   0.631  0.5676 -0.1418  0.3439
 1243TIP3   OH225143   0.465   0.863  11.314  0.1384 -0.3450  0.5131
 1243TIP3    H125144   0.484   0.897  11.227  0.9079 -0.6915  0.5425
 1243TIP3    H225145   0.398   0.796  11.300  0.2646 -0.4031  0.1838
 1244TIP3   OH225146   1.358   1.824   1.047  0.1111 -0.4862 -0.0616
 1244TIP3    H125147   1.285   1.763   1.063  1.9328 -3.3413 -2.1414
 1244TIP3    H225148   1.404   1.828   1.131  0.0243 -2.0902  0.0852
 1245TIP3   OH225149   6.028   1.648  12.354 -0.1768 -0.3311 -0.2055
 1245TIP3    H125150   6.031   1.553  12.358  2.3627 -0.2894 -0.5126
 1245TIP3    H225151   6.063   1.670  12.268 -2.0071  0.8575 -0.6816
 1246TIP3   OH225152   1.999   4.156  16.701 -0.6406  0.5197  0.3432
 1246TIP3    H125153   1.912   4.172  16.663  0.2598  1.3081 -1.3977
 1246TIP3    H225154   2.006   4.220  16.772 -1.2615  0.8036  0.1564
 1247TIP3   OH225155   6.558   4.725  12.200 -0.1609 -0.2707 -0.0087
 1247TIP3    H125156   6.508   4.735  12.119 -2.2421 -1.6786  1.0488
 1247TIP3    H225157   6.565   4.813  12.236 -0.6226  0.1363 -0.9045
 1248TIP3   OH225158   0.329   5.675   3.146  0.4313 -0.1912  0.3840
 1248TIP3    H125159   0.388   5.751   3.149 -2.0599  1.7819  0.5284
 1248TIP3    H225160   0.367   5.614   3.209  2.5757  0.8342  0.1531
 1249TIP3   OH225161   5.490   2.382   3.248  0.0691  0.4724  0.3042
 1249TIP3    H125162   5.492   2.334   3.166 -1.0523 -0.1375  0.6204
 1249TIP3    H225163   5.402   2.421   3.251 -0.0122  0.2356  1.3444
 1250TIP3   OH225164   4.261   1.094  11.827 -0.1079 -0.3019 -0.9176
 1250TIP3    H125165   4.203   1.155  11.872  0.5455 -1.5663  1.7748
 1250TIP3    H225166   4.208   1.015  11.814  0.5265 -0.9320  0.2153
 1251TIP3   OH225167   4.173   6.450  13.526 -0.0427 -0.8273 -0.1446
 1251TIP3    H125168   4.151   6.413  13.611  0.6213 -0.6749  0.0944
 1251TIP3    H225169   4.252   6.404  13.499  0.9149  0.5568  0.2614
 1252TIP3   OH225170   4.238   6.494   1.173  0.2534 -0.8695 -0.4788
 1252TIP3    H125171   4.144   6.486   1.191  0.0318 -1.4774 -1.8432
 1252TIP3    H225172   4.265   6.573   1.221 -2.1730  2.7787 -4.7451
 1253TIP3   OH225173   1.134   1.215   2.542 -0.5723 -0.1626 -0.2398
 1253TIP3    H125174   1.199   1.237   2.474 -2.1954 -0.5935 -1.9619
 1253TIP3    H225175   1.160   1.128   2.573  0.0843 -0.0352 -0.4218
 1254TIP3   OH225176   1.352   0.029  15.244 -0.3083 -0.4147  0.3853
 1254TIP3    H125177   1.286   0.028  15.314  0.0360  1.0712  0.7368
 1254TIP3    H225178   1.435   0.043  15.289  0.1107 -1.0714 -0.1786
 1255TIP3   OH225179   2.045   6.521  16.670  0.1161  0.1696 -0.8256
 1255TIP3    H125180   2.108   6.589  16.692  1.7333 -1.5472 -0.0331
 1255TIP3    H225181   2.022   6.481  16.754  1.4128 -2.1745 -1.5494
 1256TIP3   OH225182   1.349   3.208   1.383  0.2992 -0.3978 -0.0688
 1256TIP3    H125183   1.367   3.285   1.329  1.9589 -0.3387  0.5153
 1256TIP3    H225184   1.256   3.190   1.370  0.5269 -0.0078 -2.4223
 1257TIP3   OH225185   1.388   6.550  13.212 -0.1393 -0.0074  0.3406
 1257TIP3    H125186   1.408   6.464  13.175 -1.2799 -0.8542  1.6712
 1257TIP3    H225187   1.404   6.611  13.140 -0.7947 -1.4826 -1.0796
 1258TIP3   OH225188   5.567   3.888   2.972 -0.7226  0.2651 -0.7694
 1258TIP3    H125189   5.518   3.879   2.890 -0.3774  0.8835 -1.0436
 1258TIP3    H225190   5.551   3.806   3.018 -1.7479  0.3255 -1.0068
 1259TIP3   OH225191   4.691   6.253   0.692  0.2849 -0.3317  0.0764
 1259TIP3    H125192   4.655   6.244   0.781 -1.1727  0.2218 -0.4409
 1259TIP3    H225193   4.680   6.166   0.653 -0.6616 -0.1190 -0.1365
 1260TIP3   OH225194   3.176   5.416   1.937 -0.2525  0.0399 -0.0796
 1260TIP3    H125195   3.153   5.428   2.029  1.7489 -0.6225  0.5221
 1260TIP3    H225196   3.220   5.497   1.913  0.8368 -0.5035  0.0643
 1261TIP3   OH225197   1.544   0.646   4.580 -0.9299  0.3430  0.3764
 1261TIP3    H125198   1.589   0.566   4.609 -0.5477 -0.0941 -1.3696
 1261TIP3    H225199   1.611   0.714   4.585 -0.2664 -0.1444 -1.4317
 1262TIP3   OH225200   2.686   4.481   4.430  0.7523 -0.6996  0.4011
 1262TIP3    H125201   2.757   4.426   4.463 -0.0442 -2.0661 -0.1230
 1262TIP3    H225202   2.665   4.445   4.344 -2.3210 -1.9789  1.6214
 1263TIP3   OH225203   3.615   3.949  15.120 -0.1022 -0.0673 -0.6641
 1263TIP3    H125204   3.598   4.044  15.118  0.8397  0.1386  0.4879
 1263TIP3    H225205   3.561   3.914  15.049 -3.4206  0.8359  1.2722
 1264TIP3   OH225206   6.410   4.025   4.054 -0.0447  0.2253 -0.7454
 1264TIP3    H125207   6.447   4.081   3.985  1.1893  0.0167 -0.2542
 1264TIP3    H225208   6.467   4.039   4.129  0.0147 -1.3756 -0.4904
 1265TIP3   OH225209   1.366   5.897  12.252  0.1344 -0.1061 -0.0109
 1265TIP3    H125210   1.310   5.873  12.179 -0.1766 -0.5463  0.3665
 1265TIP3    H225211   1.369   5.818  12.307  1.9035 -0.4008 -0.5165
 1266TIP3   OH225212   4.781   6.215   3.855 -0.3264  0.6638 -0.1438
 1266TIP3    H125213   4.752   6.258   3.775  1.0671  0.2107 -0.9227
 1266TIP3    H225214   4.827   6.136   3.824 -0.4627  0.0761  1.1299
 1267TIP3   OH225215   2.175   1.916  12.968  0.1145  0.1060 -0.1459
 1267TIP3    H125216   2.147   2.007  12.968 -1.2098 -0.2806 -0.1998
 1267TIP3    H225217   2.186   1.893  13.060 -2.1289 -0.4078  0.0370
 1268TIP3   OH225218   0.269   0.176  13.355 -0.2055 -0.0930 -0.2754
 1268TIP3    H125219   0.215   0.223  13.418  0.5666  1.7642 -0.9817
 1268TIP3    H225220   0.336   0.239  13.327 -0.4692 -0.8715 -2.8761
 1269TIP3   OH225221   1.110   5.235   0.388  0.0669 -0.2418  0.2418
 1269TIP3    H125222   1.205   5.224   0.393  0.6455  3.0646 -1.9088
 1269TIP3    H225223   1.095   5.266   0.298 -2.9288  0.3246  0.8949
 1270TIP3   OH225224   2.060   5.428   6.803  0.4795  0.2788  0.5245
 1270TIP3    H125225   2.132   5.371   6.776  0.9883  1.9950 -1.8993
 1270TIP3    H225226   1.982   5.374   6.795  0.9183 -0.0320 -2.0592
 1271TIP3   OH225227   2.482   6.785   0.973  0.0074 -0.0407 -0.4892
 1271TIP3    H125228   2.444   6.856   1.025 -0.8367 -0.8175 -0.0246
 1271TIP3    H225229   2.503   6.825   0.889  0.7380  1.0599  0.2098
 1272TIP3   OH225230   2.865   0.946   4.221 -0.7435  0.6563 -0.3890
 1272TIP3    H125231   2.956   0.920   4.210 -1.1258 -0.5813 -0.6529
 1272TIP3    H225232   2.824   0.930   4.136 -1.6363 -0.5672  0.2532
 1273TIP3   OH225233   0.664   0.766   5.119 -0.0312 -0.1586 -0.2851
 1273TIP3    H125234   0.676   0.705   5.046 -1.2800 -3.3711  2.0659
 1273TIP3    H225235   0.572   0.756   5.143  0.1947  1.3434  1.2981
 1274TIP3   OH225236   5.534   1.661  16.114  0.0943 -0.5219  0.4106
 1274TIP3    H125237   5.523   1.625  16.026  1.5943  0.7477 -0.3266
 1274TIP3    H225238   5.626   1.689  16.117 -0.7194  2.2224  1.3217
 1275TIP3   OH225239   1.600   1.273  13.252  0.0263  0.1214  0.3694
 1275TIP3    H125240   1.647   1.352  13.280  1.7802 -0.8486  0.2031
 1275TIP3    H225241   1.653   1.201  13.284 -1.0717 -1.0020 -0.3159
 1276TIP3   OH225242   0.901   0.511   5.084 -0.0917  0.1388 -0.3482
 1276TIP3    H125243   0.925   0.567   5.158 -1.2924  0.7561 -0.4207
 1276TIP3    H225244   0.952   0.431   5.098  0.8445  0.8322  0.3225
 1277TIP3   OH225245   3.944   5.880  11.306  0.1919  0.4167 -0.1453
 1277TIP3    H125246   3.952   5.973  11.286  0.9904  0.1563 -1.0960
 1277TIP3    H225247   4.016   5.839  11.257 -0.2743 -0.7155  0.1010
 1278TIP3   OH225248   6.755   2.300   3.390  0.4930  0.4321 -0.2530
 1278TIP3    H125249   6.845   2.296   3.421  0.8627  0.2930 -1.3387
 1278TIP3    H225250   6.732   2.209   3.371 -0.1597  0.3640  0.7905
 1279TIP3   OH225251   2.462   2.268   1.651  0.1797  0.2877 -0.1669
 1279TIP3    H125252   2.434   2.248   1.741 -0.2748 -0.6875 -0.5101
 1279TIP3    H225253   2.412   2.206   1.597 -0.3567  1.5986 -1.1834
 1280TIP3   OH225254   6.504   4.032  16.314  0.0382  0.1582  0.7136
 1280TIP3    H125255   6.524   3.948  16.271  0.0674 -0.0030  1.0409
 1280TIP3    H225256   6.423   4.061  16.272 -0.2470 -0.2826  0.9439
 1281TIP3   OH225257   1.160   3.496   2.542 -0.1425  0.1718  0.2724
 1281TIP3    H125258   1.121   3.500   2.629 -1.3355  0.1126 -0.2498
 1281TIP3    H225259   1.088   3.470   2.485  1.5985 -4.1995 -0.1322
 1282TIP3   OH225260   2.819   3.788   4.954 -0.0462  0.2445  0.3498
 1282TIP3    H125261   2.885   3.804   5.022  0.4311 -2.5171  0.6201
 1282TIP3    H225262   2.744   3.752   5.001 -0.3327 -0.1238 -0.3815
 1283TIP3   OH225263   4.393   5.952  13.666 -0.0757  0.2789  0.2782
 1283TIP3    H125264   4.321   5.996  13.621 -0.6431  1.2281  2.0548
 1283TIP3    H225265   4.462   6.018  13.669  0.2041 -0.0124  0.1871
 1284TIP3   OH225266   1.695   6.410  11.647 -0.5417  1.0509 -0.4598
 1284TIP3    H125267   1.692   6.333  11.590  0.1395  1.4212 -1.0058
 1284TIP3    H225268   1.748   6.474  11.598 -2.0840  2.2945 -0.5516
 1285TIP3   OH225269   6.766   4.606   5.413 -0.3401 -0.1184  0.4030
 1285TIP3    H125270   6.822   4.622   5.490  0.1316  0.2589 -0.0150
 1285TIP3    H225271   6.703   4.540   5.443  0.2796 -0.4938  0.9006
 1286TIP3   OH225272   2.200   3.819  12.218  0.6011 -0.1269 -0.2167
 1286TIP3    H125273   2.235   3.862  12.140  0.2980  1.3876  0.4671
 1286TIP3    H225274   2.223   3.877  12.291 -0.3100 -0.8373  0.6644
 1287TIP3   OH225275   0.031   3.034  13.056 -0.2478 -0.4002  0.3027
 1287TIP3    H125276   0.116   3.071  13.031 -0.6891 -0.5652 -1.5236
 1287TIP3    H225277  -0.033   3.097  13.022 -0.8757 -0.3885  1.4773
 1288TIP3   OH225278   0.378   4.095  11.594  0.5348 -0.0820 -0.5170
 1288TIP3    H125279   0.316   4.065  11.528 -1.2622 -1.4609  1.6787
 1288TIP3    H225280   0.353   4.185  11.612 -0.5786 -0.4671 -0.0236
 1289TIP3   OH225281   6.662   4.676  12.653  0.3015  0.4254 -0.1209
 1289TIP3    H125282   6.619   4.624  12.721  2.2695  0.4778  1.1775
 1289TIP3    H225283   6.629   4.765  12.666  1.1086  0.5478  1.1321
 1290TIP3   OH225284   3.659   3.108  13.660  0.2322  0.3179  0.2048
 1290TIP3    H125285   3.640   3.026  13.705  1.8261  0.7230  1.6912
 1290TIP3    H225286   3.669   3.083  13.568  0.8899 -1.1948  0.6636
 1291TIP3   OH225287   0.993   3.763  15.365  0.3864 -0.1906 -0.1556
 1291TIP3    H125288   1.038   3.775  15.448  1.5610 -2.9792 -0.3528
 1291TIP3    H225289   0.901   3.779  15.385  0.7002 -0.4853  1.5973
 1292TIP3   OH225290   2.185   2.899  15.299  0.5541  0.1810  0.2451
 1292TIP3    H125291   2.123   2.846  15.349  1.7478  0.5236  2.1413
 1292TIP3    H225292   2.266   2.848  15.299  0.1601 -0.5913 -2.8069
 1293TIP3   OH225293   2.508   6.482  17.076 -0.7482 -0.3549 -0.2177
 1293TIP3    H125294   2.588   6.459  17.124 -0.3338 -0.2859 -0.8763
 1293TIP3    H225295   2.452   6.523  17.142  0.2876  0.8238 -0.0351
 1294TIP3   OH225296   2.189   0.581  14.469 -0.1842 -0.3086  0.4972
 1294TIP3    H125297   2.235   0.587  14.553  0.1723 -3.8923  0.6454
 1294TIP3    H225298   2.163   0.489  14.463 -0.5487 -0.0306 -3.1310
 1295TIP3   OH225299   4.199   3.628   6.637 -0.0465  0.3756  0.0269
 1295TIP3    H125300   4.218   3.547   6.589  1.0781  0.4826  0.2742
 1295TIP3    H225301   4.271   3.635   6.700 -0.3174  1.3971  0.2231
 1296TIP3   OH225302   6.005   3.551  12.971 -0.5898  0.1995 -0.4312
 1296TIP3    H125303   6.052   3.473  12.940  0.1680  0.8381 -0.8879
 1296TIP3    H225304   5.984   3.531  13.062  0.0296 -0.3417 -0.4049
 1297TIP3   OH225305   2.033   5.982   6.569  0.2857  0.3182  0.4781
 1297TIP3    H125306   2.004   6.032   6.492 -0.8705  0.2057  0.8329
 1297TIP3    H225307   1.954   5.968   6.620  0.8592 -0.5959  1.1368
 1298TIP3   OH225308   5.977   3.667  11.586  0.5912 -0.3195 -0.3750
 1298TIP3    H125309   6.029   3.593  11.554 -1.1713 -1.9393  0.4464
 1298TIP3    H225310   5.886   3.641  11.571 -0.0872  1.2762  0.8135
 1299TIP3   OH225311   0.783   1.106  13.723  0.5120 -0.0211  0.1191
 1299TIP3    H125312   0.868   1.083  13.760 -0.0266  1.2705  2.2159
 1299TIP3    H225313   0.805   1.154  13.643  1.7591  0.2580  0.6148
 1300TIP3   OH225314   5.068   2.946   5.997  0.0363 -0.1668  0.1603
 1300TIP3    H125315   5.034   2.938   6.087 -0.3911 -0.9221 -0.0642
 1300TIP3    H225316   5.161   2.963   6.008 -0.2336  1.0061  0.7739
 1301TIP3   OH225317   1.918   2.879  13.959 -0.2060 -0.3142 -0.1479
 1301TIP3    H125318   1.991   2.890  13.898 -0.2637 -2.0110 -0.5497
 1301TIP3    H225319   1.957   2.891  14.046  0.7448 -2.1153 -0.3075
 1302TIP3   OH225320   2.320   6.139  16.074  0.0746  0.4343 -0.0266
 1302TIP3    H125321   2.302   6.074  16.142  1.6723  0.3273  0.3108
 1302TIP3    H225322   2.387   6.098  16.019  1.7046  2.1017  0.6618
 1303TIP3   OH225323   3.452   4.870  15.197 -0.3307  0.3589 -0.3352
 1303TIP3    H125324   3.381   4.886  15.135 -0.7975  0.9235  0.3345
 1303TIP3    H225325   3.411   4.878  15.283  0.1050 -1.3825  0.0530
 1304TIP3   OH225326   0.431   1.729  13.720  0.5880  0.5652 -0.5203
 1304TIP3    H125327   0.438   1.812  13.767  2.0634 -0.4138  1.0244
 1304TIP3    H225328   0.338   1.723  13.697  0.1391  1.8157  0.8596
 1305TIP3   OH225329   0.775   0.902   1.728 -0.4914 -0.3326  0.1957
 1305TIP3    H125330   0.800   0.942   1.645 -1.5190 -1.0836 -0.4903
 1305TIP3    H225331   0.810   0.813   1.723 -2.2275 -1.0045 -0.2668
 1306TIP3   OH225332   1.883   1.146  14.942 -0.0281 -0.0973 -0.4078
 1306TIP3    H125333   1.840   1.128  14.859 -1.4189  0.8755  0.0828
 1306TIP3    H225334   1.960   1.198  14.919  1.7391 -3.0246 -1.4332
 1307TIP3   OH225335   5.545   4.248   2.573  0.1974  0.5529  0.1710
 1307TIP3    H125336   5.537   4.152   2.575 -0.3326  0.5902  0.0101
 1307TIP3    H225337   5.565   4.268   2.482 -0.1497  0.6276  0.1108
 1308TIP3   OH225338   0.745   0.182   2.246  0.4451  0.0854 -0.3460
 1308TIP3    H125339   0.703   0.108   2.290  1.1172  0.8806  1.6831
 1308TIP3    H225340   0.838   0.172   2.265  0.4372  2.0149  0.8160
 1309TIP3   OH225341   3.767   5.284   5.350  0.0168 -0.1867  0.3956
 1309TIP3    H125342   3.692   5.341   5.368  0.4232  0.5699 -0.3168
 1309TIP3    H225343   3.737   5.197   5.378 -1.1546  0.0904  0.0466
 1310TIP3   OH225344   5.500   6.415  13.343  0.0035 -0.1969  0.3530
 1310TIP3    H125345   5.441   6.388  13.273  0.1921  0.8456 -0.2066
 1310TIP3    H225346   5.507   6.337  13.399 -1.0765 -0.6548 -0.1341
 1311TIP3   OH225347   4.382   0.481  11.584 -0.2993  0.3504  0.0104
 1311TIP3    H125348   4.475   0.460  11.572 -0.5848 -0.7120 -0.3735
 1311TIP3    H225349   4.343   0.466  11.498 -0.6579  1.7202 -0.0751
 1312TIP3   OH225350   5.985   2.887   0.935  0.1371 -0.3695 -0.3534
 1312TIP3    H125351   5.950   2.800   0.919  0.5029 -0.2026 -2.1898
 1312TIP3    H225352   6.037   2.878   1.015  0.2012 -1.8361 -0.5471
 1313TIP3   OH225353   4.012   0.310   1.553 -0.2706  0.3641 -0.2675
 1313TIP3    H125354   3.960   0.266   1.620 -1.3146  0.2168 -1.1608
 1313TIP3    H225355   4.100   0.276   1.564 -0.7112 -0.6339  0.1942
 1314TIP3   OH225356   5.716   6.652  14.402  0.3159  0.3900  0.3469
 1314TIP3    H125357   5.806   6.632  14.376  0.4185  0.4080  0.6851
 1314TIP3    H225358   5.719   6.743  14.432  0.0497  0.6021 -0.2626
 1315TIP3   OH225359   2.968   3.247  14.253 -0.3992 -0.1608  0.5236
 1315TIP3    H125360   3.043   3.300  14.225 -0.9264  0.6621  0.6335
 1315TIP3    H225361   2.996   3.157  14.239  0.3636  0.1543 -0.0721
 1316TIP3   OH225362   2.735   3.102   0.402  0.0913 -0.0943 -0.9333
 1316TIP3    H125363   2.686   3.167   0.451  0.1639 -0.5576 -0.2366
 1316TIP3    H225364   2.719   3.020   0.448  0.4637 -0.4696 -1.4658
 1317TIP3   OH225365   5.671   3.764   4.708  0.3927 -0.2764  0.4049
 1317TIP3    H125366   5.611   3.835   4.730  0.3539 -0.2311  0.1499
 1317TIP3    H225367   5.758   3.803   4.716  0.3809 -0.2723  0.5207
 1318TIP3   OH225368   6.008   3.636  13.994  0.5702 -0.5188  0.2190
 1318TIP3    H125369   6.014   3.552  14.040 -1.8441 -0.8724 -0.0530
 1318TIP3    H225370   5.993   3.700  14.064  2.1709 -0.3395  0.4046
 1319TIP3   OH225371   6.049   3.179  11.252  0.4521 -0.1604 -0.0870
 1319TIP3    H125372   6.100   3.125  11.190  0.2779 -0.5183  0.0802
 1319TIP3    H225373   6.002   3.241  11.196 -0.1258 -0.8385 -0.3586
 1320TIP3   OH225374   6.020   1.188   4.923 -0.0028  0.4078  0.4756
 1320TIP3    H125375   6.012   1.185   4.827  1.5793  1.1794  0.3043
 1320TIP3    H225376   5.946   1.137   4.954 -0.4763  0.0423 -1.1677
 1321TIP3   OH225377   0.332   5.953  14.556 -0.8321  0.0245  0.1318
 1321TIP3    H125378   0.238   5.967  14.544 -0.8554  0.3114  0.6518
 1321TIP3    H225379   0.353   5.882  14.495 -1.6759 -1.0383  1.0554
 1322TIP3   OH225380   2.832   5.524  13.838 -0.1355 -0.4002  0.5072
 1322TIP3    H125381   2.770   5.584  13.797  2.9187  2.3803 -0.1691
 1322TIP3    H225382   2.868   5.473  13.766  0.2182 -0.2506  0.5762
 1323TIP3   OH225383   0.650   5.001  11.877 -0.3071  0.3246 -0.2375
 1323TIP3    H125384   0.728   4.968  11.923 -1.3670 -0.4072  1.0729
 1323TIP3    H225385   0.584   5.010  11.946 -0.9859  2.2338 -1.1100
 1324TIP3   OH225386   0.112   4.035  15.457  0.1112 -0.0879  0.5331
 1324TIP3    H125387   0.162   3.958  15.486  2.4691  0.6159 -1.5260
 1324TIP3    H225388   0.071   4.008  15.376  0.6970  0.7036 -0.0364
 1325TIP3   OH225389   3.565   2.104  15.784 -0.3029 -0.1165 -0.3618
 1325TIP3    H125390   3.660   2.101  15.775 -0.0348  1.1629  1.6354
 1325TIP3    H225391   3.540   2.015  15.808  0.8572  0.3496  2.7849
 1326TIP3   OH225392   5.017   3.840  12.279  0.1164 -0.4292  0.1157
 1326TIP3    H125393   4.962   3.836  12.201 -1.1650 -2.5249  1.0871
 1326TIP3    H225394   5.062   3.755  12.280  1.7623  0.4255  0.5127
 1327TIP3   OH225395   5.462   5.369   1.171  0.1125  0.9748 -0.5073
 1327TIP3    H125396   5.414   5.431   1.226  1.6459  0.5056  1.4050
 1327TIP3    H225397   5.403   5.295   1.161  0.4539  0.3222  1.9809
 1328TIP3   OH225398   3.586   5.054   6.848 -0.4871  0.0788  0.1046
 1328TIP3    H125399   3.668   5.103   6.838  0.0228 -0.2653  2.4294
 1328TIP3    H225400   3.528   5.090   6.781  2.0146 -0.6457 -2.5848
 1329TIP3   OH225401   3.688   4.169  15.917 -0.2821  0.0040  0.0137
 1329TIP3    H125402   3.663   4.257  15.945 -0.9023  0.6941 -2.6000
 1329TIP3    H225403   3.784   4.169  15.918 -0.2817  0.7772 -0.1456
 1330TIP3   OH225404   2.799   0.041   6.080 -0.1139  0.0306 -0.5927
 1330TIP3    H125405   2.852   0.039   6.160 -0.5460  0.4055 -0.2949
 1330TIP3    H225406   2.825  -0.038   6.032  1.2075  0.5510 -0.7743
 1331TIP3   OH225407   5.267   3.663   2.919 -0.0893 -0.0907  0.2203
 1331TIP3    H125408   5.188   3.717   2.926  0.5215  1.1443 -1.8945
 1331TIP3    H225409   5.234   3.574   2.906 -1.1235  0.2070  0.7619
 1332TIP3   OH225410   0.550   3.399   5.874 -0.9048  0.2239  0.0351
 1332TIP3    H125411   0.509   3.314   5.865  4.2269 -2.5529  0.9177
 1332TIP3    H225412   0.524   3.430   5.960  0.0335 -2.2081  1.2378
 1333TIP3   OH225413   6.274   6.130  12.851 -0.0097 -0.1591  0.4741
 1333TIP3    H125414   6.328   6.068  12.803  0.2568 -0.5860  1.3124
 1333TIP3    H225415   6.276   6.210  12.798 -1.3230 -1.2081 -1.2054
 1334TIP3   OH225416   3.487   0.647  11.656 -0.3465 -0.0956 -0.4757
 1334TIP3    H125417   3.446   0.722  11.614 -0.5684  0.1601  0.1859
 1334TIP3    H225418   3.414   0.597  11.692 -0.0521  0.7253  1.3048
 1335TIP3   OH225419   2.021   3.641   3.645  0.2857  0.4656 -0.4044
 1335TIP3    H125420   2.096   3.699   3.656  0.1033  0.6268  0.0083
 1335TIP3    H225421   1.986   3.630   3.733  0.1269 -0.0170 -0.5248
 1336TIP3   OH225422   4.175   3.545   5.543  0.4891  0.2353  0.3741
 1336TIP3    H125423   4.140   3.633   5.533  0.1910  0.2299  1.3065
 1336TIP3    H225424   4.132   3.494   5.475  0.0858  0.6377  0.3252
 1337TIP3   OH225425   1.352   1.670   3.073 -0.5353  0.3258  0.2102
 1337TIP3    H125426   1.349   1.632   3.160 -0.9531  0.1989  0.1409
 1337TIP3    H225427   1.262   1.662   3.040 -0.3992  0.4539 -0.1936
 1338TIP3   OH225428   5.952   2.163   3.054  0.0615 -0.0738 -0.2535
 1338TIP3    H125429   5.965   2.116   3.136  0.2096  0.8494  0.2558
 1338TIP3    H225430   6.037   2.202   3.035 -0.6222  1.8489  0.5057
 1339TIP3   OH225431   1.921   1.214   0.465  0.7786 -0.4805  0.5998
 1339TIP3    H125432   1.988   1.153   0.495  1.3517  0.5253  1.3911
 1339TIP3    H225433   1.847   1.200   0.523 -0.5171 -3.1099 -1.6150
 1340TIP3   OH225434   3.027   1.566  13.083  0.0298  0.0510 -0.5313
 1340TIP3    H125435   2.934   1.586  13.072 -0.2588 -1.6535 -1.3985
 1340TIP3    H225436   3.056   1.625  13.153 -1.4269  1.3751 -1.0153
 1341TIP3   OH225437   0.683   1.468   3.931  0.1220 -0.4973 -0.0673
 1341TIP3    H125438   0.691   1.373   3.922  1.2807 -0.3834 -0.3598
 1341TIP3    H225439   0.601   1.481   3.979  0.7546 -1.7181  1.3980
 1342TIP3   OH225440   2.100   5.649  17.165 -0.0741  0.1520  0.1527
 1342TIP3    H125441   2.124   5.594  17.090  0.5338 -0.3981  0.7416
 1342TIP3    H225442   2.162   5.623  17.234 -0.4896  0.8075  0.7740
 1343TIP3   OH225443   0.913   5.592  14.381 -0.0092 -0.1029 -0.3114
 1343TIP3    H125444   1.003   5.625  14.379  0.3437 -1.1441 -3.0608
 1343TIP3    H225445   0.922   5.498  14.394 -0.6626 -0.3073 -1.3196
 1344TIP3   OH225446   0.353   0.485   0.506 -0.7351 -0.1003 -0.1558
 1344TIP3    H125447   0.374   0.574   0.477 -0.5162  0.7235  2.4207
 1344TIP3    H225448   0.411   0.429   0.454  0.0574  1.3544 -0.8872
 1345TIP3   OH225449   5.382   6.607   5.464  0.3809  0.4833  0.1193
 1345TIP3    H125450   5.471   6.614   5.498  1.1903 -0.2577 -1.7602
 1345TIP3    H225451   5.392   6.558   5.382 -1.5296  1.8135 -0.9417
 1346TIP3   OH225452   0.520   0.435  11.900  0.2645  0.2520 -0.2204
 1346TIP3    H125453   0.465   0.505  11.935 -1.8947 -0.7479 -1.5177
 1346TIP3    H225454   0.507   0.361  11.960 -1.2372 -0.5570 -1.5172
 1347TIP3   OH225455   0.218   3.776   0.973 -0.4961  0.3882  0.2372
 1347TIP3    H125456   0.253   3.704   1.026 -1.1683 -0.5841 -0.6091
 1347TIP3    H225457   0.295   3.826   0.946  0.1150 -0.8647 -0.3876
 1348TIP3   OH225458   0.430   0.864   1.988  0.2817 -0.4992 -0.2368
 1348TIP3    H125459   0.341   0.889   1.961 -0.0898 -1.3770  0.1381
 1348TIP3    H225460   0.469   0.825   1.909 -0.4988 -2.2667  0.2225
 1349TIP3   OH225461   6.718   0.930   2.987  0.0217 -0.1813  0.3851
 1349TIP3    H125462   6.644   0.869   2.984 -0.9360  0.8753  1.5557
 1349TIP3    H225463   6.685   1.010   2.947  0.9967 -0.1495 -0.3729
 1350TIP3   OH225464   4.702   4.739   5.494  0.0114  0.9544  0.1645
 1350TIP3    H125465   4.686   4.821   5.542  0.5705  0.1767  1.7054
 1350TIP3    H225466   4.680   4.670   5.557  3.5664 -0.1042  0.3019
 1351TIP3   OH225467   6.634   0.115  12.017  0.2088 -0.4452 -0.2271
 1351TIP3    H125468   6.672   0.182  11.960 -2.4372  1.5649  0.2664
 1351TIP3    H225469   6.553   0.089  11.973 -0.0074 -1.5958  0.8010
 1352TIP3   OH225470   3.485   2.347   1.060  0.4073 -0.5193  0.0653
 1352TIP3    H125471   3.499   2.273   1.002  2.1306  1.5539 -2.2822
 1352TIP3    H225472   3.393   2.342   1.083  0.0642 -2.3332 -1.5605
 1353TIP3   OH225473   2.106   1.643  13.202 -0.2786  0.4138 -0.2196
 1353TIP3    H125474   2.129   1.550  13.194 -0.0941  0.3644  0.8231
 1353TIP3    H225475   2.184   1.689  13.171 -0.2598  0.2254 -0.4543
 1354TIP3   OH225476   3.335   3.688   4.134 -0.6664  0.4515 -0.0299
 1354TIP3    H125477   3.291   3.686   4.049 -0.3993 -1.6341 -0.1471
 1354TIP3    H225478   3.275   3.644   4.193  0.6687 -1.2601  0.0904
 1355TIP3   OH225479   0.488   3.693   0.920 -0.6583  0.2829 -0.0371
 1355TIP3    H125480   0.554   3.661   0.859 -0.6931  1.7797 -0.8805
 1355TIP3    H225481   0.448   3.614   0.956  1.4311 -0.6479  0.3187
 1356TIP3   OH225482   1.227   4.935   4.953 -0.5141 -0.2225  0.1738
 1356TIP3    H125483   1.196   5.002   4.892 -0.4824  0.6952  1.1561
 1356TIP3    H225484   1.286   4.982   5.012  0.0512 -1.2563  0.4481
 1357TIP3   OH225485   1.538   5.098  10.500  0.4756 -0.0050 -0.0249
 1357TIP3    H125486   1.604   5.107  10.569  0.0077 -0.4517  0.4904
 1357TIP3    H225487   1.557   5.013  10.460  0.0807 -0.2300  0.2646
 1358TIP3   OH225488   2.329   6.188  16.618  0.1189 -0.2361 -0.4256
 1358TIP3    H125489   2.330   6.237  16.700 -3.0531 -0.8168  0.0143
 1358TIP3    H225490   2.410   6.136  16.620  0.4385  0.3113  1.9595
 1359TIP3   OH225491   6.680   3.700   2.871  0.0448 -0.1060 -0.1213
 1359TIP3    H125492   6.686   3.620   2.820  0.1779 -0.2731  0.1569
 1359TIP3    H225493   6.604   3.746   2.835  0.6337  0.1753 -1.0251
 1360TIP3   OH225494   3.412   1.280  15.032 -0.2805 -0.4152 -0.5665
 1360TIP3    H125495   3.459   1.275  14.949  1.6531 -1.8745  0.5908
 1360TIP3    H225496   3.364   1.198  15.038  1.8146 -1.5530  1.0408
 1361TIP3   OH225497   2.419   1.722  12.621  0.0934 -0.2938  0.3042
 1361TIP3    H125498   2.404   1.774  12.542 -2.0522 -1.6140 -0.1819
 1361TIP3    H225499   2.410   1.785  12.692 -0.4139  0.4075 -0.3664
 1362TIP3   OH225500   3.629   2.815   3.184 -0.1766  0.4917  0.1566
 1362TIP3    H125501   3.678   2.760   3.123  0.3227  1.1815 -0.0724
 1362TIP3    H225502   3.584   2.878   3.129 -0.5921  0.4374  0.4321
 1363TIP3   OH225503   6.299   3.659  13.516 -0.0790 -0.1087 -0.0907
 1363TIP3    H125504   6.303   3.581  13.572 -2.1726 -0.3034 -0.1428
 1363TIP3    H225505   6.259   3.726  13.572  1.3774  0.8327 -0.1593
 1364TIP3   OH225506   6.058   1.612   0.530 -0.1419  0.2801  0.2488
 1364TIP3    H125507   6.015   1.680   0.582 -2.1191 -1.5379  1.0969
 1364TIP3    H225508   6.049   1.641   0.439 -1.3931  0.9210  0.5707
 1365TIP3   OH225509   2.343   2.715  12.024 -0.0446 -0.3876 -0.1476
 1365TIP3    H125510   2.396   2.786  12.060 -1.4355  0.8250 -0.4624
 1365TIP3    H225511   2.257   2.754  12.009 -0.5555 -1.8885 -1.2348
 1366TIP3   OH225512   5.884   5.191   6.492 -0.1297  0.3360  0.2490
 1366TIP3    H125513   5.978   5.202   6.506 -0.1797  0.8437  0.2113
 1366TIP3    H225514   5.844   5.254   6.552 -0.3332  3.0549 -2.6062
 1367TIP3   OH225515   3.686   3.043  12.194  0.8385  0.2177 -0.3830
 1367TIP3    H125516   3.757   3.069  12.136 -0.2550  1.4189 -1.2100
 1367TIP3    H225517   3.631   3.121  12.201  0.7052 -0.0511  1.9165
 1368TIP3   OH225518   5.709   0.511  16.007  0.3752 -0.3068 -0.6974
 1368TIP3    H125519   5.728   0.485  16.097  1.2631  1.5301 -0.3351
 1368TIP3    H225520   5.793   0.542  15.972 -0.1643 -0.0994 -1.8422
 1369TIP3   OH225521   6.286   2.177  15.573  0.1094 -0.2400 -0.3871
 1369TIP3    H125522   6.374   2.174  15.536 -0.7183 -0.4746 -2.3638
 1369TIP3    H225523   6.228   2.162  15.499 -1.5803 -0.7713  1.0102
 1370TIP3   OH225524   5.056   0.016   2.598  0.6511 -0.0953 -0.3977
 1370TIP3    H125525   5.106  -0.001   2.518 -0.1564  1.3057 -1.2091
 1370TIP3    H225526   4.983   0.070   2.570  0.1915  0.1636  1.2501
 1371TIP3   OH225527   2.261   0.436  14.000  0.1540  0.2384  0.4532
 1371TIP3    H125528   2.183   0.439  14.056 -0.6377  0.0803 -0.6150
 1371TIP3    H225529   2.228   0.460  13.913  1.7931  3.0061  0.5169
 1372TIP3   OH225530   1.507   6.584  16.817 -0.1302 -0.7306 -0.2274
 1372TIP3    H125531   1.559   6.508  16.792 -0.6499 -0.5600 -1.9728
 1372TIP3    H225532   1.425   6.573  16.768 -0.0962  1.0778 -0.7304
 1373TIP3   OH225533   0.178   0.459  11.714 -0.5427 -0.1986 -0.1740
 1373TIP3    H125534   0.150   0.536  11.764  0.5995  0.1356 -0.0460
 1373TIP3    H225535   0.258   0.487  11.669 -0.9941 -0.8224 -1.3745
 1374TIP3   OH225536   3.769   3.582   1.604 -0.0191  0.6086 -0.4336
 1374TIP3    H125537   3.756   3.671   1.634 -1.7040  0.2208  0.0242
 1374TIP3    H225538   3.864   3.572   1.598  0.1806  2.3687 -0.3397
 1375TIP3   OH225539   4.092   5.526  13.025 -0.0530  0.6871  0.3653
 1375TIP3    H125540   4.092   5.551  13.118  2.0123  1.7596  0.1069
 1375TIP3    H225541   4.094   5.609  12.978 -1.8946  0.1594 -0.6799
 1376TIP3   OH225542   1.759   2.411   1.832 -0.3338 -0.3099 -0.0582
 1376TIP3    H125543   1.850   2.382   1.825 -0.2853 -0.7126  1.9584
 1376TIP3    H225544   1.724   2.401   1.743  1.5617 -0.2192 -0.8330
 1377TIP3   OH225545   2.996   2.337   1.249  0.7987 -0.2438 -0.1124
 1377TIP3    H125546   2.956   2.418   1.281 -0.0544 -1.4502  1.9623
 1377TIP3    H225547   3.045   2.364   1.171 -2.0954  1.7038 -1.3568
 1378TIP3   OH225548   5.678   5.040   6.613 -0.0932  0.1542 -0.6448
 1378TIP3    H125549   5.761   5.086   6.601  0.7716 -0.3724  2.6127
 1378TIP3    H225550   5.617   5.108   6.643  0.1440 -0.0993  0.4271
 1379TIP3   OH225551   1.991   6.472   0.213 -0.4718 -0.1481 -0.0136
 1379TIP3    H125552   2.067   6.424   0.248  0.2302  0.8227 -0.1764
 1379TIP3    H225553   2.023   6.511   0.132 -1.3970 -0.4098 -0.5015
 1380TIP3   OH225554   0.788   5.824  17.149 -0.0041  0.6294 -0.2756
 1380TIP3    H125555   0.781   5.828  17.244 -1.8705  1.0299 -0.3988
 1380TIP3    H225556   0.788   5.731  17.128 -0.2938  0.5507  0.0805
 1381TIP3   OH225557   3.758   3.296   5.840  0.5302 -0.1032  0.5383
 1381TIP3    H125558   3.751   3.293   5.935 -0.6515  0.5995  0.4867
 1381TIP3    H225559   3.672   3.327   5.811  1.1138  0.3605 -0.7136
 1382TIP3   OH225560   0.284   6.212   5.014 -0.4075 -0.2896  0.2631
 1382TIP3    H125561   0.313   6.281   4.954  0.0699  0.3992  1.2698
 1382TIP3    H225562   0.229   6.155   4.960  0.1567  0.2199 -0.8676
 1383TIP3   OH225563   6.456   2.529  12.153 -0.4480  0.2774  0.3061
 1383TIP3    H125564   6.446   2.539  12.059 -2.7080 -0.9161  0.3620
 1383TIP3    H225565   6.466   2.618  12.186 -0.5991  0.7823 -0.9801
 1384TIP3   OH225566   1.921   4.042  11.735  0.3595  0.0285  0.0833
 1384TIP3    H125567   1.851   4.014  11.795  0.9350  0.3788  0.9251
 1384TIP3    H225568   1.920   3.977  11.665 -1.1344  0.2922 -0.1690
 1385TIP3   OH225569   1.649   3.264  12.407  0.3456  0.8281 -0.0628
 1385TIP3    H125570   1.734   3.221  12.404  0.7522  1.7586 -2.2091
 1385TIP3    H225571   1.663   3.341  12.462  0.9843  1.1829 -0.7163
 1386TIP3   OH225572   5.290   4.165   2.239  0.5828 -0.0578 -0.0932
 1386TIP3    H125573   5.286   4.074   2.270  1.4112 -0.2994 -0.6948
 1386TIP3    H225574   5.217   4.208   2.284 -0.1418 -1.1389 -0.2132
 1387TIP3   OH225575   5.686   3.034   3.128 -0.6820  0.2867 -0.6138
 1387TIP3    H125576   5.659   2.953   3.086  1.0181 -0.4687 -0.2868
 1387TIP3    H225577   5.772   3.014   3.167 -0.4866  2.0702 -0.0716
 1388TIP3   OH225578   0.956   0.860  14.849 -0.3278 -0.5159  0.3133
 1388TIP3    H125579   0.949   0.859  14.945 -1.3314  2.6333  0.3000
 1388TIP3    H225580   0.877   0.815  14.819 -2.9881  3.5574  0.9099
 1389TIP3   OH225581   1.768   2.491   3.073 -0.2947  0.2575 -0.4809
 1389TIP3    H125582   1.685   2.514   3.031  0.0231  1.8467 -0.2868
 1389TIP3    H225583   1.742   2.439   3.149 -1.1261  0.7691 -0.4006
 1390TIP3   OH225584   2.526   1.871   4.256 -0.6296  0.0738 -0.4869
 1390TIP3    H125585   2.619   1.852   4.241 -0.3373 -0.0118  1.2751
 1390TIP3    H225586   2.506   1.942   4.195  0.4330 -0.3430 -1.3348
 1391TIP3   OH225587   2.702   1.075   0.657 -0.4471 -0.0724  0.2342
 1391TIP3    H125588   2.708   0.979   0.662 -2.1740 -0.1261  1.9708
 1391TIP3    H225589   2.769   1.105   0.719 -0.6370 -0.1790  0.4933
 1392TIP3   OH225590   4.130   0.019   3.535 -0.0257  0.3667  0.4934
 1392TIP3    H125591   4.194  -0.049   3.555  0.8942  0.9856 -0.2995
 1392TIP3    H225592   4.046  -0.027   3.535  0.5463 -0.6943  0.3250
 1393TIP3   OH225593   2.301   1.234  13.621 -0.2103 -0.1603  0.0145
 1393TIP3    H125594   2.335   1.194  13.701  0.3689  1.0840  0.3948
 1393TIP3    H225595   2.378   1.267  13.575 -0.7931  2.0873  0.5718
 1394TIP3   OH225596   5.735   3.843   1.282 -0.2889 -0.0891  0.2642
 1394TIP3    H125597   5.688   3.916   1.242  0.4052 -0.8939 -2.1042
 1394TIP3    H225598   5.811   3.829   1.225  0.6672 -1.3695  1.8088
 1395TIP3   OH225599   3.708   3.506  14.911 -0.3568  0.1264 -0.4910
 1395TIP3    H125600   3.775   3.438  14.915 -1.0974 -0.6250 -0.8644
 1395TIP3    H225601   3.635   3.470  14.962 -1.4094 -0.0998 -2.1412
 1396TIP3   OH225602   4.856   1.450   4.287 -0.4610  0.3330  0.2432
 1396TIP3    H125603   4.929   1.457   4.226  0.9938 -2.9811  1.4345
 1396TIP3    H225604   4.788   1.405   4.238 -1.3101  2.4618 -0.5432
 1397TIP3   OH225605   0.666   2.145   3.270  0.2170 -0.0431  0.2331
 1397TIP3    H125606   0.669   2.065   3.322 -0.3360  0.3424  0.8637
 1397TIP3    H225607   0.723   2.206   3.318 -2.1343  1.0768  1.6996
 1398TIP3   OH225608   0.762   4.291   0.629 -0.0446  0.3524  0.4760
 1398TIP3    H125609   0.765   4.204   0.587 -1.4752 -0.7747  2.5878
 1398TIP3    H225610   0.792   4.275   0.718  1.2830  2.3853  0.4086
 1399TIP3   OH225611   6.758   2.427   4.037 -0.4343 -0.3574 -0.0979
 1399TIP3    H125612   6.780   2.425   3.944 -1.4702 -2.2110 -0.3397
 1399TIP3    H225613   6.842   2.430   4.082  0.0670  0.7878 -1.0790
 1400TIP3   OH225614   6.728   1.401   2.359 -0.4578 -0.0655  0.0018
 1400TIP3    H125615   6.823   1.411   2.352 -0.6366  0.9324 -1.1631
 1400TIP3    H225616   6.710   1.400   2.453  0.4741  2.0999  0.2319
 1401TIP3   OH225617   3.481   3.799  14.623 -0.7897  0.4236  0.4046
 1401TIP3    H125618   3.390   3.776  14.639 -0.4199 -0.9743  0.5468
 1401TIP3    H225619   3.478   3.866  14.555 -1.9283  0.5902  0.6187
 1402TIP3   OH225620   6.767   6.314  16.919 -0.1840 -0.3282 -0.2086
 1402TIP3    H125621   6.818   6.392  16.899 -1.4775  0.3703 -0.8545
 1402TIP3    H225622   6.758   6.269  16.835 -2.3375  0.6159 -0.5201
 1403TIP3   OH225623   5.124   2.591   3.759 -0.4691 -0.5181  0.2869
 1403TIP3    H125624   5.142   2.543   3.678 -1.6656  0.3484 -0.5158
 1403TIP3    H225625   5.166   2.540   3.828  1.9371 -0.4532 -1.0697
 1404TIP3   OH225626   4.854   4.076  15.321  0.7022  0.2893  0.6861
 1404TIP3    H125627   4.844   4.168  15.296 -1.0631 -0.6227 -2.2062
 1404TIP3    H225628   4.764   4.042  15.323  1.3750 -1.5158  1.0922
 1405TIP3   OH225629   1.077   6.695  16.114  0.4076  0.0468 -0.4380
 1405TIP3    H125630   1.083   6.744  16.032  1.9346  1.5242  0.5164
 1405TIP3    H225631   1.167   6.671  16.135  0.0848  0.0384  1.0016
 1406TIP3   OH225632   2.933   5.057   4.808  0.2945  0.7598  0.0566
 1406TIP3    H125633   2.913   5.058   4.902 -5.2007  0.0146 -0.9386
 1406TIP3    H225634   2.922   5.148   4.781 -0.6144  0.5505 -0.2897
 1407TIP3   OH225635   4.495   0.024  16.540 -0.1797  0.3889  0.6403
 1407TIP3    H125636   4.583   0.050  16.565 -0.1123  1.2955 -0.4852
 1407TIP3    H225637   4.438   0.069  16.603  0.0228  2.0736 -0.3370
 1408TIP3   OH225638   2.912   6.283   2.816 -0.0102  0.3762 -0.2981
 1408TIP3    H125639   2.991   6.331   2.839  2.7847 -3.1621 -1.9482
 1408TIP3    H225640   2.876   6.330   2.740  0.9236  1.5582 -0.0192
 1409TIP3   OH225641   1.291   5.253  13.551  0.1153  0.6677 -0.4913
 1409TIP3    H125642   1.221   5.202  13.510 -0.3821  0.9850 -0.0536
 1409TIP3    H225643   1.369   5.200  13.541 -0.8278 -1.3058  2.0915
 1410TIP3   OH225644   4.871   1.355   1.464 -0.0068  0.4057 -0.2297
 1410TIP3    H125645   4.820   1.299   1.406  0.0741  0.3023 -0.1998
 1410TIP3    H225646   4.819   1.362   1.544  1.6155 -2.5430  1.1789
 1411TIP3   OH225647   4.101   2.209  12.533 -0.2669  0.4192 -0.5876
 1411TIP3    H125648   4.116   2.210  12.627 -0.2150 -0.2151 -0.5849
 1411TIP3    H225649   4.186   2.184  12.495 -0.7143 -0.9976 -0.6951
 1412TIP3   OH225650   1.995   2.533   2.213  0.4442  0.3306 -0.1932
 1412TIP3    H125651   1.951   2.454   2.243 -0.2979  1.3243  1.4865
 1412TIP3    H225652   1.925   2.597   2.204  1.3977  1.7461  1.8493
 1413TIP3   OH225653   0.576   5.700   3.789  0.4335  0.4503  0.0328
 1413TIP3    H125654   0.656   5.655   3.817 -0.7255 -1.9792 -0.4164
 1413TIP3    H225655   0.548   5.750   3.866  0.7110 -1.1526  1.2098
 1414TIP3   OH225656   4.487   2.968  11.577  0.2242 -0.1385  0.0709
 1414TIP3    H125657   4.412   2.920  11.613  0.7908 -0.4222  0.8799
 1414TIP3    H225658   4.464   2.982  11.485 -1.4915  1.1206  0.6627
 1415TIP3   OH225659   4.574   2.162  16.934  0.5913  0.3333  0.1429
 1415TIP3    H125660   4.611   2.076  16.953  0.7230  0.6608  1.4054
 1415TIP3    H225661   4.509   2.145  16.865  0.9073 -0.7085  0.0918
 1416TIP3   OH225662   4.749   2.182   5.776 -0.1509 -0.0821 -0.4592
 1416TIP3    H125663   4.742   2.270   5.738 -1.4486 -0.0110 -0.0686
 1416TIP3    H225664   4.711   2.191   5.864 -0.5236 -1.0839 -0.5154
 1417TIP3   OH225665   1.901   3.219  11.675 -0.0727  0.0887 -0.0784
 1417TIP3    H125666   1.898   3.314  11.687 -0.9075  0.1085 -0.4014
 1417TIP3    H225667   1.850   3.183  11.747 -1.0504 -0.0336 -0.8249
 1418TIP3   OH225668   5.343   3.146   3.996  0.4284 -0.0919  0.0167
 1418TIP3    H125669   5.308   3.057   3.997  0.4380 -0.0862  1.0494
 1418TIP3    H225670   5.319   3.180   3.909  0.8550 -1.2586 -0.5701
 1419TIP3   OH225671   4.490   2.552   0.638  0.1758 -0.4125  0.3076
 1419TIP3    H125672   4.543   2.631   0.637  1.7980 -1.4792  0.1110
 1419TIP3    H225673   4.407   2.577   0.596  0.0824  1.5581  1.6291
 1420TIP3   OH225674   4.382   4.130  13.634  0.2462  0.6823  0.4453
 1420TIP3    H125675   4.289   4.132  13.610  0.6530  0.0944 -1.3176
 1420TIP3    H225676   4.426   4.100  13.554  1.8538 -0.0421  1.5703
 1421TIP3   OH225677   2.346   6.534   3.173 -0.6953  0.0642 -0.3004
 1421TIP3    H125678   2.297   6.600   3.125 -0.2750 -0.3373 -1.2938
 1421TIP3    H225679   2.303   6.529   3.259 -1.2585  1.0001 -0.5266
 1422TIP3   OH225680   5.039   1.458  10.491 -0.2400 -0.2138  0.2501
 1422TIP3    H125681   4.991   1.431  10.413 -0.1157  0.1663  0.0446
 1422TIP3    H225682   5.106   1.390  10.503  0.1335  0.0529 -0.3200
 1423TIP3   OH225683   5.560   2.701  12.851 -0.4121 -0.4132  0.5291
 1423TIP3    H125684   5.533   2.702  12.943 -0.7571  0.0595  0.4307
 1423TIP3    H225685   5.561   2.794  12.826  1.5475 -0.4097  0.5935
 1424TIP3   OH225686   3.086   2.244  13.444  0.5980 -0.0989  0.0029
 1424TIP3    H125687   3.102   2.338  13.440  0.7427 -0.0465  1.5276
 1424TIP3    H225688   2.991   2.235  13.441  0.5762  0.1126  0.0757
 1425TIP3   OH225689   0.721   3.130  14.155  0.2436 -0.1645 -0.3336
 1425TIP3    H125690   0.690   3.115  14.065 -1.3690 -0.6443  0.2916
 1425TIP3    H225691   0.714   3.225  14.167 -0.3543 -0.2018 -0.4097
 1426TIP3   OH225692   5.928   1.587   2.522 -0.1764 -0.2397 -0.1059
 1426TIP3    H125693   5.974   1.507   2.549  0.4571  0.6162  1.4262
 1426TIP3    H225694   5.993   1.657   2.534 -0.9428  0.5977 -0.7911
 1427TIP3   OH225695   4.808   4.627  15.983 -0.0309  0.2259  0.1524
 1427TIP3    H125696   4.726   4.601  16.024 -1.2635  1.8394 -1.2600
 1427TIP3    H225697   4.833   4.708  16.028  0.0089  0.5529 -0.4583
 1428TIP3   OH225698   3.365   5.532   2.888 -0.1357 -0.0903  0.0609
 1428TIP3    H125699   3.331   5.574   2.967 -0.1715 -0.3728  0.1968
 1428TIP3    H225700   3.326   5.582   2.816 -0.1551  0.1261  0.2213
 1429TIP3   OH225701   6.139   6.315  15.046 -0.4624  0.6954 -0.0756
 1429TIP3    H125702   6.045   6.309  15.029 -0.6417  0.3550  0.9878
 1429TIP3    H225703   6.152   6.405  15.076 -0.2567  1.0879 -1.3199
 1430TIP3   OH225704   5.734   6.608   1.489 -0.4754  0.1138 -0.4551
 1430TIP3    H125705   5.766   6.686   1.444 -2.3618 -0.4575 -2.8429
 1430TIP3    H225706   5.803   6.543   1.476 -0.1339  0.5386 -0.8011
 1431TIP3   OH225707   2.881   1.714  11.482  0.3314  0.0147 -0.9115
 1431TIP3    H125708   2.873   1.629  11.439  0.8495 -0.8526  0.6719
 1431TIP3    H225709   2.971   1.716  11.514  0.1972  0.9971 -0.5789
 1432TIP3   OH225710   4.704   1.913  16.146  0.4200  0.3488 -0.0362
 1432TIP3    H125711   4.733   1.832  16.189  3.1419 -0.8551 -3.9207
 1432TIP3    H225712   4.613   1.896  16.121  0.3637 -0.7436  0.8917
 1433TIP3   OH225713   4.548   3.279  15.026  0.3620 -0.0346  0.6851
 1433TIP3    H125714   4.456   3.297  15.006 -0.5145 -3.7679  0.9738
 1433TIP3    H225715   4.586   3.251  14.943  0.9412  0.3598  0.8150
 1434TIP3   OH225716   4.687   2.737   3.361 -0.0051 -0.1652 -0.4453
 1434TIP3    H125717   4.664   2.785   3.282 -2.4525 -1.4416 -0.5457
 1434TIP3    H225718   4.749   2.670   3.331 -0.1540 -0.0064 -1.1146
 1435TIP3   OH225719   1.435   1.747   5.684 -0.0534 -0.2258 -0.2411
 1435TIP3    H125720   1.464   1.686   5.615 -0.0948 -0.5700  0.0450
 1435TIP3    H225721   1.374   1.805   5.639  1.7631  1.0878 -1.0687
 1436TIP3   OH225722   2.208   6.211  14.876 -0.1080 -0.4693 -0.2075
 1436TIP3    H125723   2.246   6.294  14.847  0.8250 -0.8470 -0.0646
 1436TIP3    H225724   2.276   6.170  14.929 -1.3843 -0.3253  1.5715
 1437TIP3   OH225725   5.856   4.941   3.886  0.1391  0.5018 -0.2868
 1437TIP3    H125726   5.942   4.983   3.890  0.1865  0.4328 -0.5762
 1437TIP3    H225727   5.813   4.983   3.811  0.3239 -0.2238 -0.8064
 1438TIP3   OH225728   2.157   0.110   3.449 -0.1058 -0.1681 -0.1958
 1438TIP3    H125729   2.101   0.033   3.460 -1.6046  0.7277 -1.4612
 1438TIP3    H225730   2.241   0.083   3.486 -1.1577 -1.7638  1.1002
 1439TIP3   OH225731   5.264   1.131  10.694 -0.5306  0.2905  0.0973
 1439TIP3    H125732   5.237   1.041  10.678 -0.5378  0.3967 -0.4877
 1439TIP3    H225733   5.260   1.173  10.608  2.0396  0.1604 -0.1291
 1440TIP3   OH225734   0.379   0.875   1.330  0.2770 -0.2585 -0.3103
 1440TIP3    H125735   0.382   0.848   1.238  1.8882 -0.3729 -0.2422
 1440TIP3    H225736   0.436   0.953   1.333 -0.1167  0.0003  0.5105
 1441TIP3   OH225737   0.403   3.589  10.609  0.1969  0.2260 -0.2926
 1441TIP3    H125738   0.499   3.590  10.607  0.1823  1.6843 -1.2820
 1441TIP3    H225739   0.381   3.626  10.695  0.5253 -0.6790  0.1814
 1442TIP3   OH225740   6.722   2.813  11.131 -0.1089  0.1175  0.0157
 1442TIP3    H125741   6.793   2.749  11.121  0.2487  0.3605  0.9525
 1442TIP3    H225742   6.729   2.869  11.054  0.0070 -0.5548 -0.4662
 1443TIP3   OH225743   0.177   4.176  12.151 -0.3481 -0.3334  0.1626
 1443TIP3    H125744   0.242   4.201  12.217 -0.5069  0.1647  0.1279
 1443TIP3    H225745   0.100   4.151  12.201 -1.2759  2.3098  0.0986
 1444TIP3   OH225746   1.560   0.681   3.062  0.8449 -0.1219 -0.2912
 1444TIP3    H125747   1.630   0.678   2.997  1.1731  1.7314 -0.0446
 1444TIP3    H225748   1.605   0.695   3.145  0.2574  0.0731 -0.0033
 1445TIP3   OH225749   1.390   4.134  14.199 -0.1000 -0.4282 -0.1279
 1445TIP3    H125750   1.428   4.047  14.189  1.4366  0.0782  1.1797
 1445TIP3    H225751   1.350   4.133  14.286  1.8842  0.8751  0.8391
 1446TIP3   OH225752   5.677   6.706  11.330  0.4270 -0.5754  0.5096
 1446TIP3    H125753   5.662   6.684  11.422 -2.8631  0.7805  0.3342
 1446TIP3    H225754   5.650   6.627  11.282  0.3758 -0.6028  0.5837
 1447TIP3   OH225755   3.047   3.206  15.068  0.0890 -0.4229  0.1746
 1447TIP3    H125756   3.024   3.295  15.040 -0.1639 -0.2412  0.9491
 1447TIP3    H225757   3.138   3.195  15.039 -0.6310 -0.8007 -2.0481
 1448TIP3   OH225758   4.471   5.174  15.943 -0.2110  0.0019 -0.0679
 1448TIP3    H125759   4.502   5.188  15.854  0.2325  1.7774  0.3573
 1448TIP3    H225760   4.406   5.104  15.934  2.3133 -2.2832 -1.2567
 1449TIP3   OH225761   3.442   5.824  13.081  0.5733  0.3833  0.1998
 1449TIP3    H125762   3.354   5.792  13.064  0.5743  0.4400  0.0890
 1449TIP3    H225763   3.496   5.784  13.013  0.9404 -1.0740  1.3255
 1450TIP3   OH225764   1.771   6.443  14.383  0.5841  0.0935 -0.4125
 1450TIP3    H125765   1.709   6.384  14.426 -0.8394  1.2814 -0.7731
 1450TIP3    H225766   1.756   6.429  14.289  1.5253 -0.2950 -0.5039
 1451TIP3   OH225767   2.725   6.701  11.557  0.0508  0.1026 -0.1730
 1451TIP3    H125768   2.674   6.705  11.476  0.1795 -0.5190 -0.2834
 1451TIP3    H225769   2.703   6.616  11.595  0.9347 -0.1349 -0.1770
 1452TIP3   OH225770   1.838   1.022  12.370  0.1135 -0.5209 -0.1928
 1452TIP3    H125771   1.840   1.111  12.333  2.4812 -0.5047 -0.0939
 1452TIP3    H225772   1.776   1.029  12.443  1.9880  1.7143  1.3102
 1453TIP3   OH225773   2.766   1.776  14.923  0.2724 -0.2932 -0.4785
 1453TIP3    H125774   2.791   1.762  14.831 -0.4393 -1.2117 -0.5321
 1453TIP3    H225775   2.686   1.725  14.934  0.5000 -0.3848  0.7336
 1454TIP3   OH225776   5.528   2.918   0.430  0.0904  0.0196 -0.1581
 1454TIP3    H125777   5.584   2.896   0.504 -1.2391  0.7465  1.0995
 1454TIP3    H225778   5.444   2.878   0.450 -0.3002  0.2573 -1.2645
 1455TIP3   OH225779   4.387   0.873  12.383  0.4667 -0.2465 -0.0095
 1455TIP3    H125780   4.428   0.903  12.302  1.3930  0.6444  0.7713
 1455TIP3    H225781   4.460   0.850  12.440 -0.1576 -0.3573  0.7530
 1456TIP3   OH225782   0.215   5.403  15.797 -0.6653 -0.4517 -0.7977
 1456TIP3    H125783   0.300   5.381  15.837 -0.1919 -1.8820 -2.5022
 1456TIP3    H225784   0.219   5.497  15.781 -0.5247 -0.0072  1.6809
 1457TIP3   OH225785   0.846   4.556   3.514 -0.3260  0.1254  0.5205
 1457TIP3    H125786   0.848   4.645   3.479  1.8033 -0.0786  0.0923
 1457TIP3    H225787   0.781   4.560   3.585 -0.4761  1.9357  0.3018
 1458TIP3   OH225788   0.948   5.816   3.608  0.6351  0.0410 -0.1247
 1458TIP3    H125789   0.934   5.908   3.584  0.1491 -0.6386 -2.5911
 1458TIP3    H225790   0.889   5.802   3.682 -2.6829  0.5633 -2.5407
 1459TIP3   OH225791   5.123   5.753  12.585 -0.1733 -0.0018 -0.0414
 1459TIP3    H125792   5.059   5.693  12.625  1.2221 -0.6238  1.3196
 1459TIP3    H225793   5.103   5.837  12.625 -1.9507  0.4221 -1.7383
 1460TIP3   OH225794   4.441   2.565   3.330 -0.0541 -0.4623  0.4540
 1460TIP3    H125795   4.516   2.622   3.314 -0.1391 -0.9986 -2.1139
 1460TIP3    H225796   4.397   2.603   3.406  3.2030 -0.5546  2.4705
 1461TIP3   OH225797   0.193   4.701  13.528  0.6138 -0.5799 -0.0764
 1461TIP3    H125798   0.218   4.759  13.600  0.4671 -1.1785  0.4675
 1461TIP3    H225799   0.121   4.649  13.564 -0.5823  0.2872 -1.2309
 1462TIP3   OH225800   2.237   5.020   5.332  0.6745 -0.6804  0.3026
 1462TIP3    H125801   2.185   5.086   5.378  1.6232  0.2642  0.0292
 1462TIP3    H225802   2.179   4.944   5.326 -0.8108  0.4730 -0.3107
 1463TIP3   OH225803   6.459   3.132   2.636  0.3966 -0.2705  0.3508
 1463TIP3    H125804   6.403   3.191   2.586 -0.2462 -1.1457  0.0237
 1463TIP3    H225805   6.490   3.069   2.571  0.1492 -0.9723  0.9131
 1464TIP3   OH225806   0.797   4.018   6.197  0.2297  0.3112  0.0108
 1464TIP3    H125807   0.892   4.019   6.194  0.2097  0.2791 -0.8000
 1464TIP3    H225808   0.771   4.110   6.189  0.1409  0.1149 -2.1349
 1465TIP3   OH225809   1.407   0.834   5.016  0.1879 -0.6326  0.0037
 1465TIP3    H125810   1.336   0.801   5.072 -2.4531  0.2834 -2.6884
 1465TIP3    H225811   1.387   0.801   4.929  2.1005  1.1094 -1.1490
 1466TIP3   OH225812   4.728   2.997  12.474  0.1252 -0.2541 -0.0622
 1466TIP3    H125813   4.704   2.999  12.567  0.6320  0.2388  0.0626
 1466TIP3    H225814   4.694   2.913  12.443  0.2957 -0.6001  0.6601
 1467TIP3   OH225815   1.634   4.751  17.067 -0.2232  0.6034 -0.7593
 1467TIP3    H125816   1.685   4.829  17.089 -0.6140  0.4677  0.6379
 1467TIP3    H225817   1.543   4.782  17.060 -0.2250  0.4825 -1.3133
 1468TIP3   OH225818   5.285   6.505  14.071 -0.0437 -0.8651  0.0163
 1468TIP3    H125819   5.357   6.489  14.131 -0.0708 -0.3433  0.1966
 1468TIP3    H225820   5.311   6.582  14.021 -0.5527 -0.5601  0.2123
 1469TIP3   OH225821   0.396   0.596  16.082 -0.3517  0.7203 -0.2179
 1469TIP3    H125822   0.415   0.570  15.992 -0.9792  3.0262 -1.0497
 1469TIP3    H225823   0.447   0.676  16.096 -0.7071  0.7079  1.2911
 1470TIP3   OH225824   0.732   4.084  11.792  0.3473 -0.7264  0.3036
 1470TIP3    H125825   0.695   4.036  11.719 -0.7328 -3.2677  2.4350
 1470TIP3    H225826   0.827   4.071  11.784  0.2458 -0.8353 -0.7250
 1471TIP3   OH225827   4.982   5.031  16.183 -0.8889  0.0814  0.1318
 1471TIP3    H125828   4.987   4.936  16.174 -1.2131 -0.0181  1.0029
 1471TIP3    H225829   5.071   5.057  16.209 -0.6955  0.0643 -0.5019
 1472TIP3   OH225830   0.376   1.287   0.239  0.3481 -0.1732 -0.3369
 1472TIP3    H125831   0.394   1.353   0.306  0.1498 -1.2593  0.8118
 1472TIP3    H225832   0.461   1.249   0.218  0.2161 -0.9583  0.5052
 1473TIP3   OH225833   2.136   4.986   1.267  0.2782  0.5036  0.6949
 1473TIP3    H125834   2.057   5.009   1.217 -0.0442 -2.6444 -0.3099
 1473TIP3    H225835   2.103   4.939   1.344  1.1881 -1.7230 -0.2401
 1474TIP3   OH225836   0.437   5.062   5.809  0.1625 -0.5615  0.3062
 1474TIP3    H125837   0.350   5.088   5.840  0.3678 -0.1362  0.5124
 1474TIP3    H225838   0.496   5.083   5.880  0.5405 -0.1896 -0.1195
 1475TIP3   OH225839   6.383   3.240  15.260  0.1702  0.4641 -0.0244
 1475TIP3    H125840   6.449   3.292  15.213  0.3804 -0.0640 -0.3127
 1475TIP3    H225841   6.385   3.154  15.218  0.7640 -0.1899  1.3116
 1476TIP3   OH225842   5.880   4.611  13.715  0.0763  0.3923  0.0339
 1476TIP3    H125843   5.870   4.542  13.780  0.7137 -1.7842 -2.0934
 1476TIP3    H225844   5.796   4.656  13.714 -0.1955 -0.0535  1.7976
 1477TIP3   OH225845   6.444   3.152  11.584  0.2014 -0.2081 -0.1021
 1477TIP3    H125846   6.382   3.208  11.536 -1.3067  0.0711  2.0979
 1477TIP3    H225847   6.419   3.063  11.560  2.0864 -0.0286 -2.9862
 1478TIP3   OH225848   1.855   3.571  16.460  0.0304  0.5657 -0.2181
 1478TIP3    H125849   1.842   3.492  16.407  0.1567  0.9533 -0.8275
 1478TIP3    H225850   1.894   3.539  16.541 -1.2174 -0.1809  0.1187
 1479TIP3   OH225851   4.492   5.758   3.901 -0.3271 -0.2539  0.2894
 1479TIP3    H125852   4.460   5.806   3.825  1.3696  0.4105 -0.0216
 1479TIP3    H225853   4.418   5.758   3.962 -1.2974  0.2308 -0.8739
 1480TIP3   OH225854   2.193   4.760  15.774 -0.4973  0.3175 -0.2026
 1480TIP3    H125855   2.156   4.687  15.822 -1.2884 -0.6950 -2.3160
 1480TIP3    H225856   2.246   4.720  15.705  1.3858  1.7369  0.3604
 1481TIP3   OH225857   4.103   3.318  12.202  0.2267 -0.5618 -0.2436
 1481TIP3    H125858   4.136   3.407  12.190  1.4397 -0.8169  0.9953
 1481TIP3    H225859   4.079   3.289  12.115 -1.1141  1.3324 -0.5446
 1482TIP3   OH225860   3.825   4.327  15.157 -0.7268 -0.5027 -0.0743
 1482TIP3    H125861   3.904   4.322  15.211 -0.2941 -1.2899 -0.7644
 1482TIP3    H225862   3.848   4.279  15.077 -1.9837 -0.9459 -0.1764
 1483TIP3   OH225863   1.701   1.443  15.245  0.2131  0.5548  0.3163
 1483TIP3    H125864   1.612   1.410  15.232  0.5111  0.2169 -0.9659
 1483TIP3    H225865   1.697   1.535  15.219  0.5442  0.1818 -1.0825
 1484TIP3   OH225866   0.123   1.220   4.460  1.0391 -0.1644 -0.0228
 1484TIP3    H125867   0.210   1.250   4.432  2.2909  0.0113  3.7599
 1484TIP3    H225868   0.141   1.156   4.530 -1.8629  0.0492  0.9822
 1485TIP3   OH225869   4.621   3.417  15.657  0.1142  0.4091 -0.1004
 1485TIP3    H125870   4.565   3.488  15.627  0.4872  0.6927 -0.1285
 1485TIP3    H225871   4.596   3.404  15.749  0.5605  1.0689  0.1154
 1486TIP3   OH225872   6.450   0.071   3.939  0.0234  0.5777  0.2296
 1486TIP3    H125873   6.383   0.049   4.004 -0.6173 -1.2271 -1.0123
 1486TIP3    H225874   6.527   0.022   3.966 -0.5828 -1.0722 -0.9931
 1487TIP3   OH225875   1.655   1.454   2.859  0.4563  0.0462 -0.1656
 1487TIP3    H125876   1.702   1.497   2.930  0.0239  0.0334  0.1303
 1487TIP3    H225877   1.666   1.360   2.877  1.0994  0.0348 -0.6124
 1488TIP3   OH225878   0.883   4.251   1.117 -0.4125  0.0258 -0.2924
 1488TIP3    H125879   0.938   4.181   1.153  0.5669 -0.8272 -3.2908
 1488TIP3    H225880   0.930   4.331   1.138  0.6446 -0.5252 -0.4827
 1489TIP3   OH225881   4.643   3.224  12.093 -0.0749  0.2895  0.4752
 1489TIP3    H125882   4.583   3.290  12.127  1.6411  0.6328  2.9316
 1489TIP3    H225883   4.671   3.259  12.008 -2.2958  0.7315 -0.1158
 1490TIP3   OH225884   0.568   3.639  16.790 -0.3329 -0.2092  0.0171
 1490TIP3    H125885   0.564   3.563  16.846  0.7766 -0.8407 -0.7366
 1490TIP3    H225886   0.545   3.606  16.703  0.8772  0.1674 -0.4481
 1491TIP3   OH225887   2.778   3.122   3.466  0.0579 -0.0720 -0.3799
 1491TIP3    H125888   2.706   3.070   3.429  1.3221 -1.8752 -0.4054
 1491TIP3    H225889   2.851   3.109   3.406  1.5204 -1.3745  1.5763
 1492TIP3   OH225890   3.137   0.915   4.201  0.5227  0.3272 -0.2278
 1492TIP3    H125891   3.206   0.972   4.233  1.1551 -1.4085  1.5823
 1492TIP3    H225892   3.170   0.880   4.118  0.1108  2.5505 -1.3757
 1493TIP3   OH225893   2.360   2.161  15.820  0.2618 -0.2295  0.4150
 1493TIP3    H125894   2.382   2.148  15.728  2.2834 -0.8774  0.9664
 1493TIP3    H225895   2.276   2.207  15.818 -0.4291 -1.5182 -1.7166
 1494TIP3   OH225896   3.756   5.768  11.743 -0.0376  0.3615 -0.8968
 1494TIP3    H125897   3.849   5.757  11.762 -0.0850  0.9687 -0.2955
 1494TIP3    H225898   3.749   5.753  11.648  0.5117 -0.6566 -0.7851
 1495TIP3   OH225899   1.033   4.571  13.503  0.0115 -0.0853  0.5060
 1495TIP3    H125900   1.027   4.573  13.599  0.9345  1.8910  0.5422
 1495TIP3    H225901   0.948   4.538  13.475 -1.3206  2.0780  1.9076
 1496TIP3   OH225902   1.706   1.339   5.636  0.2609 -0.4623  0.8198
 1496TIP3    H125903   1.762   1.342   5.714  1.1172 -0.1975  0.1977
 1496TIP3    H225904   1.737   1.262   5.588  0.0930 -0.3079  0.4678
 1497TIP3   OH225905   0.387   0.042   4.515  0.2880  0.3358 -0.3891
 1497TIP3    H125906   0.430   0.007   4.594  1.3326 -0.8961 -1.4714
 1497TIP3    H225907   0.298   0.008   4.519  0.0550  1.0538  0.7336
 1498TIP3   OH225908   0.552   3.845  14.541 -0.1239 -0.5191 -0.1555
 1498TIP3    H125909   0.467   3.821  14.578 -0.0008 -0.6792  0.0212
 1498TIP3    H225910   0.559   3.939  14.557  1.1506 -1.0602  2.7128
 1499TIP3   OH225911   4.042   6.142  13.667  0.0800 -0.1707  0.7100
 1499TIP3    H125912   4.004   6.168  13.583  0.5712  2.0894  1.1354
 1499TIP3    H225913   4.092   6.063  13.647 -2.9814 -1.9156 -0.2907
 1500TIP3   OH225914   4.389   5.643  11.238  0.0838 -0.8422  0.5040
 1500TIP3    H125915   4.463   5.693  11.203 -0.6485 -0.9055 -1.1774
 1500TIP3    H225916   4.427   5.562  11.272  1.1038  0.2454  2.0104
 1501TIP3   OH225917   3.733   4.751   2.495  0.5736  0.0304  0.2226
 1501TIP3    H125918   3.669   4.708   2.438 -2.0921  1.3026  2.1713
 1501TIP3    H225919   3.681   4.787   2.567  3.4864  1.1932  1.8245
 1502TIP3   OH225920   0.059   2.625   2.650 -0.2455 -0.6453  0.2803
 1502TIP3    H125921   0.140   2.599   2.693  0.0968 -1.9087 -1.0576
 1502TIP3    H225922   0.078   2.711   2.614  0.0562 -0.3593  1.1122
 1503TIP3   OH225923   3.292   1.654   5.622 -0.3611  0.0094  0.0574
 1503TIP3    H125924   3.280   1.592   5.695  1.9575  1.4402  1.7248
 1503TIP3    H225925   3.251   1.735   5.653 -0.2876  0.3341 -0.6951
 1504TIP3   OH225926   3.101   2.926   4.137 -0.0248 -0.3152 -0.2964
 1504TIP3    H125927   3.073   2.898   4.224  0.8724 -0.7010 -0.1283
 1504TIP3    H225928   3.189   2.960   4.150 -0.9545  2.3107 -0.5538
 1505TIP3   OH225929   0.233   0.983  13.164  0.1103 -0.3285 -0.3739
 1505TIP3    H125930   0.140   1.001  13.170 -0.1488 -0.9524 -2.1764
 1505TIP3    H225931   0.267   1.003  13.251 -1.5554  0.6797  0.0715
 1506TIP3   OH225932   6.610   5.708  16.941 -0.6190  0.6073  0.6778
 1506TIP3    H125933   6.625   5.798  16.912  1.9846  0.4493  1.4004
 1506TIP3    H225934   6.528   5.683  16.899  0.3438  2.1533 -2.3007
 1507TIP3   OH225935   6.171   1.174   5.887 -0.2032 -0.1323  0.0633
 1507TIP3    H125936   6.265   1.176   5.865 -0.2189  2.3223  0.1119
 1507TIP3    H225937   6.127   1.193   5.805 -0.6935 -1.6865 -0.0425
 1508TIP3   OH225938   5.483   5.337   5.298 -0.0823 -0.0766 -0.0862
 1508TIP3    H125939   5.480   5.429   5.271 -0.1581  0.4704  1.7160
 1508TIP3    H225940   5.404   5.298   5.260  0.3365  0.4185 -1.4803
 1509TIP3   OH225941   1.297   4.683   3.395 -0.0157  0.3805  0.0916
 1509TIP3    H125942   1.324   4.681   3.487 -1.3907  1.5087  0.5355
 1509TIP3    H225943   1.349   4.753   3.356  0.8616 -0.3668 -0.0934
 1510TIP3   OH225944   6.138   5.577  13.214 -0.0755 -0.2148 -0.4205
 1510TIP3    H125945   6.137   5.629  13.294 -0.7730 -1.2240  0.2308
 1510TIP3    H225946   6.150   5.641  13.144  1.5256  0.5887  0.5542
 1511TIP3   OH225947   3.850   1.036   4.108  0.2254 -0.1447 -0.3941
 1511TIP3    H125948   3.923   1.071   4.159 -0.8672  2.1707 -0.3318
 1511TIP3    H225949   3.884   1.030   4.019  0.9955 -0.6682 -0.0720
 1512TIP3   OH225950   5.492   4.728  16.047  0.3533 -0.3950  0.3253
 1512TIP3    H125951   5.513   4.659  16.109 -0.3386 -0.6330  0.2862
 1512TIP3    H225952   5.577   4.753  16.009  0.6236 -1.0727  0.4895
 1513TIP3   OH225953   3.106   4.336   0.035  0.1158 -0.5322 -0.2716
 1513TIP3    H125954   3.165   4.405   0.064  0.7375 -0.5543 -1.4639
 1513TIP3    H225955   3.019   4.376   0.036  0.2626 -0.2256  0.5919
 1514TIP3   OH225956   2.912   3.867   3.213  0.7289  0.1894 -0.2867
 1514TIP3    H125957   2.887   3.952   3.250  2.0806  0.5141 -0.0896
 1514TIP3    H225958   2.950   3.819   3.287  0.1918 -0.4930 -0.4523
 1515TIP3   OH225959   1.561   3.338   3.074 -0.6258  0.3030 -0.3906
 1515TIP3    H125960   1.603   3.400   3.013 -2.5947  2.4275  0.3168
 1515TIP3    H225961   1.627   3.322   3.141  0.4403  0.4911 -1.3810
 1516TIP3   OH225962   5.763   4.800   6.264  0.4273  0.4889  0.0100
 1516TIP3    H125963   5.751   4.883   6.218  2.0374  1.4320  1.2941
 1516TIP3    H225964   5.683   4.790   6.315 -0.2061  0.7432 -0.9086
 1517TIP3   OH225965   3.950   2.509  14.328  0.1831 -0.7582 -0.4308
 1517TIP3    H125966   3.992   2.525  14.413 -2.5019 -1.6149  1.1161
 1517TIP3    H225967   3.912   2.594  14.304  1.7258 -0.2877 -1.2359
 1518TIP3   OH225968   5.803   1.212  13.229  0.1409 -0.0865 -0.5416
 1518TIP3    H125969   5.816   1.146  13.161  0.5286  0.2652 -0.8160
 1518TIP3    H225970   5.892   1.240  13.251  0.1870 -1.9660  1.8672
 1519TIP3   OH225971   5.368   2.083  12.323  0.4012 -0.6093  0.3596
 1519TIP3    H125972   5.359   2.127  12.408  1.3612  0.8273 -0.2555
 1519TIP3    H225973   5.453   2.038  12.329  1.1583  0.6777 -0.3279
 1520TIP3   OH225974   6.639   2.766   5.347  0.2597  0.0056 -0.2218
 1520TIP3    H125975   6.568   2.822   5.317 -0.6099 -0.7059  0.5016
 1520TIP3    H225976   6.605   2.677   5.341 -0.4857 -0.1348  4.1216
 1521TIP3   OH225977   3.139   0.534  15.217 -0.0575  0.1427  0.0385
 1521TIP3    H125978   3.177   0.447  15.230 -0.6470  0.0084  0.8554
 1521TIP3    H225979   3.045   0.518  15.213 -0.0003  0.2451 -3.6251
 1522TIP3   OH225980   4.399   6.062  16.600 -0.3397  0.0829  0.0620
 1522TIP3    H125981   4.368   6.036  16.687 -1.0247 -1.1935 -0.5478
 1522TIP3    H225982   4.434   6.150  16.612 -0.9541  0.1393  1.5180
 1523TIP3   OH225983   0.372   4.692  14.487  0.1206 -0.0301 -0.1039
 1523TIP3    H125984   0.329   4.609  14.465 -0.3883  0.0628  0.5250
 1523TIP3    H225985   0.310   4.759  14.459 -0.4992  0.0933  1.5140
 1524TIP3   OH225986   4.963   6.470  13.245 -0.2164 -0.0650 -0.2943
 1524TIP3    H125987   5.045   6.508  13.276  0.1594 -0.9550 -0.1890
 1524TIP3    H225988   4.895   6.524  13.284  0.2955 -0.1687  0.7501
 1525TIP3   OH225989   1.398   6.459   3.750  0.2236 -0.1479  0.0182
 1525TIP3    H125990   1.355   6.401   3.813 -0.2106 -1.4325 -1.4303
 1525TIP3    H225991   1.416   6.539   3.800  1.2276 -1.6483  2.1980
 1526TIP3   OH225992   4.079   4.243   4.324  0.5764  0.1168  0.7487
 1526TIP3    H125993   3.991   4.274   4.302 -0.8649 -0.9571  4.5693
 1526TIP3    H225994   4.091   4.164   4.271  0.1222  1.4391 -1.3639
 1527TIP3   OH225995   5.028   5.867  10.838 -0.0972 -0.8092  0.0846
 1527TIP3    H125996   5.006   5.774  10.837 -0.8161 -0.6328 -1.1106
 1527TIP3    H225997   4.960   5.909  10.785  0.4255  0.3554  0.3069
 1528TIP3   OH225998   2.711   1.947  15.227  0.2519  0.2712  0.0864
 1528TIP3    H125999   2.780   1.893  15.265  0.0589 -0.1093 -0.0917
 1528TIP3    H226000   2.638   1.886  15.214  0.1868  0.4783 -0.5420
 1529TIP3   OH226001   5.346   6.028  13.647 -0.1698 -0.3234  0.3292
 1529TIP3    H126002   5.329   6.087  13.721  2.8687  0.8706  0.1500
 1529TIP3    H226003   5.379   5.948  13.688  0.7835  0.0613  0.3273
 1530TIP3   OH226004   4.774   3.223  12.338  0.2473  0.6645 -0.0212
 1530TIP3    H126005   4.737   3.195  12.255  1.9275 -2.4901  0.2275
 1530TIP3    H226006   4.786   3.142  12.388 -1.8523  2.5804  3.8067
 1531TIP3   OH226007   6.458   0.554   2.737  0.6754  0.6784 -0.0271
 1531TIP3    H126008   6.400   0.593   2.803  0.5231 -0.0599  0.2797
 1531TIP3    H226009   6.443   0.460   2.745  1.5476  0.5159 -0.2949
 1532TIP3   OH226010   6.239   5.377   3.436 -0.3293  0.2574 -0.1856
 1532TIP3    H126011   6.321   5.398   3.481 -0.4884  0.5261 -0.0168
 1532TIP3    H226012   6.257   5.398   3.344 -0.4303  1.0015 -0.0443
 1533TIP3   OH226013   4.102   3.167  13.239 -0.1536  0.0177 -0.2958
 1533TIP3    H126014   4.102   3.181  13.334 -1.2586  0.2188 -0.3134
 1533TIP3    H226015   4.011   3.146  13.218  0.4274 -1.8363 -1.0601
 1534TIP3   OH226016   3.022   3.704   3.412 -0.4020  0.5043  0.4498
 1534TIP3    H126017   3.024   3.624   3.464 -1.8580  0.9932  1.2761
 1534TIP3    H226018   3.018   3.775   3.476  2.0590  1.3370 -0.2337
 1535TIP3   OH226019   0.743   3.676  17.092  0.3155 -0.0628 -0.1667
 1535TIP3    H126020   0.776   3.730  17.021 -0.7676 -0.3950 -0.9403
 1535TIP3    H226021   0.648   3.672  17.077 -0.2389  1.6293  2.4963
 1536TIP3   OH226022   5.230   4.839  16.001 -0.2978 -0.4651  0.0219
 1536TIP3    H126023   5.303   4.812  16.058 -1.0833 -0.0868  1.2243
 1536TIP3    H226024   5.267   4.908  15.947 -0.0288  0.4322  1.3329
 1537TIP3   OH226025   0.325   1.328  16.456 -0.0007 -0.7395 -0.4056
 1537TIP3    H126026   0.406   1.377  16.446 -1.2445  2.1330  2.6190
 1537TIP3    H226027   0.282   1.334  16.370  1.0496  1.2673 -0.8060
 1538TIP3   OH226028   1.867   1.199   5.210 -0.0099 -0.0063  0.4247
 1538TIP3    H126029   1.840   1.138   5.279 -0.6722 -1.7794 -1.3456
 1538TIP3    H226030   1.798   1.264   5.207 -0.7765 -0.8106  0.3999
 1539TIP3   OH226031   6.351   5.056  14.464  0.0380 -0.4836 -0.5131
 1539TIP3    H126032   6.397   5.072  14.381  0.1288 -0.4317 -0.4537
 1539TIP3    H226033   6.277   5.117  14.462 -0.2725 -0.8715 -0.8013
 1540TIP3   OH226034   0.556   2.126  16.908 -0.4549  0.7622 -0.0548
 1540TIP3    H126035   0.508   2.209  16.915 -2.0107 -0.2882  2.6683
 1540TIP3    H226036   0.489   2.059  16.922  1.1543 -0.8897 -0.0983
 1541TIP3   OH226037   5.802   3.412  14.653  0.6349  0.1024 -0.1214
 1541TIP3    H126038   5.768   3.481  14.711 -1.1625 -0.6027 -0.3105
 1541TIP3    H226039   5.742   3.338  14.666  1.0264 -0.5383 -1.8630
 1542TIP3   OH226040   1.611   1.879  12.892  0.6029 -0.4079 -0.3576
 1542TIP3    H126041   1.563   1.842  12.967  0.3926  1.0462  0.2401
 1542TIP3    H226042   1.679   1.815  12.873 -0.6864 -1.8154 -0.2914
 1543TIP3   OH226043   0.114   6.581   2.153  0.4873 -0.0626  0.6420
 1543TIP3    H126044   0.038   6.625   2.193  0.2568  1.3851 -1.3067
 1543TIP3    H226045   0.078   6.501   2.116 -0.1156  0.6606 -0.3487
 1544TIP3   OH226046   0.479   4.481   5.986 -0.2631  0.2240 -0.4065
 1544TIP3    H126047   0.550   4.525   5.939 -0.6980  0.3702 -0.9289
 1544TIP3    H226048   0.508   4.480   6.077  0.4233  0.2612 -0.6217
 1545TIP3   OH226049   3.850   6.306  15.221  0.4836  0.0385  0.0979
 1545TIP3    H126050   3.939   6.318  15.189  0.1858  2.6006  0.1325
 1545TIP3    H226051   3.846   6.214  15.248  2.5005 -0.6232 -1.7135
 1546TIP3   OH226052   6.495   1.812   5.022 -0.5801 -0.1001 -0.3719
 1546TIP3    H126053   6.561   1.881   5.027  1.2445 -1.8328  0.7243
 1546TIP3    H226054   6.453   1.812   5.108 -2.8322  1.7364 -1.4408
 1547TIP3   OH226055   2.496   4.631   4.563  0.2473 -0.5055  0.2127
 1547TIP3    H126056   2.519   4.713   4.519 -0.3331  1.3060  3.1579
 1547TIP3    H226057   2.568   4.571   4.541  0.0087  0.3309 -3.0800
 1548TIP3   OH226058   1.765   5.916  10.939  0.5216  0.0582 -0.2583
 1548TIP3    H126059   1.777   5.906  10.844  1.1327  2.4900 -0.4486
 1548TIP3    H226060   1.677   5.953  10.947  0.1105 -0.9791  0.2107
 1549TIP3   OH226061   5.086   0.884   2.031 -0.0138  0.3573 -0.0211
 1549TIP3    H126062   5.083   0.924   2.117 -0.2871  0.0111  0.1313
 1549TIP3    H226063   5.152   0.934   1.983 -0.8564  1.4534 -0.0675
 1550TIP3   OH226064   3.216   5.007   4.952 -0.0417 -0.3165  0.2659
 1550TIP3    H126065   3.280   5.075   4.972  0.5266 -0.8203  0.1647
 1550TIP3    H226066   3.149   5.051   4.901  0.0336  0.3009  0.6998
 1551TIP3   OH226067   6.296   6.108  11.290  0.3127 -0.4422 -0.1385
 1551TIP3    H126068   6.210   6.089  11.326  0.1944  0.2972 -0.0231
 1551TIP3    H226069   6.285   6.102  11.195  0.2115 -0.6709 -0.1111
 1552TIP3   OH226070   1.821   1.173   0.217 -0.2531  0.1912 -0.2416
 1552TIP3    H126071   1.850   1.206   0.303 -1.3773  1.2886 -0.2617
 1552TIP3    H226072   1.862   1.087   0.209  1.6049  0.9718  0.4615
 1553TIP3   OH226073   0.494   5.036   0.622  0.3882 -0.9035  0.0571
 1553TIP3    H126074   0.536   5.049   0.537  0.2281  0.6592  0.1986
 1553TIP3    H226075   0.546   5.088   0.683 -0.3531 -0.8375  0.6465
 1554TIP3   OH226076   5.720   3.511  16.986 -0.1174  0.0158 -0.3012
 1554TIP3    H126077   5.778   3.580  17.018 -0.1677 -0.1254  0.0996
 1554TIP3    H226078   5.750   3.432  17.030 -1.7693  0.2753  1.3351
 1555TIP3   OH226079   3.000   0.142  11.829  0.0809  0.0703  0.0307
 1555TIP3    H126080   2.941   0.129  11.755  0.8305  3.9077 -1.3867
 1555TIP3    H226081   2.956   0.207  11.884  1.2868  0.1810  0.8910
 1556TIP3   OH226082   5.840   3.278  10.804 -0.0287 -0.4658  0.0848
 1556TIP3    H126083   5.782   3.334  10.856  0.2527 -0.0959  0.0005
 1556TIP3    H226084   5.928   3.309  10.823  0.0293  0.2818 -1.2954
 1557TIP3   OH226085   5.003   2.299  11.542 -0.3564  0.2188 -0.0459
 1557TIP3    H126086   4.976   2.301  11.634 -0.2773  0.9354 -0.0366
 1557TIP3    H226087   5.096   2.318  11.543  0.0765 -1.7485 -0.1244
 1558TIP3   OH226088   6.030   5.768  12.273 -0.1544 -0.2986  0.1567
 1558TIP3    H126089   6.010   5.802  12.360  1.3654 -1.0224  0.8245
 1558TIP3    H226090   6.118   5.732  12.282  0.2186  0.0702 -1.8250
 1559TIP3   OH226091   3.376   1.043   4.295 -0.2668 -0.2828  0.1598
 1559TIP3    H126092   3.393   0.950   4.279  0.6492  0.2138 -1.8792
 1559TIP3    H226093   3.462   1.085   4.294 -0.7232  0.6897  0.4513
 1560TIP3   OH226094   4.512   2.769   2.076 -0.3343 -0.1049  0.8246
 1560TIP3    H126095   4.500   2.782   1.982 -0.3279 -2.4235  0.4592
 1560TIP3    H226096   4.423   2.774   2.112 -0.7663 -2.3792  0.2076
 1561TIP3   OH226097   6.068   4.506  13.388  0.2121  0.6230 -0.6784
 1561TIP3    H126098   6.143   4.471  13.340  0.6748 -0.0643  0.5241
 1561TIP3    H226099   6.010   4.540  13.320  0.3426 -1.3389 -1.8191
 1562TIP3   OH226100   0.569   4.116  12.823 -0.2010 -0.1224 -0.3790
 1562TIP3    H126101   0.571   4.143  12.915  1.8052  2.1001 -1.0219
 1562TIP3    H226102   0.625   4.039  12.820 -0.1905 -0.1488  0.2396
 1563TIP3   OH226103   2.200   1.702   5.289 -0.5373  0.5601  0.5846
 1563TIP3    H126104   2.181   1.781   5.341  0.9383  0.2398  1.6399
 1563TIP3    H226105   2.124   1.645   5.305  0.4208 -0.0203  3.4010
 1564TIP3   OH226106   2.214   4.722   0.769 -0.0204  0.5912  0.7713
 1564TIP3    H126107   2.181   4.783   0.704  0.6555  0.5089  0.3460
 1564TIP3    H226108   2.172   4.749   0.851 -0.0086  1.3993  0.5156
 1565TIP3   OH226109   0.715   4.281   4.951 -0.0699  0.3465  0.2814
 1565TIP3    H126110   0.664   4.239   5.021 -1.2105 -0.6841 -1.1487
 1565TIP3    H226111   0.708   4.375   4.970 -1.9438  0.1859  0.4940
 1566TIP3   OH226112   2.347   1.516   2.627  0.9112  0.1737  0.1861
 1566TIP3    H126113   2.399   1.533   2.549  0.2279 -1.3391 -0.6232
 1566TIP3    H226114   2.318   1.603   2.656  2.9884  0.9389  0.0546
 1567TIP3   OH226115   6.527   2.746  13.318 -0.3901 -0.0021 -0.2200
 1567TIP3    H126116   6.553   2.714  13.405 -0.6709  0.5540  0.0747
 1567TIP3    H226117   6.509   2.839  13.332 -2.7362 -0.3954 -0.3500
 1568TIP3   OH226118   1.455   1.931   4.803 -0.4972 -0.7578 -0.1145
 1568TIP3    H126119   1.502   1.861   4.757 -0.7313 -0.1034 -1.3797
 1568TIP3    H226120   1.457   1.904   4.895  0.8355 -1.6018 -0.3649
 1569TIP3   OH226121   0.983   2.873  11.921 -0.8462 -0.2662  0.3506
 1569TIP3    H126122   0.996   2.796  11.865  1.4199 -1.5755  2.5697
 1569TIP3    H226123   0.904   2.852  11.972 -2.9217  0.9373 -2.2587
 1570TIP3   OH226124   4.666   1.280  10.149 -0.6588 -0.4295 -0.2059
 1570TIP3    H126125   4.578   1.246  10.133 -1.0878 -0.4852  2.0986
 1570TIP3    H226126   4.661   1.373  10.127 -1.9589  0.0919  2.1759
 1571TIP3   OH226127   3.642   0.065  14.443 -0.1122  0.1721  0.0018
 1571TIP3    H126128   3.688   0.088  14.524  1.0968 -1.3215 -0.2360
 1571TIP3    H226129   3.551   0.055  14.469  0.3315 -0.6556  1.2542
 1572TIP3   OH226130   5.555   4.217   2.301  0.3948  0.2251  0.7100
 1572TIP3    H126131   5.556   4.281   2.229  1.7953  2.4049  2.6055
 1572TIP3    H226132   5.470   4.173   2.293 -0.3623  1.9369 -0.9857
 1573TIP3   OH226133   2.986   6.224   3.843  0.5936  0.2772  0.0112
 1573TIP3    H126134   2.953   6.314   3.834 -0.7767 -0.1549  0.7066
 1573TIP3    H226135   2.910   6.172   3.868  1.4918 -0.9988  0.1426
 1574TIP3   OH226136   2.837   5.733  16.476  0.2821  0.2331 -0.4613
 1574TIP3    H126137   2.893   5.715  16.401 -0.8118 -0.2920 -1.1753
 1574TIP3    H226138   2.864   5.819  16.507  0.3708  0.7032 -1.8145
 1575TIP3   OH226139   1.578   0.347   1.111  0.5366 -0.5506 -0.2947
 1575TIP3    H126140   1.655   0.403   1.116  0.4954 -0.5033 -0.1752
 1575TIP3    H226141   1.572   0.321   1.019  0.5393 -0.3380 -0.3546
 1576TIP3   OH226142   5.969   2.897  14.884  0.4839 -0.5626  0.0371
 1576TIP3    H126143   5.911   2.949  14.828 -1.5806  0.7967  3.3236
 1576TIP3    H226144   5.961   2.936  14.971  1.8545 -4.0067  1.8104
 1577TIP3   OH226145   0.443   1.184  13.039 -0.4331 -0.0422 -0.3062
 1577TIP3    H126146   0.383   1.120  13.076  1.7748 -1.4810  0.9119
 1577TIP3    H226147   0.450   1.160  12.946 -2.4912  0.7793 -0.6864
 1578TIP3   OH226148   6.310   0.916  11.421  0.0589 -0.0263  0.1284
 1578TIP3    H126149   6.264   0.905  11.337 -0.0773  0.3719  0.1530
 1578TIP3    H226150   6.280   0.842  11.474 -1.2001  0.6913  0.4362
 1579TIP3   OH226151   2.858   3.125  16.211 -0.4173  0.1704  0.1880
 1579TIP3    H126152   2.784   3.178  16.180 -0.2487  0.6938  0.6819
 1579TIP3    H226153   2.843   3.114  16.304 -0.7284 -1.1064  0.0024
 1580TIP3   OH226154   5.227   5.044  13.595  0.4803 -0.0521  0.4975
 1580TIP3    H126155   5.146   5.076  13.634 -0.0785 -0.6491 -0.1602
 1580TIP3    H226156   5.242   5.101  13.520  0.5704 -0.0572  0.5111
 1581TIP3   OH226157   5.244   2.338  12.240 -0.1909 -0.1726  0.0719
 1581TIP3    H126158   5.319   2.279  12.233 -1.1755 -1.3073 -1.2515
 1581TIP3    H226159   5.205   2.319  12.325  0.3831 -0.3550  0.2929
 1582TIP3   OH226160   2.023   5.056  11.092 -0.2505 -0.3781 -0.1205
 1582TIP3    H126161   1.968   5.080  11.018 -2.6780 -0.2921  1.6666
 1582TIP3    H226162   2.010   4.961  11.102 -0.7701 -0.2126  0.8418
 1583TIP3   OH226163   0.714   6.639   3.707  0.3088 -0.2511 -0.0062
 1583TIP3    H126164   0.699   6.557   3.754 -0.1245 -0.9766 -1.3895
 1583TIP3    H226165   0.754   6.613   3.625  2.1532  1.1013  0.4305
 1584TIP3   OH226166   3.956   1.405   2.222 -0.4664  0.5036 -0.1578
 1584TIP3    H126167   3.952   1.488   2.174  1.4307  0.2095 -0.8765
 1584TIP3    H226168   4.007   1.348   2.165  1.8192  0.1156  2.1985
 1585TIP3   OH226169   4.204   5.755  12.852  0.6385  0.1911  0.2579
 1585TIP3    H126170   4.272   5.762  12.919 -0.0471 -0.4872  1.0348
 1585TIP3    H226171   4.238   5.690  12.791  1.6392  1.4166 -0.5181
 1586TIP3   OH226172   1.886   5.128   0.377 -0.3627  0.6093 -0.0879
 1586TIP3    H126173   1.809   5.162   0.330 -0.1115  2.7220  0.9743
 1586TIP3    H226174   1.868   5.146   0.469  1.5129  1.3135  0.1528
 1587TIP3   OH226175   6.286   3.223  15.578  0.6350  0.0242 -0.1929
 1587TIP3    H126176   6.314   3.216  15.486  2.5224 -1.4598  0.4651
 1587TIP3    H226177   6.191   3.214  15.574  0.8439 -1.8710 -1.8479
 1588TIP3   OH226178   6.735   5.256   2.425  0.1165 -0.2993 -0.3079
 1588TIP3    H126179   6.738   5.175   2.373  1.9140 -1.4780  1.5554
 1588TIP3    H226180   6.667   5.239   2.490 -1.3016  0.7174 -1.4851
 1589TIP3   OH226181   5.576   0.852   4.039 -0.1197 -0.2403  0.3463
 1589TIP3    H126182   5.549   0.783   3.979  0.8501  0.1496 -0.5554
 1589TIP3    H226183   5.565   0.814   4.126  2.5975 -2.3709 -0.1751
 1590TIP3   OH226184   1.578   3.728   1.353 -0.2616 -0.1479 -0.2028
 1590TIP3    H126185   1.501   3.780   1.377  0.1631  0.7933 -0.8742
 1590TIP3    H226186   1.605   3.762   1.268  1.1556 -0.1894  0.2181
 1591TIP3   OH226187   6.420   1.293   1.379  0.2606 -0.1821 -0.3265
 1591TIP3    H126188   6.445   1.254   1.295  0.5536 -0.6589 -0.0198
 1591TIP3    H226189   6.381   1.221   1.429 -1.5396  0.4970 -0.7099
 1592TIP3   OH226190   5.946   4.231  14.073 -0.7301  0.7399  0.0076
 1592TIP3    H126191   5.852   4.239  14.061 -0.5927  0.4413 -1.3406
 1592TIP3    H226192   5.956   4.203  14.164 -1.9409  0.6559  0.1232
 1593TIP3   OH226193   5.568   4.891   5.771  0.1717  0.3242  0.5223
 1593TIP3    H126194   5.584   4.956   5.702 -0.4049  0.2173  0.2870
 1593TIP3    H226195   5.588   4.938   5.852 -0.3890  0.8423  0.3614
 1594TIP3   OH226196   0.338   1.299  17.140 -0.4027  0.1267  0.4270
 1594TIP3    H126197   0.409   1.242  17.173 -1.4263 -0.8359  0.9979
 1594TIP3    H226198   0.333   1.279  17.047  0.5238  0.6891  0.2470
 1595TIP3   OH226199   0.888   1.115   5.583 -0.7067  0.0968  0.2920
 1595TIP3    H126200   0.851   1.129   5.496 -1.4642 -0.6021  0.4951
 1595TIP3    H226201   0.882   1.201   5.626 -2.3171 -0.0574  0.4002
 1596TIP3   OH226202   1.250   4.318   4.775  0.6095  0.5085 -0.3770
 1596TIP3    H126203   1.327   4.375   4.776  1.8600 -1.1366 -0.8319
 1596TIP3    H226204   1.226   4.309   4.867  1.5653  0.2314 -0.1467
 1597TIP3   OH226205   2.529   1.142  16.366 -0.4555  0.4678 -0.1927
 1597TIP3    H126206   2.437   1.165  16.355 -1.3585 -1.9305  1.9643
 1597TIP3    H226207   2.556   1.188  16.446 -0.3693 -0.4850  0.3303
 1598TIP3   OH226208   0.700   4.474  14.245 -0.0751 -0.0181 -0.1151
 1598TIP3    H126209   0.705   4.502  14.336 -0.7210  1.0612 -0.3998
 1598TIP3    H226210   0.606   4.465  14.228 -0.0502  1.4363 -1.1492
 1599TIP3   OH226211   5.766   3.308   4.530 -0.1075  0.0462 -0.0712
 1599TIP3    H126212   5.717   3.328   4.609 -0.3010 -0.3405 -0.0930
 1599TIP3    H226213   5.850   3.273   4.562  0.4680  1.4173 -0.0265
 1600TIP3   OH226214   4.288   4.769   3.032  0.4777 -0.2550 -0.3609
 1600TIP3    H126215   4.298   4.851   3.081 -0.1082  0.5543 -1.5701
 1600TIP3    H226216   4.216   4.724   3.074  1.6591 -0.7695  1.1468
 1601TIP3   OH226217   6.644   1.063  10.770  0.2805  0.1570  0.2154
 1601TIP3    H126218   6.557   1.038  10.740  0.9246 -0.8611 -0.8697
 1601TIP3    H226219   6.700   1.048  10.694  1.0993  2.5783  0.3242
 1602TIP3   OH226220   1.643   2.398  11.680  0.1222 -0.1212 -0.2219
 1602TIP3    H126221   1.707   2.452  11.633  0.3837 -1.0502 -0.9683
 1602TIP3    H226222   1.573   2.459  11.705  0.9995  0.7853  0.0453
 1603TIP3   OH226223   4.427   0.120  11.606  0.0630 -0.2605 -0.7108
 1603TIP3    H126224   4.348   0.084  11.646  1.0881 -1.8639 -0.0791
 1603TIP3    H226225   4.397   0.199  11.561 -2.3358 -2.0761 -2.4554
 1604TIP3   OH226226   1.407   3.874   6.494 -0.0227 -0.5602  0.3959
 1604TIP3    H126227   1.317   3.854   6.469  0.2054 -0.7386 -0.3124
 1604TIP3    H226228   1.429   3.808   6.559  0.1012 -1.4915 -0.5616
 1605TIP3   OH226229   4.802   1.796  13.829 -0.0261 -0.2224  0.2574
 1605TIP3    H126230   4.843   1.835  13.906  2.3742 -1.6307 -0.2407
 1605TIP3    H226231   4.748   1.866  13.792  3.6136  2.4849 -0.2409
 1606TIP3   OH226232   5.610   0.220   5.713 -0.2788 -0.6682 -0.4510
 1606TIP3    H126233   5.698   0.246   5.687 -0.6325  1.5625  0.4633
 1606TIP3    H226234   5.624   0.147   5.774  0.9543 -0.0754 -0.0101
 1607TIP3   OH226235   3.545   3.867   0.745 -0.0020 -0.4064  0.3955
 1607TIP3    H126236   3.639   3.884   0.751 -0.0036 -0.0745 -0.3474
 1607TIP3    H226237   3.539   3.786   0.694 -0.1150 -0.3846  0.3748
 1608TIP3   OH226238   2.460   3.385   6.388  0.1046 -0.3981  0.5927
 1608TIP3    H126239   2.429   3.345   6.307 -1.0668  1.8633 -0.1143
 1608TIP3    H226240   2.524   3.323   6.422  1.0513 -1.1062 -2.3425
 1609TIP3   OH226241   0.258   5.045   5.522  0.1121 -0.4059  0.1874
 1609TIP3    H126242   0.295   5.121   5.566 -1.1377  0.6245 -0.4935
 1609TIP3    H226243   0.253   5.071   5.430 -0.5696 -1.2126 -0.0148
 1610TIP3   OH226244   0.251   2.290   5.285 -0.1683  0.1615 -0.5176
 1610TIP3    H126245   0.334   2.245   5.275 -0.1696  0.3695 -1.4716
 1610TIP3    H226246   0.274   2.377   5.316 -0.0638  0.0788 -0.3603
 1611TIP3   OH226247   2.088   1.745   0.249 -0.3347 -0.1863 -0.3631
 1611TIP3    H126248   2.150   1.789   0.190 -2.0033  0.1062 -1.9208
 1611TIP3    H226249   2.046   1.816   0.297 -1.2173 -0.2145 -1.0773
 1612TIP3   OH226250   1.227   5.519  12.029  0.3548  0.5102  0.1597
 1612TIP3    H126251   1.170   5.449  12.060  0.5154 -0.3836 -1.5148
 1612TIP3    H226252   1.166   5.585  11.994  0.1274  1.9308  3.1041
 1613TIP3   OH226253   4.546   4.417  12.538 -0.3980  0.3347 -0.5434
 1613TIP3    H126254   4.567   4.346  12.478  0.1257  1.1343 -1.3024
 1613TIP3    H226255   4.503   4.373  12.612  0.1909 -0.8025 -0.8663
 1614TIP3   OH226256   5.244   4.105  12.892 -0.5421  0.6189  0.7270
 1614TIP3    H126257   5.283   4.187  12.924 -1.3356  1.2905  0.0025
 1614TIP3    H226258   5.158   4.102  12.932 -1.2119  1.0438 -0.6302
 1615TIP3   OH226259   0.659   0.506  16.292 -0.4960 -0.1207  0.1468
 1615TIP3    H126260   0.658   0.414  16.317  0.4030 -0.3423 -0.6271
 1615TIP3    H226261   0.701   0.508  16.206 -0.2389  1.0377  0.2864
 1616TIP3   OH226262   6.520   0.988   5.270 -0.4054  0.1975 -0.5216
 1616TIP3    H126263   6.605   0.958   5.300  0.2780  1.6488 -0.9552
 1616TIP3    H226264   6.527   1.083   5.268 -2.2326  0.3725  0.0158
 1617TIP3   OH226265   5.053   5.946   2.607  0.1081 -0.1368 -0.5423
 1617TIP3    H126266   5.078   6.027   2.562  0.3395  0.4081  0.5471
 1617TIP3    H226267   5.072   5.877   2.543  1.2940  0.5471 -0.9545
 1618TIP3   OH226268   2.853   4.063   0.580 -0.1360  0.0140  0.0667
 1618TIP3    H126269   2.827   4.012   0.504  0.8739  1.1359 -1.0671
 1618TIP3    H226270   2.941   4.095   0.559  1.4863 -2.2066  3.0302
 1619TIP3   OH226271   5.462   6.601  12.928 -0.1520 -0.5240 -0.5574
 1619TIP3    H126272   5.433   6.662  12.861 -0.2559  0.8481  0.7181
 1619TIP3    H226273   5.427   6.636  13.010 -0.4319 -2.4298  0.1724
 1620TIP3   OH226274   2.676   3.891  14.183  0.1702 -0.4059 -0.0088
 1620TIP3    H126275   2.583   3.912  14.196  0.2699 -0.2668  0.4772
 1620TIP3    H226276   2.717   3.975  14.164  0.3391 -0.3402  0.6169
 1621TIP3   OH226277   1.757   3.370   3.282 -0.0322 -0.2182 -0.3839
 1621TIP3    H126278   1.697   3.350   3.354  0.9902  0.9360  0.8100
 1621TIP3    H226279   1.758   3.465   3.276  1.8947 -0.1843 -0.1512
 1622TIP3   OH226280   6.714   6.351  17.178  0.0143 -0.1641 -0.0336
 1622TIP3    H126281   6.752   6.278  17.227  0.3900  0.5428  0.7480
 1622TIP3    H226282   6.708   6.320  17.088  2.7332 -0.1859 -0.2432
 1623TIP3   OH226283   1.592   0.768  13.963 -0.3060  0.2617  0.8846
 1623TIP3    H126284   1.637   0.845  13.928  0.3562  0.1916  1.5663
 1623TIP3    H226285   1.508   0.767  13.918  0.8262 -0.2752 -1.2958
 1624TIP3   OH226286   5.415   4.327  13.637  0.0310  0.2667 -0.0131
 1624TIP3    H126287   5.433   4.289  13.552  1.1710  0.5432  0.1006
 1624TIP3    H226288   5.456   4.414  13.634 -0.8347  0.7058  0.4349
 1625TIP3   OH226289   6.077   3.705  11.863  0.2645  0.1878 -0.6687
 1625TIP3    H126290   6.015   3.643  11.901  0.0027  0.7140 -0.2235
 1625TIP3    H226291   6.060   3.701  11.768 -0.9822  0.8860 -0.4887
 1626TIP3   OH226292   3.380   5.673   0.420  0.3076 -0.1300 -0.4005
 1626TIP3    H126293   3.293   5.686   0.382  0.6607  1.5276 -0.6922
 1626TIP3    H226294   3.385   5.579   0.438 -1.0060 -0.4597 -1.6788
 1627TIP3   OH226295   2.132   1.274  12.467  0.3023  0.1162  0.1172
 1627TIP3    H126296   2.112   1.359  12.506  0.5255 -0.1328  0.7726
 1627TIP3    H226297   2.048   1.245  12.430 -0.0011  0.1774  0.7492
 1628TIP3   OH226298   5.240   4.472  12.578  0.2272 -0.0963  0.2754
 1628TIP3    H126299   5.168   4.533  12.569 -0.0111 -0.0157  2.3742
 1628TIP3    H226300   5.267   4.452  12.488 -0.4174  2.2048 -0.4569
 1629TIP3   OH226301   2.051   5.396  12.684 -0.6169 -0.7483 -0.5824
 1629TIP3    H126302   2.038   5.446  12.604  0.4449  0.1397 -0.2248
 1629TIP3    H226303   1.964   5.365  12.709 -1.7409  3.1438  0.6005
 1630TIP3   OH226304   1.080   0.126  12.997  0.1658 -0.1432 -0.1594
 1630TIP3    H126305   1.089   0.052  12.937 -0.2067  1.1047 -1.7991
 1630TIP3    H226306   0.992   0.159  12.981  1.0888  1.9923 -1.0385
 1631TIP3   OH226307   2.928   3.102  13.303 -0.0119 -0.4494 -0.2506
 1631TIP3    H126308   2.854   3.056  13.343 -0.2070 -1.3521 -1.5900
 1631TIP3    H226309   2.888   3.178  13.260 -0.1293 -0.7674 -0.7125
 1632TIP3   OH226310   6.224   6.150  14.836 -0.7176 -0.1997 -0.1254
 1632TIP3    H126311   6.133   6.167  14.861 -0.7147 -0.2611 -0.0744
 1632TIP3    H226312   6.275   6.215  14.884 -0.6316 -0.8668  0.6792
 1633TIP3   OH226313   3.774   6.033  11.810  0.7525 -0.3106  0.3492
 1633TIP3    H126314   3.774   5.941  11.782 -0.4461  0.0267 -0.8625
 1633TIP3    H226315   3.718   6.077  11.745 -0.8657  0.8047  2.4572
 1634TIP3   OH226316   0.669   5.146   3.927 -0.6560 -0.1077  0.1520
 1634TIP3    H126317   0.675   5.154   4.022  0.4055  0.3232  0.0621
 1634TIP3    H226318   0.622   5.225   3.899  1.1186  0.9791  0.1316
 1635TIP3   OH226319   0.761   5.169  13.342  0.3546  0.5378  0.0349
 1635TIP3    H126320   0.847   5.188  13.380  0.2281 -0.3393  0.7508
 1635TIP3    H226321   0.709   5.134  13.414  0.3736 -1.9345 -1.0964
 1636TIP3   OH226322   3.688   0.597  13.111 -0.3078 -0.4391 -0.0548
 1636TIP3    H126323   3.723   0.579  13.199 -1.2714 -2.1449  0.0121
 1636TIP3    H226324   3.750   0.555  13.051  0.1066  0.3292 -0.1593
 1637TIP3   OH226325   3.277   3.769  10.794  0.9400  0.4126  0.0551
 1637TIP3    H126326   3.342   3.699  10.782  1.2344  0.6191  0.4369
 1637TIP3    H226327   3.294   3.802  10.882  0.0424  0.1880  0.3143
 1638TIP3   OH226328   1.233   2.851   6.489  0.1383 -0.2719 -0.3914
 1638TIP3    H126329   1.236   2.893   6.575 -0.2398 -3.9503  1.5189
 1638TIP3    H226330   1.319   2.869   6.451  0.7215  0.4491  1.2218
 1639TIP3   OH226331   2.989   2.104  12.571  0.3875 -0.4118  0.0442
 1639TIP3    H126332   3.049   2.030  12.564  1.2693  0.1631  1.2549
 1639TIP3    H226333   2.919   2.073  12.629  0.0566 -0.7352 -0.5249
 1640TIP3   OH226334   3.349   4.282   2.971 -0.2359 -0.1464  0.4916
 1640TIP3    H126335   3.315   4.363   3.010  0.0747  0.4256 -0.4068
 1640TIP3    H226336   3.358   4.222   3.045  0.2816  0.8934  1.2851
 1641TIP3   OH226337   3.442   5.531  16.147  0.0760  0.0168  0.5893
 1641TIP3    H126338   3.347   5.535  16.157  0.1711 -0.4389  1.7370
 1641TIP3    H226339   3.470   5.623  16.148 -0.5753  0.2974 -2.2427
 1642TIP3   OH226340   4.357   2.734   5.575  0.3068 -0.3377 -0.4873
 1642TIP3    H126341   4.332   2.799   5.640  1.6306  2.2072 -2.3928
 1642TIP3    H226342   4.335   2.775   5.491  1.8716 -2.0430 -1.7681
 1643TIP3   OH226343   0.774   3.455   6.399  0.0802 -0.3513  0.9705
 1643TIP3    H126344   0.845   3.419   6.452  0.9789 -1.9801 -1.2708
 1643TIP3    H226345   0.740   3.380   6.350 -0.7743  1.0993 -0.6964
 1644TIP3   OH226346   5.984   2.327  10.947  0.7481  0.1420  0.0195
 1644TIP3    H126347   5.922   2.332  11.019  1.5883 -1.7157  0.9083
 1644TIP3    H226348   5.931   2.304  10.871  0.1150  0.1346  0.4608
 1645TIP3   OH226349   6.408   2.555  12.567  0.0144 -0.2844  0.2636
 1645TIP3    H126350   6.472   2.485  12.579 -0.5274 -0.9105 -0.4333
 1645TIP3    H226351   6.331   2.511  12.532 -0.3383  0.6657 -0.1644
 1646TIP3   OH226352   3.264   6.241  15.876  0.1903 -0.0541  0.0367
 1646TIP3    H126353   3.306   6.254  15.791  0.0128 -2.2605 -0.4272
 1646TIP3    H226354   3.173   6.220  15.854  0.0156 -0.0901  0.7980
 1647TIP3   OH226355   5.559   1.260  15.001 -0.1189 -0.3064  0.1114
 1647TIP3    H126356   5.529   1.196  15.066 -1.7666  1.1199  0.7971
 1647TIP3    H226357   5.479   1.288  14.956  0.5768  1.3040 -0.1522
 1648TIP3   OH226358   2.431   1.393   4.203 -0.0107  0.0724 -0.5401
 1648TIP3    H126359   2.357   1.404   4.144 -0.0133 -1.8661 -0.9608
 1648TIP3    H226360   2.471   1.310   4.175  0.8353 -0.1546  1.2720
 1649TIP3   OH226361   3.747   0.086   1.196  0.1531  0.2797 -0.1611
 1649TIP3    H126362   3.710   0.063   1.111  1.2087  0.2413 -0.6224
 1649TIP3    H226363   3.741   0.182   1.200  1.8711  0.4608 -1.1411
 1650TIP3   OH226364   3.608   4.614   6.200 -0.2593  0.1687 -0.1104
 1650TIP3    H126365   3.632   4.672   6.272 -0.9529 -1.2601  1.3142
 1650TIP3    H226366   3.585   4.531   6.243 -0.2825 -0.8373 -2.0115
 1651TIP3   OH226367   2.950   5.509  11.758  0.3023 -0.2943 -0.8306
 1651TIP3    H126368   3.021   5.475  11.812  0.3651 -0.4659 -1.0247
 1651TIP3    H226369   2.910   5.577  11.812  1.2062  0.4503 -1.0997
 1652TIP3   OH226370   0.615   1.706  12.647  0.6268  0.0824  0.7138
 1652TIP3    H126371   0.628   1.798  12.669  1.4545  0.0096  0.5304
 1652TIP3    H226372   0.603   1.706  12.552  0.6146  0.0044  0.7149
 1653TIP3   OH226373   4.479   0.668  15.074  0.0408 -0.2399  0.2089
 1653TIP3    H126374   4.500   0.588  15.025  1.2624 -0.7161  1.4557
 1653TIP3    H226375   4.458   0.637  15.162  1.0121  0.8571  0.8397
 1654TIP3   OH226376   6.114   4.892  13.238  0.7701  0.0839 -0.3842
 1654TIP3    H126377   6.101   4.812  13.187  0.1800  1.7712 -2.9612
 1654TIP3    H226378   6.174   4.945  13.185  1.3894  1.2321  1.4189
 1655TIP3   OH226379   6.600   5.258  12.563 -0.2498  0.0278  0.0944
 1655TIP3    H126380   6.690   5.242  12.592 -0.2948  0.0573  0.2508
 1655TIP3    H226381   6.563   5.315  12.631 -1.0745 -1.7422  1.1581
 1656TIP3   OH226382   4.911   5.671   4.145  0.2333 -0.1815  0.0667
 1656TIP3    H126383   4.930   5.722   4.066 -0.2090  1.8799  1.2597
 1656TIP3    H226384   4.843   5.721   4.190 -1.4577 -2.6929  0.4579
 1657TIP3   OH226385   5.796   3.517   4.809  0.2048 -0.0507 -0.6356
 1657TIP3    H126386   5.729   3.451   4.827 -1.8527  2.6851  2.4190
 1657TIP3    H226387   5.751   3.584   4.758  0.8556  1.3180  0.5501
 1658TIP3   OH226388   6.559   3.868  10.941 -0.3058  0.0002  0.3236
 1658TIP3    H126389   6.614   3.864  10.863 -0.0556  0.4680  0.4778
 1658TIP3    H226390   6.555   3.777  10.972 -0.6434 -0.2402 -0.3914
 1659TIP3   OH226391   5.637   4.899   1.971 -0.4137 -0.7584  0.0867
 1659TIP3    H126392   5.573   4.939   2.030 -0.9711 -1.1428 -0.2524
 1659TIP3    H226393   5.652   4.812   2.008 -0.7758 -1.0050 -0.3379
 1660TIP3   OH226394   2.223   3.998  11.575 -0.0636 -0.7058  0.0041
 1660TIP3    H126395   2.289   4.068  11.573  0.2054 -0.9427  0.5545
 1660TIP3    H226396   2.149   4.033  11.525  0.3649 -0.3222 -0.3606
 1661TIP3   OH226397   2.379   0.301  13.419  0.0328  0.3011  0.5024
 1661TIP3    H126398   2.412   0.389  13.437  2.1196 -0.3539 -0.0312
 1661TIP3    H226399   2.456   0.245  13.425 -0.8468 -1.1790 -1.5053
 1662TIP3   OH226400   4.217   3.296   0.017 -0.4670  0.2628  0.6607
 1662TIP3    H126401   4.138   3.242   0.013 -1.7132  2.0113  1.0046
 1662TIP3    H226402   4.244   3.291   0.109 -0.1401 -0.3547  0.5373
 1663TIP3   OH226403   4.876   4.371   6.610  0.9456  0.1324 -0.0224
 1663TIP3    H126404   4.857   4.448   6.558 -0.7630 -0.0702  0.2688
 1663TIP3    H226405   4.825   4.383   6.690  0.4198 -1.4351 -0.1082
 1664TIP3   OH226406   4.299   1.013  17.233  0.4570 -0.0714 -0.4249
 1664TIP3    H126407   4.248   0.972  17.302  0.3512 -0.1009 -0.5184
 1664TIP3    H226408   4.386   1.027  17.271  0.4287 -0.1824 -0.3188
 1665TIP3   OH226409   4.423   4.468   0.381  0.1733 -0.0744  0.0672
 1665TIP3    H126410   4.435   4.386   0.429 -2.5211 -0.2241  0.5621
 1665TIP3    H226411   4.395   4.531   0.447 -1.7912  0.1791 -0.9631
 1666TIP3   OH226412   0.519   2.898  15.170  0.1923 -0.0199  0.0010
 1666TIP3    H126413   0.600   2.850  15.186  0.2348 -0.2546 -0.9364
 1666TIP3    H226414   0.462   2.874  15.243  0.6425 -0.5533  0.1751
 1667TIP3   OH226415   0.004   2.610   6.653 -0.1588 -0.1270 -0.8202
 1667TIP3    H126416  -0.054   2.673   6.697  0.9885  1.4118 -1.4689
 1667TIP3    H226417  -0.053   2.536   6.633 -1.6071  0.8076 -0.2685
 1668TIP3   OH226418   1.682   2.821  11.478 -0.3698  0.2885 -0.1691
 1668TIP3    H126419   1.740   2.865  11.540 -0.7286 -1.5380  1.5383
 1668TIP3    H226420   1.596   2.826  11.519 -0.7448 -0.2872 -0.8830
 1669TIP3   OH226421   6.513   4.099  13.882  0.2660 -0.0146 -0.4643
 1669TIP3    H126422   6.567   4.064  13.952 -0.1337 -1.6558 -0.9546
 1669TIP3    H226423   6.462   4.169  13.923  1.4672  0.3581  0.4048
 1670TIP3   OH226424   4.545   2.925   5.026 -0.3109  0.6797 -0.1602
 1670TIP3    H126425   4.624   2.926   5.080  0.1308 -1.0546 -0.7338
 1670TIP3    H226426   4.545   2.838   4.985 -3.1837  0.1586  0.8108
 1671TIP3   OH226427   3.885   2.910   5.624 -0.8729  0.0237  0.3707
 1671TIP3    H126428   3.877   2.825   5.667  0.4950 -0.5940 -0.5782
 1671TIP3    H226429   3.928   2.966   5.689 -0.5269 -0.3898  0.4972
 1672TIP3   OH226430   2.483   1.929   3.644  0.1881 -0.5124 -0.2240
 1672TIP3    H126431   2.392   1.925   3.617 -0.0770  0.0248  0.5704
 1672TIP3    H226432   2.499   2.021   3.661  0.4831 -0.7792  0.9677
 1673TIP3   OH226433   0.492   3.480  15.551 -0.3509  0.0682 -0.2464
 1673TIP3    H126434   0.402   3.448  15.553 -0.7811  1.1951 -1.1945
 1673TIP3    H226435   0.484   3.573  15.530  1.0868 -0.0682 -1.4147
 1674TIP3   OH226436   4.012   6.390   5.415  1.2323 -0.7070  0.0999
 1674TIP3    H126437   4.054   6.366   5.498 -0.1014  1.1190  1.3279
 1674TIP3    H226438   4.031   6.483   5.404 -1.2685 -0.1822 -0.0224
 1675TIP3   OH226439   0.583   1.073   1.262 -0.1837 -0.0835 -0.0683
 1675TIP3    H126440   0.605   1.160   1.228 -0.3572 -0.2618 -0.6499
 1675TIP3    H226441   0.610   1.013   1.192 -3.2112 -0.2768 -1.1511
 1676TIP3   OH226442   5.568   6.452   0.766  0.6351  0.1069  0.1686
 1676TIP3    H126443   5.565   6.422   0.675  0.5148 -0.9636  0.5080
 1676TIP3    H226444   5.603   6.541   0.762 -1.1797  0.7836 -1.0986
 1677TIP3   OH226445   4.939   6.328   2.731  0.0824  0.0378 -0.3143
 1677TIP3    H126446   4.934   6.246   2.779  0.1944 -0.3745 -1.0016
 1677TIP3    H226447   4.884   6.389   2.781  0.6931 -0.2147  0.6706
 1678TIP3   OH226448   5.421   5.787   1.923 -0.2515 -0.7371 -0.6667
 1678TIP3    H126449   5.336   5.831   1.919 -1.3567 -2.8471 -0.8999
 1678TIP3    H226450   5.462   5.822   2.002 -1.8348 -0.5427  0.0880
 1679TIP3   OH226451   1.112   2.812  15.327 -0.4749  0.1934  0.1937
 1679TIP3    H126452   1.185   2.863  15.361 -0.1702  0.1804 -0.4204
 1679TIP3    H226453   1.135   2.721  15.347 -0.2470  0.1779 -0.1285
 1680TIP3   OH226454   2.150   2.181   5.685 -0.2982 -0.2251 -0.5171
 1680TIP3    H126455   2.081   2.231   5.729 -1.1179 -1.5892 -0.2103
 1680TIP3    H226456   2.134   2.194   5.592  0.4007  1.2803 -0.4397
 1681TIP3   OH226457   0.319   6.324  11.586  0.8069  0.1262 -0.0311
 1681TIP3    H126458   0.396   6.284  11.627  1.8145  1.9245 -0.1008
 1681TIP3    H226459   0.313   6.282  11.501  0.8691 -1.0412  0.5381
 1682TIP3   OH226460   0.170   5.382   5.626 -0.0149  0.3582  0.4491
 1682TIP3    H126461   0.190   5.352   5.538  0.6748  0.5108  0.5514
 1682TIP3    H226462   0.113   5.458   5.613  0.2359  0.4919  0.1270
 1683TIP3   OH226463   1.848   2.194  16.588  0.6569 -0.0825 -0.1038
 1683TIP3    H126464   1.854   2.203  16.683 -0.1376  0.9107 -0.1315
 1683TIP3    H226465   1.939   2.185  16.559  1.0012  0.8342  0.6489
 1684TIP3   OH226466   6.623   1.178  13.343  0.6486  0.4542 -0.1974
 1684TIP3    H126467   6.538   1.138  13.360  1.3237 -1.1059 -0.3817
 1684TIP3    H226468   6.612   1.226  13.262  0.5991 -1.8163 -1.5796
 1685TIP3   OH226469   5.498   0.131   2.269 -0.3021 -0.0348 -0.2055
 1685TIP3    H126470   5.419   0.111   2.217 -1.5509  2.0967  0.8117
 1685TIP3    H226471   5.489   0.077   2.347 -1.0191  0.5801  0.1419
 1686TIP3   OH226472   2.933   0.873   1.167 -0.4874  0.5021 -0.0151
 1686TIP3    H126473   2.909   0.963   1.143  0.3328  0.9301  0.7513
 1686TIP3    H226474   2.865   0.819   1.126 -1.2347  1.5000 -0.1271
 1687TIP3   OH226475   2.931   1.348  12.938 -0.4347 -0.2553  0.0077
 1687TIP3    H126476   2.981   1.430  12.942  1.1675 -1.2944  2.0823
 1687TIP3    H226477   2.977   1.295  12.872 -0.9516  0.1632 -0.6955
 1688TIP3   OH226478   4.567   6.282  13.973 -0.4460  0.8925 -0.1241
 1688TIP3    H126479   4.628   6.221  14.015  0.3371 -0.1490 -2.6343
 1688TIP3    H226480   4.620   6.360  13.955 -0.6392  1.1356  0.3655
 1689TIP3   OH226481   6.706   6.334   2.812  0.0123 -0.4954 -0.4157
 1689TIP3    H126482   6.777   6.396   2.828 -2.0981  1.7737  0.4023
 1689TIP3    H226483   6.678   6.306   2.899 -0.2694 -1.1726 -0.7198
 1690TIP3   OH226484   2.796   5.893   1.145  0.3647 -0.4036  0.0726
 1690TIP3    H126485   2.701   5.880   1.139 -0.2560  3.1714  0.9953
 1690TIP3    H226486   2.825   5.900   1.054 -1.0487  3.2242 -0.1662
 1691TIP3   OH226487   0.180   3.619   2.686 -0.1070  0.4307 -0.2588
 1691TIP3    H126488   0.178   3.684   2.757 -0.2480 -0.1980  0.3178
 1691TIP3    H226489   0.198   3.536   2.730  0.1766  0.0902 -1.0058
 1692TIP3   OH226490   3.895   4.107  11.600 -0.1736  0.0912  0.2196
 1692TIP3    H126491   3.868   4.198  11.588 -0.6904  0.0423  0.9962
 1692TIP3    H226492   3.901   4.072  11.511 -2.9550  0.0276  0.0176
 1693TIP3   OH226493   0.846   4.578  12.291 -0.6214 -0.3709  0.2806
 1693TIP3    H126494   0.802   4.494  12.305  0.1456 -0.7687  0.3551
 1693TIP3    H226495   0.897   4.566  12.212  0.5575 -0.4323  1.0335
 1694TIP3   OH226496   4.007   3.290  16.165  0.3638 -0.2363  0.0412
 1694TIP3    H126497   4.083   3.302  16.108 -0.8278 -0.8707 -1.7064
 1694TIP3    H226498   4.045   3.280  16.253  2.1533  2.1370 -0.4029
 1695TIP3   OH226499   2.784   0.694  12.466 -0.0300 -0.0058 -0.7131
 1695TIP3    H126500   2.805   0.786  12.484 -0.6778 -0.0234  0.1689
 1695TIP3    H226501   2.869   0.651  12.457  0.2783  0.6207 -0.8268
 1696TIP3   OH226502   2.472   3.496   3.992 -0.2038  0.1072  0.2691
 1696TIP3    H126503   2.458   3.416   4.042  1.7811 -0.2870  0.2470
 1696TIP3    H226504   2.527   3.469   3.919 -0.5800  1.2571 -0.4600
 1697TIP3   OH226505   5.144   0.682   4.871  0.3017  0.3743 -0.1656
 1697TIP3    H126506   5.123   0.742   4.800 -0.9000 -1.1106 -1.1185
 1697TIP3    H226507   5.078   0.699   4.938 -1.0667 -0.9814 -1.1330
 1698TIP3   OH226508   1.128   4.114  16.893 -0.4432 -0.2758  0.5683
 1698TIP3    H126509   1.172   4.195  16.867  0.0474 -1.1933 -1.5792
 1698TIP3    H226510   1.035   4.133  16.886 -0.3288 -0.3731 -1.5797
 1699TIP3   OH226511   2.222   2.562  12.238 -0.2779 -0.0020  0.2780
 1699TIP3    H126512   2.298   2.589  12.186 -0.5569  0.7956  0.2909
 1699TIP3    H226513   2.151   2.618  12.208 -0.9582 -0.9716  0.0324
 1700TIP3   OH226514   4.741   0.465   5.771 -0.3357 -0.3688  0.0344
 1700TIP3    H126515   4.775   0.415   5.845  0.7425  2.9300  1.8453
 1700TIP3    H226516   4.665   0.511   5.806 -1.4175 -0.8132 -1.6513
 1701TIP3   OH226517   1.714   5.979  12.046  0.2034  0.2583 -0.0399
 1701TIP3    H126518   1.708   6.023  11.961  2.4473 -1.0746 -0.9293
 1701TIP3    H226519   1.778   6.031  12.095  0.8098 -0.4207 -0.0999
 1702TIP3   OH226520   1.987   2.083   3.532 -0.0963 -0.1448  0.0798
 1702TIP3    H126521   1.973   2.090   3.626 -0.9706 -0.2175 -0.0424
 1702TIP3    H226522   1.982   2.173   3.500  1.1865 -0.0110  0.2333
 1703TIP3   OH226523   0.781   5.316  14.198  0.6753 -0.0922 -0.3949
 1703TIP3    H126524   0.876   5.320  14.197  0.6883  0.5341  1.5314
 1703TIP3    H226525   0.756   5.357  14.281 -1.2395 -0.7101 -0.6406
 1704TIP3   OH226526   5.978   6.668  12.877  0.4483 -0.1634  0.5724
 1704TIP3    H126527   5.886   6.660  12.902  0.1325 -0.4878 -0.6762
 1704TIP3    H226528   6.025   6.670  12.961 -0.6065 -0.9979  1.2024
 1705TIP3   OH226529   5.574   2.041   0.091  0.2006  0.0224 -0.2802
 1705TIP3    H126530   5.586   1.947   0.106 -1.8589 -0.2325 -0.0716
 1705TIP3    H226531   5.517   2.069   0.163  0.0338  1.2475 -0.8838
 1706TIP3   OH226532   0.086   5.092  16.133  0.2534  0.2966  0.0400
 1706TIP3    H126533   0.044   5.013  16.099 -1.9278 -0.3278  3.8958
 1706TIP3    H226534   0.061   5.161  16.071 -0.2193 -1.4844 -1.7918
 1707TIP3   OH226535   1.041   0.503   4.027 -0.0522 -0.2238  0.3353
 1707TIP3    H126536   0.978   0.522   3.957 -0.3130  1.2492  0.9455
 1707TIP3    H226537   1.126   0.524   3.988 -0.2891  1.7077  0.8009
 1708TIP3   OH226538   1.580   0.233  12.018  0.2616 -0.3728  0.0775
 1708TIP3    H126539   1.520   0.298  12.053  1.8864  0.7514  0.8266
 1708TIP3    H226540   1.627   0.200  12.095 -0.9859 -2.9299 -0.1903
 1709TIP3   OH226541   3.764   1.925  12.343 -0.1734  0.1706  0.1435
 1709TIP3    H126542   3.859   1.916  12.350 -0.0120  2.7167  1.8632
 1709TIP3    H226543   3.751   2.012  12.306 -1.8702  0.0350  0.3820
 1710TIP3   OH226544   5.813   5.695   1.719  1.0023  0.0981 -0.0002
 1710TIP3    H126545   5.799   5.715   1.626 -0.8524 -1.9804 -0.2092
 1710TIP3    H226546   5.770   5.610   1.732  1.0743  0.4439  2.8169
 1711TIP3   OH226547   0.334   4.803  16.664 -0.0889  0.1410  0.0544
 1711TIP3    H126548   0.250   4.758  16.670  0.0235 -0.0205  0.4192
 1711TIP3    H226549   0.312   4.891  16.633 -0.4761  0.3512  0.9063
 1712TIP3   OH226550   2.938   5.898  12.604  0.4911 -0.5990 -0.0292
 1712TIP3    H126551   3.018   5.916  12.554  0.2383 -0.3122 -0.3346
 1712TIP3    H226552   2.884   5.845  12.545 -0.4374  0.9898 -0.6303
 1713TIP3   OH226553   4.155   1.613   3.275 -0.3176 -0.1455 -0.2489
 1713TIP3    H126554   4.232   1.597   3.330 -0.3217  0.5814 -0.0320
 1713TIP3    H226555   4.082   1.575   3.324 -0.2400 -0.0027 -0.0244
 1714TIP3   OH226556   2.114   3.287   4.506 -0.1392  0.1105 -0.1436
 1714TIP3    H126557   2.206   3.259   4.503 -0.3051 -0.2602 -2.2308
 1714TIP3    H226558   2.076   3.234   4.577  1.0041 -0.5160  0.0194
 1715TIP3   OH226559   4.892   6.696  16.257  0.2441  0.3702 -0.1065
 1715TIP3    H126560   4.924   6.682  16.168 -1.0744  0.2835 -0.5704
 1715TIP3    H226561   4.797   6.695  16.249  0.1125 -0.4784  1.4446
 1716TIP3   OH226562   5.561   4.976  11.145  0.2608 -0.0694 -0.2619
 1716TIP3    H126563   5.604   5.019  11.219  2.8745  0.3029 -1.9260
 1716TIP3    H226564   5.504   5.043  11.108 -0.4263  0.0011  0.9181
 1717TIP3   OH226565   2.172   5.994  10.802 -0.0335  0.0484  0.0540
 1717TIP3    H126566   2.171   5.901  10.823  0.8394 -0.3377 -1.5258
 1717TIP3    H226567   2.258   6.009  10.763 -0.4995  1.3412 -0.5095
 1718TIP3   OH226568   4.128   1.473  12.110  0.4811  0.3921  0.2122
 1718TIP3    H126569   4.057   1.535  12.128  0.0289  0.1993 -0.8934
 1718TIP3    H226570   4.176   1.467  12.193 -0.0747  1.4447  0.6186
 1719TIP3   OH226571   3.680   4.344  13.633 -0.0142 -0.2043  0.1435
 1719TIP3    H126572   3.698   4.395  13.712 -0.7372 -0.6272  0.5753
 1719TIP3    H226573   3.590   4.314  13.643 -0.6747  1.1146 -1.5983
 1720TIP3   OH226574   0.108   2.766  14.997 -0.2459 -0.5342  0.3157
 1720TIP3    H126575   0.179   2.822  14.964 -0.7694  0.3983  0.7467
 1720TIP3    H226576   0.154   2.690  15.035  0.6805  1.0895  2.5530
 1721TIP3   OH226577   6.612   6.231  15.318  0.1102 -0.3567  0.3869
 1721TIP3    H126578   6.595   6.248  15.410 -1.1844 -1.3454  0.3616
 1721TIP3    H226579   6.529   6.252  15.274  0.6595 -0.0549 -0.5194
 1722TIP3   OH226580   3.883   2.509   3.830 -0.2088 -0.6146 -0.2936
 1722TIP3    H126581   3.855   2.455   3.756  0.5321 -3.5466  1.4787
 1722TIP3    H226582   3.940   2.576   3.791 -1.4106 -0.8850 -2.5897
 1723TIP3   OH226583   5.597   5.195  13.768 -0.2242  0.2580  0.6115
 1723TIP3    H126584   5.664   5.156  13.711 -1.4477  1.6945 -1.9243
 1723TIP3    H226585   5.632   5.280  13.791 -1.3953  1.2898 -1.2673
 1724TIP3   OH226586   2.217   5.401   6.121  0.2498 -0.0368  0.2465
 1724TIP3    H126587   2.238   5.385   6.029  0.2586 -0.0640  0.2527
 1724TIP3    H226588   2.261   5.483   6.142 -0.1012  0.1882  0.1075
 1725TIP3   OH226589   4.863   5.123  11.427  0.0362  0.1216 -0.6053
 1725TIP3    H126590   4.772   5.123  11.396 -0.7652  0.4885  1.6852
 1725TIP3    H226591   4.900   5.203  11.389 -1.2052  1.0645  0.1158
 1726TIP3   OH226592   3.668   2.670   0.547  0.5582  0.9456 -0.3663
 1726TIP3    H126593   3.757   2.704   0.543  1.8880 -2.3171  0.3631
 1726TIP3    H226594   3.632   2.685   0.459  1.7953  2.2652 -0.6589
 1727TIP3   OH226595   1.377   0.757   0.243 -0.3381 -0.0331 -0.3083
 1727TIP3    H126596   1.296   0.708   0.255  0.0556 -0.5594  0.2337
 1727TIP3    H226597   1.390   0.803   0.326 -1.5894  2.3619 -1.3653
 1728TIP3   OH226598   3.780   6.716   2.144  0.1580 -0.0203 -0.4732
 1728TIP3    H126599   3.865   6.750   2.171 -0.3818  1.4196 -0.5132
 1728TIP3    H226600   3.741   6.787   2.092 -1.3826 -0.3608  0.1850
 1729TIP3   OH226601   5.652   6.057  15.577 -0.0509 -0.2104 -0.2238
 1729TIP3    H126602   5.566   6.049  15.535 -0.0712 -1.8863  0.1086
 1729TIP3    H226603   5.664   6.152  15.587 -1.0594  0.1262 -1.8885
 1730TIP3   OH226604   3.609   4.655   3.408 -0.1677  0.3622 -0.1709
 1730TIP3    H126605   3.682   4.645   3.469 -0.4932 -0.8447  0.0402
 1730TIP3    H226606   3.545   4.709   3.455  0.1400  0.5350  0.0484
 1731TIP3   OH226607   0.606   6.086   3.219 -0.1122  0.0188 -0.2568
 1731TIP3    H126608   0.593   6.172   3.180  1.4091  0.3217 -0.1382
 1731TIP3    H226609   0.519   6.059   3.248 -0.5399  1.6927  0.0665
 1732TIP3   OH226610   6.477   5.472  16.922  0.1201 -0.2565 -0.0195
 1732TIP3    H126611   6.445   5.529  16.993 -1.1446 -0.1574 -0.6649
 1732TIP3    H226612   6.532   5.407  16.967  2.0646  1.7878  0.6694
 1733TIP3   OH226613   2.094   2.083   4.947 -0.3111  0.0071 -0.5070
 1733TIP3    H126614   2.094   2.067   4.852  0.6044  2.9696 -1.0574
 1733TIP3    H226615   2.051   2.006   4.984 -0.2328 -1.4374 -3.2874
 1734TIP3   OH226616   6.577   5.375   0.411  0.2271  0.1682 -0.1495
 1734TIP3    H126617   6.556   5.415   0.495 -2.2792  0.9390 -1.0798
 1734TIP3    H226618   6.594   5.449   0.353  3.2259 -0.3927 -0.0472
 1735TIP3   OH226619   0.506   4.841  17.075 -0.3950  0.3756  0.1828
 1735TIP3    H126620   0.441   4.901  17.039 -0.7346 -0.8020 -1.2199
 1735TIP3    H226621   0.579   4.844  17.013  0.1098  0.3017  0.7707
 1736TIP3   OH226622   3.509   3.731  12.389 -0.0423  0.5102 -0.0875
 1736TIP3    H126623   3.448   3.801  12.371  2.1287  2.9489  1.6375
 1736TIP3    H226624   3.568   3.729  12.313 -1.0806 -0.5903 -0.8868
 1737TIP3   OH226625   6.423   6.285   2.172 -0.3225 -0.4200 -0.2552
 1737TIP3    H126626   6.482   6.255   2.103  0.2955 -0.4666  0.2869
 1737TIP3    H226627   6.443   6.229   2.247  0.9080  1.3638  0.8049
 1738TIP3   OH226628   2.040   2.887  13.452 -0.1777 -0.4754  0.3433
 1738TIP3    H126629   1.954   2.884  13.409 -0.2970  2.0412  0.3427
 1738TIP3    H226630   2.101   2.853  13.387 -0.5802  1.8580 -1.3186
 1739TIP3   OH226631   4.172   3.713   3.858 -0.3750 -0.3154 -0.4884
 1739TIP3    H126632   4.123   3.698   3.939 -1.8175  0.3961 -1.1969
 1739TIP3    H226633   4.149   3.638   3.802 -0.9517  0.2037 -0.9543
 1740TIP3   OH226634   1.812   1.325  14.217  0.2244  0.1167 -0.3046
 1740TIP3    H126635   1.789   1.380  14.292  3.1204  0.1045  0.6660
 1740TIP3    H226636   1.907   1.312  14.225 -0.0031 -2.9998 -1.8858
 1741TIP3   OH226637   1.577   0.645  14.681  0.2021  0.6819  0.6709
 1741TIP3    H126638   1.530   0.674  14.759 -1.4817 -0.1680  0.0185
 1741TIP3    H226639   1.525   0.571  14.648  1.3895  0.4413 -0.7281
 1742TIP3   OH226640   6.565   2.208  10.728  0.2234  0.3185  0.1515
 1742TIP3    H126641   6.552   2.113  10.723  0.1531  0.3829 -1.3930
 1742TIP3    H226642   6.478   2.243  10.747  0.0819  0.1177 -0.1177
 1743TIP3   OH226643   0.746   1.289   2.997 -0.2231  0.2367 -0.3398
 1743TIP3    H126644   0.830   1.318   3.032 -0.3270  0.2255 -0.0752
 1743TIP3    H226645   0.739   1.333   2.912 -1.0426  2.2023  0.6880
 1744TIP3   OH226646   1.696   0.132   2.848 -0.0534 -0.3911  0.2077
 1744TIP3    H126647   1.736   0.164   2.928 -0.4756 -0.1752  0.3325
 1744TIP3    H226648   1.655   0.209   2.809  1.4445 -0.1834 -0.9802
 1745TIP3   OH226649   0.816   5.802   1.992 -0.1982 -0.3456 -0.0118
 1745TIP3    H126650   0.883   5.783   1.927 -0.4587 -0.1081 -0.3508
 1745TIP3    H226651   0.801   5.896   1.986  0.7957 -0.0895  1.3884
 1746TIP3   OH226652   4.174   6.770   6.059 -0.4222 -0.2488 -0.0795
 1746TIP3    H126653   4.160   6.699   5.996 -0.0932 -0.4360  0.0636
 1746TIP3    H226654   4.211   6.728   6.136  0.5612  0.1910 -0.2987
 1747TIP3   OH226655   2.495   3.530  10.395 -0.5342 -0.1390  0.0037
 1747TIP3    H126656   2.557   3.603  10.394 -0.5454 -0.0729  2.4483
 1747TIP3    H226657   2.546   3.454  10.366  0.4618  0.1077  1.0711
 1748TIP3   OH226658   4.493   0.000  14.270 -0.1199  0.8854 -0.3734
 1748TIP3    H126659   4.466   0.010  14.362 -0.9542 -0.3290 -0.4829
 1748TIP3    H226660   4.583  -0.030  14.275 -0.0842  1.0541  0.0461
 1749TIP3   OH226661   5.195   2.481   2.623 -0.5826 -0.3177  0.0835
 1749TIP3    H126662   5.258   2.486   2.551  1.0010 -1.5414  1.3454
 1749TIP3    H226663   5.168   2.571   2.637  1.0844  0.2676 -0.3161
 1750TIP3   OH226664   4.737   4.757   6.023 -0.0128 -0.2449  0.1494
 1750TIP3    H126665   4.726   4.671   5.982  6.4856 -0.8890 -0.6685
 1750TIP3    H226666   4.765   4.736   6.113  0.4331  1.0681  0.3157
 1751TIP3   OH226667   3.339   5.577  14.570  0.0078  0.0753 -0.0487
 1751TIP3    H126668   3.327   5.579  14.475 -1.0591 -0.9797  0.0495
 1751TIP3    H226669   3.393   5.499  14.585  1.2919  0.9745  0.1148
 1752TIP3   OH226670   3.909   0.872  11.915  0.3284 -0.1720  0.5126
 1752TIP3    H126671   3.916   0.942  11.980  1.0927  1.1465 -0.9431
 1752TIP3    H226672   3.816   0.870  11.893  0.8051  2.9191 -2.0790
 1753TIP3   OH226673   0.470   6.078  13.999  0.2937 -0.2681 -0.2196
 1753TIP3    H126674   0.386   6.048  13.962 -0.2783 -1.1481  1.7314
 1753TIP3    H226675   0.448   6.159  14.045  1.1666  1.2828 -2.4358
 1754TIP3   OH226676   4.321   2.655   3.563 -0.3968 -0.2360  0.4859
 1754TIP3    H126677   4.331   2.735   3.615  0.5037 -0.6715  0.9974
 1754TIP3    H226678   4.313   2.585   3.629  0.1028 -0.7148  0.0385
 1755TIP3   OH226679   0.114   3.091  15.575  0.0603 -0.2049  0.2683
 1755TIP3    H126680   0.146   3.035  15.504  1.0251  0.6250  0.0468
 1755TIP3    H226681   0.030   3.125  15.543  0.1404 -0.4140 -0.1691
 1756TIP3   OH226682   3.414   1.997  11.849  0.3571 -0.0453 -0.0277
 1756TIP3    H126683   3.471   2.040  11.785 -0.9929 -0.6961 -1.7032
 1756TIP3    H226684   3.332   2.046  11.844 -0.0235 -0.6172  0.6101
 1757TIP3   OH226685   3.623   3.313   4.009 -0.1994 -0.7969 -0.6475
 1757TIP3    H126686   3.534   3.300   3.977  0.3386 -2.2208 -1.6441
 1757TIP3    H226687   3.678   3.264   3.947  1.0265 -2.2338  1.5145
 1758TIP3   OH226688   1.404   4.445   5.077 -0.7939  0.4511  0.5592
 1758TIP3    H126689   1.446   4.472   4.995 -0.9839 -0.7620  0.0509
 1758TIP3    H226690   1.472   4.453   5.143 -0.5718  1.2172  0.2518
 1759TIP3   OH226691   2.652   5.424  15.441  0.0042  0.0024  0.1217
 1759TIP3    H126692   2.738   5.420  15.400 -0.5379  1.8030 -1.2689
 1759TIP3    H226693   2.591   5.431  15.367 -1.2308  0.1843  1.1476
 1760TIP3   OH226694   3.931   0.590   2.374 -0.0669 -0.1908 -0.0663
 1760TIP3    H126695   3.980   0.640   2.309 -0.6148  0.5169  0.0631
 1760TIP3    H226696   3.914   0.506   2.331  0.5710 -0.1455 -0.4055
 1761TIP3   OH226697   3.312   0.087   2.881  0.2036 -0.5458 -0.0148
 1761TIP3    H126698   3.381   0.151   2.898 -0.6278  0.9208 -2.0169
 1761TIP3    H226699   3.349   0.028   2.815 -0.3831  0.1404 -0.9659
 1762TIP3   OH226700   3.337   1.405   4.279 -0.4143  0.3528 -0.4432
 1762TIP3    H126701   3.299   1.364   4.357  2.0952 -1.7963 -0.2867
 1762TIP3    H226702   3.396   1.472   4.314  1.2076 -1.0526 -0.4427
 1763TIP3   OH226703   3.492   2.094  12.753  0.4349  0.5325 -0.2694
 1763TIP3    H126704   3.488   2.189  12.766 -0.0827  0.5036 -0.2049
 1763TIP3    H226705   3.401   2.068  12.741  0.7810  0.4151 -2.9488
 1764TIP3   OH226706   6.092   2.183  14.561 -0.1211 -0.5111  0.2331
 1764TIP3    H126707   6.066   2.275  14.554 -1.1533 -0.9417 -2.0291
 1764TIP3    H226708   6.185   2.185  14.583 -0.3430  1.0652  1.0589
 1765TIP3   OH226709   4.940   4.094   5.028  0.2208 -0.2899 -0.1344
 1765TIP3    H126710   5.004   4.162   5.049  1.7629 -1.4461 -0.9600
 1765TIP3    H226711   4.983   4.012   5.052 -1.6328 -0.9892  0.9046
 1766TIP3   OH226712   1.709   4.703   3.912  0.1834 -0.6345 -0.6165
 1766TIP3    H126713   1.746   4.788   3.888  1.0937 -0.8899 -0.1467
 1766TIP3    H226714   1.785   4.649   3.932 -0.4229 -1.3395 -0.1946
 1767TIP3   OH226715   2.442   1.929   2.242 -0.3399 -0.8588  0.1497
 1767TIP3    H126716   2.354   1.927   2.278 -1.3504 -0.4684 -2.1902
 1767TIP3    H226717   2.448   1.849   2.189  0.9026 -1.1598  0.7296
 1768TIP3   OH226718   6.202   4.411  12.871 -0.4844  0.5088 -0.2342
 1768TIP3    H126719   6.232   4.364  12.793 -0.3709 -0.4223  0.3614
 1768TIP3    H226720   6.124   4.363  12.899 -0.8718  1.2013 -0.1219
 1769TIP3   OH226721   0.794   6.469   2.036  0.6249 -0.3655  0.5965
 1769TIP3    H126722   0.879   6.475   1.993  0.6422  0.2225  0.7188
 1769TIP3    H226723   0.731   6.464   1.964  0.4999  2.5496  0.4812
 1770TIP3   OH226724   1.233   5.858  16.873  0.1568  0.0287  0.3608
 1770TIP3    H126725   1.223   5.935  16.928 -0.0705  0.0376  0.3039
 1770TIP3    H226726   1.144   5.834  16.847  0.2803  0.1615 -0.1954
 1771TIP3   OH226727   4.530   4.421  12.208  0.3068 -0.5229 -0.3547
 1771TIP3    H126728   4.613   4.465  12.228 -0.6037  1.0802 -0.0507
 1771TIP3    H226729   4.471   4.492  12.183 -1.0774 -1.6279 -0.2211
 1772TIP3   OH226730   4.467   5.619   0.098  0.1460  0.1659 -0.5319
 1772TIP3    H126731   4.464   5.523   0.092  1.0746  0.2787 -3.3888
 1772TIP3    H226732   4.548   5.637   0.146 -1.0029 -0.4726  1.7601
 1773TIP3   OH226733   2.846   4.206  14.431  0.0233 -0.2056  0.4276
 1773TIP3    H126734   2.841   4.142  14.501  0.0948  0.6987  1.2802
 1773TIP3    H226735   2.841   4.291  14.476 -1.3515  0.3753 -0.7695
 1774TIP3   OH226736   2.348   2.848   1.366 -0.0433  0.0022 -0.3151
 1774TIP3    H126737   2.272   2.904   1.347 -0.0792 -0.4380 -1.5140
 1774TIP3    H226738   2.422   2.895   1.328  0.2595  0.3390  0.6878
 1775TIP3   OH226739   0.153   4.302  15.542 -0.4301  0.9680  0.8920
 1775TIP3    H126740   0.148   4.216  15.499 -0.4850  1.0697  0.6978
 1775TIP3    H226741   0.194   4.359  15.477  1.8425  0.5090  1.9018
 1776TIP3   OH226742   4.012   1.491   4.613  0.1108  0.3555  0.1570
 1776TIP3    H126743   3.996   1.565   4.555 -0.1237 -1.7229 -2.5229
 1776TIP3    H226744   4.080   1.440   4.570  1.1750 -0.3513  2.5796
 1777TIP3   OH226745   4.788   5.499   4.435  0.3545  0.4591  0.1914
 1777TIP3    H126746   4.809   5.539   4.351  1.1876 -0.0144  0.1649
 1777TIP3    H226747   4.796   5.405   4.420 -0.3694  0.3274  0.5724
 1778TIP3   OH226748   5.496   4.862   3.940 -0.4395  0.1519  0.3638
 1778TIP3    H126749   5.503   4.774   3.904 -1.3787  0.3560 -0.3201
 1778TIP3    H226750   5.525   4.919   3.869  3.1248  0.2625  1.7697
 1779TIP3   OH226751   3.334   4.482   2.319  0.1819 -0.3071  0.2960
 1779TIP3    H126752   3.296   4.519   2.399  0.4932  2.2646 -0.7149
 1779TIP3    H226753   3.305   4.391   2.319 -3.2819  0.7227  1.2496
 1780TIP3   OH226754   2.954   0.635   3.169  0.3692  0.6191 -0.7277
 1780TIP3    H126755   2.899   0.619   3.093 -1.1529  1.7340  0.1066
 1780TIP3    H226756   2.894   0.670   3.235  1.7569  0.1724  0.8043
 1781TIP3   OH226757   1.088   0.295   3.147  0.2204  0.1334 -0.6106
 1781TIP3    H126758   1.181   0.304   3.124  0.5739  0.4381  0.9032
 1781TIP3    H226759   1.041   0.325   3.069  1.3868 -1.4206 -1.9379
 1782TIP3   OH226760   5.087   0.141   3.132 -0.1080  0.2663 -0.8641
 1782TIP3    H126761   5.182   0.144   3.136  0.0286 -0.3337 -3.2492
 1782TIP3    H226762   5.065   0.048   3.140 -0.5213  0.4277 -0.0398
 1783TIP3   OH226763   3.754   3.664   2.340 -0.3364  0.1983 -0.1353
 1783TIP3    H126764   3.809   3.731   2.299  2.9213 -1.0382  2.0305
 1783TIP3    H226765   3.715   3.708   2.415 -0.6569  0.4902 -0.4691
 1784TIP3   OH226766   3.288   5.309   3.015  0.1845  0.7330  0.2003
 1784TIP3    H126767   3.295   5.399   2.982 -1.8135  0.6541 -0.5446
 1784TIP3    H226768   3.194   5.291   3.012  0.3241 -0.5016  2.7432
 1785TIP3   OH226769   2.818   4.121  11.904  0.4790 -0.1883  0.3918
 1785TIP3    H126770   2.841   4.034  11.870 -0.4043 -0.0051 -0.7159
 1785TIP3    H226771   2.893   4.175  11.880 -0.4682  0.1180 -2.0638
 1786TIP3   OH226772   2.519   5.005  17.069  0.3466 -0.3560 -0.3268
 1786TIP3    H126773   2.506   5.077  17.130  1.3447 -0.3891 -0.0665
 1786TIP3    H226774   2.552   4.933  17.123 -1.5069 -1.3066 -0.4326
 1787TIP3   OH226775   4.257   6.192  12.605  0.3921  0.2900  0.2022
 1787TIP3    H126776   4.206   6.117  12.636  0.6844  0.9695  2.4239
 1787TIP3    H226777   4.345   6.178  12.640  1.1600  0.3172 -1.6433
 1788TIP3   OH226778   3.628   3.127  12.998  0.4114  0.6858  0.3758
 1788TIP3    H126779   3.565   3.115  13.068 -0.6105 -0.3645 -0.6930
 1788TIP3    H226780   3.589   3.083  12.922  2.3564  0.1042 -0.3394
 1789TIP3   OH226781   5.370   5.237  11.762 -0.0737  0.0645 -0.8810
 1789TIP3    H126782   5.435   5.285  11.814 -0.9243  0.7117 -0.3811
 1789TIP3    H226783   5.417   5.161  11.728  0.3434 -0.7324  1.3854
 1790TIP3   OH226784   0.314   5.382   4.548 -0.3966  0.5605  0.0486
 1790TIP3    H126785   0.253   5.333   4.494  2.0894 -1.6791 -0.8219
 1790TIP3    H226786   0.278   5.471   4.551 -2.7309 -0.2922 -1.8439
 1791TIP3   OH226787   3.910   3.685   2.801 -0.0836 -0.3494 -0.5562
 1791TIP3    H126788   4.002   3.665   2.814 -0.7254 -2.8531  0.4629
 1791TIP3    H226789   3.869   3.667   2.886 -1.1168  3.3472 -0.1765
 1792TIP3   OH226790   0.543   4.445   0.565  0.0340 -0.4859 -0.5954
 1792TIP3    H126791   0.485   4.418   0.636 -0.4730  0.1378 -0.7757
 1792TIP3    H226792   0.619   4.387   0.574  1.4277  1.7036  2.4338
 1793TIP3   OH226793   6.395   2.659  10.810  0.3729 -0.8632  0.4466
 1793TIP3    H126794   6.302   2.644  10.793  0.5462 -0.8447 -0.5403
 1793TIP3    H226795   6.440   2.596  10.753  1.0356  1.1612 -1.3403
 1794TIP3   OH226796   6.233   4.772   1.310 -0.0553 -0.3457  0.0894
 1794TIP3    H126797   6.171   4.701   1.300  1.2960 -1.4431 -0.6766
 1794TIP3    H226798   6.234   4.816   1.224 -0.4377  0.2249  0.3738
 1795TIP3   OH226799   6.538   1.729   1.475  0.0688  0.1781  0.2456
 1795TIP3    H126800   6.612   1.668   1.470 -0.6416 -0.6429 -0.4514
 1795TIP3    H226801   6.465   1.681   1.438 -0.7173  1.1561  0.4971
 1796TIP3   OH226802   2.644   5.708  13.765 -0.2993 -0.4021  0.0505
 1796TIP3    H126803   2.603   5.784  13.723  0.1231 -0.2026 -0.0029
 1796TIP3    H226804   2.570   5.651  13.788 -0.6475  0.1753  0.3991
 1797TIP3   OH226805   2.111   4.151  14.611  0.3549 -0.6764  0.2491
 1797TIP3    H126806   2.184   4.211  14.596 -0.0701 -0.0061  0.8338
 1797TIP3    H226807   2.072   4.139  14.525 -1.0281  1.7924  0.4986
 1798TIP3   OH226808   1.146   3.233  10.537  0.0318 -0.2125 -0.1881
 1798TIP3    H126809   1.052   3.219  10.538  0.0203 -0.1772 -0.8204
 1798TIP3    H226810   1.184   3.145  10.538 -0.0013 -0.2221  0.5102
 1799TIP3   OH226811   5.803   1.728  13.932 -0.0492  0.0482 -0.2136
 1799TIP3    H126812   5.729   1.690  13.979  0.2969 -1.0264 -0.5093
 1799TIP3    H226813   5.844   1.788  13.995 -2.5857  2.5451 -0.8521
 1800TIP3   OH226814   2.712   4.101   3.109  0.2941 -0.7634 -0.3725
 1800TIP3    H126815   2.688   4.008   3.108 -2.7475 -0.0254  0.3901
 1800TIP3    H226816   2.717   4.126   3.017  2.8823 -2.0679 -0.6350
 1801TIP3   OH226817   0.829   1.334  14.804  0.1701 -0.1154  0.1952
 1801TIP3    H126818   0.878   1.357  14.725  0.1108 -0.1764  0.1414
 1801TIP3    H226819   0.832   1.239  14.808 -0.1520 -0.1303  0.0619
 1802TIP3   OH226820   3.213   4.992  13.445 -0.5627  0.2339  0.1818
 1802TIP3    H126821   3.247   5.037  13.368 -0.5402 -0.5112 -0.2457
 1802TIP3    H226822   3.291   4.973  13.498 -0.6600  1.4828  0.7911
 1803TIP3   OH226823   5.373   2.804   1.456  0.4739 -0.1082  0.7285
 1803TIP3    H126824   5.378   2.823   1.550 -0.4566 -0.5483  0.8687
 1803TIP3    H226825   5.281   2.816   1.434  0.6981  0.0543 -0.1475
 1804TIP3   OH226826   0.513   2.742  12.399 -0.0044 -0.4961 -0.0715
 1804TIP3    H126827   0.445   2.711  12.459  1.0139 -2.0289  0.3455
 1804TIP3    H226828   0.510   2.837  12.406  0.3266 -0.6324  2.7275
 1805TIP3   OH226829   5.613   0.380  15.368  0.0122 -0.0457 -0.6660
 1805TIP3    H126830   5.656   0.296  15.354 -1.9230 -1.1490 -0.1820
 1805TIP3    H226831   5.587   0.379  15.460 -1.5194  0.3443 -1.0821
 1806TIP3   OH226832   0.144   0.957   2.480  0.2468 -0.5495  0.0619
 1806TIP3    H126833   0.146   0.918   2.567  0.7712 -0.2105  0.2047
 1806TIP3    H226834   0.230   0.939   2.443  1.6562  3.1022  1.3111
 1807TIP3   OH226835   4.164   1.571  13.843  0.7111  0.2121 -0.2102
 1807TIP3    H126836   4.153   1.506  13.775  1.2255  1.0595 -1.1160
 1807TIP3    H226837   4.257   1.593  13.841  1.4309 -2.0949  2.9478
 1808TIP3   OH226838   0.492   6.574  16.859  0.3735 -0.2445 -0.5829
 1808TIP3    H126839   0.484   6.615  16.773 -0.4992  0.6565 -0.0914
 1808TIP3    H226840   0.426   6.619  16.913  1.1805 -0.5096  0.6576
 1809TIP3   OH226841   2.500   1.164   0.156  0.0698 -0.4508  0.1777
 1809TIP3    H126842   2.420   1.113   0.151 -0.5184  0.5674 -0.8830
 1809TIP3    H226843   2.525   1.160   0.249 -2.7963  1.6606  1.1167
 1810TIP3   OH226844   4.273   3.255   5.299 -0.0723 -0.0747  0.4040
 1810TIP3    H126845   4.338   3.203   5.251 -1.2035 -0.2048 -1.0488
 1810TIP3    H226846   4.259   3.207   5.380  0.0421 -1.2191 -0.2334
 1811TIP3   OH226847   2.513   1.898   3.968 -0.3084  0.0318 -0.5667
 1811TIP3    H126848   2.446   1.831   3.987 -1.0296  1.1556  0.9594
 1811TIP3    H226849   2.496   1.924   3.878 -1.9100  0.2830 -0.2017
 1812TIP3   OH226850   5.526   3.194   0.311 -0.0291  0.0900  0.7838
 1812TIP3    H126851   5.466   3.174   0.239  2.5087 -1.3878 -1.0045
 1812TIP3    H226852   5.513   3.123   0.373 -0.1337 -0.1922  0.4390
 1813TIP3   OH226853   6.601   6.242   3.657 -0.1537 -0.1255 -0.1354
 1813TIP3    H126854   6.656   6.229   3.579 -1.1204 -2.8729 -0.4193
 1813TIP3    H226855   6.555   6.324   3.641 -0.4418 -0.7266 -2.5556
 1814TIP3   OH226856   0.081   4.303  15.236 -0.3657  0.4232 -0.8661
 1814TIP3    H126857   0.102   4.322  15.144  0.1873  2.0335 -0.4212
 1814TIP3    H226858  -0.010   4.332  15.246 -0.0890  1.2339 -0.6453
 1815TIP3   OH226859   4.491   5.694  14.813  0.2745 -0.1097 -0.0240
 1815TIP3    H126860   4.579   5.722  14.838  0.4153 -1.3170  0.8820
 1815TIP3    H226861   4.442   5.776  14.801  0.9558  0.5552  1.5282
 1816TIP3   OH226862   1.333   3.541  13.763 -0.3115 -0.5425  0.3860
 1816TIP3    H126863   1.276   3.465  13.762  1.4556 -1.9006 -1.1745
 1816TIP3    H226864   1.413   3.511  13.805 -0.3093  1.0151  1.5550
 1817TIP3   OH226865   0.833   1.497  12.200 -0.0935  0.6769 -0.1610
 1817TIP3    H126866   0.880   1.564  12.249  0.7990 -0.2882  0.3299
 1817TIP3    H226867   0.893   1.473  12.129  0.0924 -0.4631  0.3819
 1818TIP3   OH226868   5.375   6.137   0.075 -0.5825 -0.2441 -0.0634
 1818TIP3    H126869   5.323   6.170   0.002  0.8882 -2.7732 -2.3448
 1818TIP3    H226870   5.327   6.060   0.106 -0.7585  0.3245  1.1090
 1819TIP3   OH226871   6.278   3.073  11.146  0.2982  0.2195 -0.3793
 1819TIP3    H126872   6.298   3.166  11.131 -0.9116  0.8331  1.6285
 1819TIP3    H226873   6.322   3.028  11.074  2.8958  2.1320 -0.1012
 1820TIP3   OH226874   3.993   2.466   0.341 -0.0731  0.4282  0.2093
 1820TIP3    H126875   3.936   2.542   0.329 -1.8513 -0.3964  2.9733
 1820TIP3    H226876   3.957   2.399   0.283 -0.5769  0.6255  0.2933
 1821TIP3   OH226877   6.232   2.161   3.331 -0.4644 -0.0935  1.1487
 1821TIP3    H126878   6.256   2.232   3.272 -1.3054 -1.9903 -1.5438
 1821TIP3    H226879   6.152   2.191   3.374 -0.1994  1.0419  0.8725
 1822TIP3   OH226880   3.211   1.443   4.045 -0.4550  0.2739  0.5117
 1822TIP3    H126881   3.258   1.391   4.110  0.6497  1.0596  0.3582
 1822TIP3    H226882   3.155   1.502   4.096 -0.8837 -0.2987  0.7069
 1823TIP3   OH226883   1.787   1.949   1.278 -0.1907  0.0647  0.5042
 1823TIP3    H126884   1.759   1.944   1.187  1.5615  0.3036 -0.0619
 1823TIP3    H226885   1.714   1.990   1.324 -0.7006  0.8238 -0.9676
 1824TIP3   OH226886   6.049   2.271   3.504  0.2989  0.3927  0.2088
 1824TIP3    H126887   5.971   2.326   3.495 -0.0858  0.0838  1.6120
 1824TIP3    H226888   6.027   2.209   3.572  1.5188 -0.1613  0.1074
 1825TIP3   OH226889   3.793   6.210  10.583 -0.1860  0.3028  0.2269
 1825TIP3    H126890   3.830   6.211  10.671 -1.0497  0.0854  0.6004
 1825TIP3    H226891   3.740   6.289  10.578 -1.5147 -0.5575  0.5133
 1826TIP3   OH226892   0.661   1.131   4.985 -0.1339  0.4057  0.0164
 1826TIP3    H126893   0.615   1.060   4.940  1.3731  0.0766 -1.0654
 1826TIP3    H226894   0.745   1.092   5.010  1.2881  2.1961 -1.8149
 1827TIP3   OH226895   2.631   0.178  10.918 -0.0862  0.3574 -0.2749
 1827TIP3    H126896   2.726   0.182  10.927  0.0161 -0.4957 -0.9082
 1827TIP3    H226897   2.605   0.104  10.973 -0.6036  1.7848  1.4450
 1828TIP3   OH226898   4.223   3.224  15.437  0.3585 -0.5407 -0.0244
 1828TIP3    H126899   4.209   3.220  15.343 -1.8984 -2.2509  0.3537
 1828TIP3    H226900   4.236   3.133  15.464 -1.4396 -0.3349  1.6451
 1829TIP3   OH226901   2.011   6.570   6.045 -0.2554 -0.4912 -0.3813
 1829TIP3    H126902   2.092   6.537   6.005  0.3767  0.1957  0.3063
 1829TIP3    H226903   1.975   6.495   6.091  0.7632 -0.4479  0.5181
 1830TIP3   OH226904   5.294   5.326  12.131  0.7292 -0.4807 -0.2127
 1830TIP3    H126905   5.257   5.397  12.078  0.2875 -0.8699 -0.4286
 1830TIP3    H226906   5.233   5.254  12.121  1.0777 -0.8332  0.1639
 1831TIP3   OH226907   3.376   4.905   4.596  0.5097 -0.1198 -0.0911
 1831TIP3    H126908   3.334   4.991   4.604 -0.5519 -0.7462  1.2437
 1831TIP3    H226909   3.367   4.883   4.504 -0.8974  0.3689 -0.0861
 1832TIP3   OH226910   4.815   2.353  15.033 -0.0526 -0.1605  0.2612
 1832TIP3    H126911   4.819   2.444  15.005 -0.3922  0.5297  2.3580
 1832TIP3    H226912   4.906   2.324  15.033  0.1134  0.3609  0.1060
 1833TIP3   OH226913   0.488   4.547  16.767 -0.6178  0.6096 -0.7647
 1833TIP3    H126914   0.539   4.621  16.735 -2.6340  1.4160 -2.2509
 1833TIP3    H226915   0.418   4.587  16.819 -2.3319 -0.1449 -2.4319
 1834TIP3   OH226916   6.019   5.228  12.825  0.1470 -0.1845  0.3602
 1834TIP3    H126917   5.983   5.208  12.912 -1.7238  1.7218  0.0635
 1834TIP3    H226918   5.963   5.298  12.791  0.7973 -0.9616 -2.4464
 1835TIP3   OH226919   0.670   0.694  13.098 -0.1713 -0.3997  0.3630
 1835TIP3    H126920   0.597   0.661  13.046 -2.0181  1.2908  1.8408
 1835TIP3    H226921   0.701   0.617  13.147 -1.2145 -1.0269  0.0461
 1836TIP3   OH226922   1.149   5.227  15.271 -0.2843  0.0269  0.2864
 1836TIP3    H126923   1.227   5.182  15.241 -0.0300 -0.5765  1.7947
 1836TIP3    H226924   1.077   5.185  15.224  0.0795 -1.0781  0.7127
 1837TIP3   OH226925   2.561   6.240  14.422 -0.5828 -0.1788  0.2037
 1837TIP3    H126926   2.508   6.298  14.367 -1.6995 -1.2864  0.0794
 1837TIP3    H226927   2.624   6.200  14.361  0.6518  1.3903  0.4096
 1838TIP3   OH226928   2.314   0.911   0.294  0.5490  0.4342  0.0927
 1838TIP3    H126929   2.396   0.872   0.324  0.3128  0.2105  0.4539
 1838TIP3    H226930   2.265   0.928   0.375  0.0820  0.2097 -0.1397
 1839TIP3   OH226931   5.349   4.864   0.767 -0.0718  0.0752  0.5701
 1839TIP3    H126932   5.310   4.924   0.703 -1.1417 -0.0610  1.0914
 1839TIP3    H226933   5.443   4.885   0.765 -0.2129  0.6615 -0.4112
 1840TIP3   OH226934   0.777   2.513   4.931 -0.0038  0.8881 -0.5291
 1840TIP3    H126935   0.692   2.510   4.976  0.3166  0.3093  0.0450
 1840TIP3    H226936   0.779   2.432   4.880  0.1470  0.9694 -0.6502
 1841TIP3   OH226937   1.974   6.381   1.735 -0.2724 -0.1382  0.1706
 1841TIP3    H126938   2.041   6.450   1.738 -0.6802  0.2611  0.2726
 1841TIP3    H226939   1.945   6.380   1.644 -0.0961 -0.3445  0.1159
 1842TIP3   OH226940   0.407   1.266   2.070  0.0038  0.2716 -0.5543
 1842TIP3    H126941   0.468   1.328   2.030 -0.9940  0.3959 -1.9464
 1842TIP3    H226942   0.358   1.318   2.133 -0.5663  0.8208 -1.4398
 1843TIP3   OH226943   3.302   3.063   5.936  0.2898  0.1200  0.4127
 1843TIP3    H126944   3.226   3.004   5.943  0.4585  0.0797  1.9389
 1843TIP3    H226945   3.267   3.150   5.958  0.5825  0.1758  0.6627
 1844TIP3   OH226946   3.942   1.571   0.197 -0.0901  0.2666 -0.0834
 1844TIP3    H126947   4.034   1.587   0.219  0.0360 -0.4467 -0.0704
 1844TIP3    H226948   3.920   1.641   0.136  0.7912 -0.1759 -0.9431
 1845TIP3   OH226949   4.958   0.240  12.045  0.6817 -0.2605  0.2624
 1845TIP3    H126950   5.035   0.239  11.990  0.6367  0.4662  0.1792
 1845TIP3    H226951   4.904   0.168  12.013  0.4552  0.4289 -0.9295
 1846TIP3   OH226952   5.732   6.515  15.937 -0.4891  0.5503 -0.1994
 1846TIP3    H126953   5.717   6.604  15.970 -1.0099  0.7681 -0.9798
 1846TIP3    H226954   5.817   6.520  15.893 -0.4260  0.6185 -0.0682
 1847TIP3   OH226955   2.220   6.348  15.951 -0.2405 -0.1302 -0.1272
 1847TIP3    H126956   2.272   6.302  16.016 -1.1330 -0.9742 -0.0042
 1847TIP3    H226957   2.169   6.411  16.001  0.7782  0.8283 -0.2660
 1848TIP3   OH226958   0.888   2.700   6.099  0.2183  0.3446  0.6207
 1848TIP3    H126959   0.802   2.664   6.116 -0.6923  1.9582 -0.3907
 1848TIP3    H226960   0.904   2.762   6.171  0.1174  0.7394  0.3075
 1849TIP3   OH226961   3.378   2.930   5.274  0.2428 -0.1774  0.8965
 1849TIP3    H126962   3.392   2.996   5.206  1.0944 -0.6847  0.5752
 1849TIP3    H226963   3.442   2.952   5.342 -0.5077  0.2413  1.4809
 1850TIP3   OH226964   0.721   6.565   1.567  0.5246  0.7600 -0.3162
 1850TIP3    H126965   0.700   6.518   1.486  2.4307 -0.1625 -0.3173
 1850TIP3    H226966   0.738   6.655   1.538  0.6747  0.5550 -0.8871
 1851TIP3   OH226967   5.499   5.820   0.125 -0.5304  0.1522  0.6279
 1851TIP3    H126968   5.522   5.790   0.037  2.9719 -0.6691  1.7672
 1851TIP3    H226969   5.536   5.908   0.132 -1.1096  0.3638  1.1815
 1852TIP3   OH226970   1.491   6.391  14.427 -0.3118  0.0856  0.7365
 1852TIP3    H126971   1.450   6.469  14.464 -0.1418  0.0194  1.0705
 1852TIP3    H226972   1.477   6.398  14.333 -3.9572 -1.5817  1.0854
 1853TIP3   OH226973   3.610   5.934  12.209 -0.3074  0.2412  0.0031
 1853TIP3    H126974   3.536   5.908  12.263  0.2375 -2.4427 -0.4750
 1853TIP3    H226975   3.596   5.889  12.125  0.1657  2.3301 -1.2483
 1854TIP3   OH226976   2.639   1.969   5.126 -0.0473 -0.2971 -0.3280
 1854TIP3    H126977   2.656   2.060   5.151 -2.3485 -0.7111  3.2191
 1854TIP3    H226978   2.705   1.919   5.173  0.3773 -0.5554 -1.2016
 1855TIP3   OH226979   6.429   1.970  13.869  0.1199 -0.2447  0.4450
 1855TIP3    H126980   6.495   2.038  13.857  0.1915 -0.3757  0.0789
 1855TIP3    H226981   6.383   1.966  13.785  0.2431 -0.7811  0.3988
 1856TIP3   OH226982   5.000   0.993  15.322  0.6436  0.2719 -0.5003
 1856TIP3    H126983   4.984   1.085  15.345  2.0746 -0.0066  1.7544
 1856TIP3    H226984   5.079   0.996  15.269  1.3157  0.2584  0.4851
 1857TIP3   OH226985   6.375   1.628   4.568  0.1369  0.0119  0.4565
 1857TIP3    H126986   6.431   1.629   4.645 -0.9660  0.5566  1.2738
 1857TIP3    H226987   6.305   1.567   4.590  0.3293 -0.5566 -0.4975
 1858TIP3   OH226988   0.773   0.339  11.407  0.1398 -0.2040  0.2755
 1858TIP3    H126989   0.858   0.299  11.426 -0.0051 -0.2546  0.8355
 1858TIP3    H226990   0.792   0.408  11.343  1.0823  1.9382  2.7731
 1859TIP3   OH226991   4.728   5.735   1.193 -0.0358  0.0025  1.0808
 1859TIP3    H126992   4.661   5.793   1.229 -1.1088 -0.9634  0.6825
 1859TIP3    H226993   4.687   5.648   1.191  0.3557 -0.1783 -1.3936
 1860TIP3   OH226994   1.503   1.158  15.544 -0.0273  1.0507  0.2486
 1860TIP3    H126995   1.530   1.067  15.533 -1.5448  0.4178  1.4979
 1860TIP3    H226996   1.444   1.176  15.471  0.2990  1.0303 -0.0155
 1861TIP3   OH226997   6.122   5.512   0.121 -0.4282 -0.9947 -0.5288
 1861TIP3    H126998   6.176   5.433   0.116  1.4537  0.0694  2.1378
 1861TIP3    H226999   6.174   5.579   0.076  0.1658 -0.1621  1.3529
 1862TIP3   OH227000   0.539   5.984   2.631  0.2981 -0.6259  0.6538
 1862TIP3    H127001   0.498   6.070   2.628  0.5804 -0.4263  2.0653
 1862TIP3    H227002   0.633   6.002   2.635  0.4119 -1.0230 -0.1534
 1863TIP3   OH227003   3.884   0.385   6.236  0.3319 -0.3847  0.3185
 1863TIP3    H127004   3.818   0.366   6.170  0.3478 -1.4959  0.6078
 1863TIP3    H227005   3.918   0.299   6.261  2.1933  0.1951 -0.1543
 1864TIP3   OH227006   6.367   1.207   2.564 -0.1174 -0.0070 -0.0086
 1864TIP3    H127007   6.452   1.170   2.588 -0.7042 -1.0903  0.4204
 1864TIP3    H227008   6.309   1.186   2.637 -0.7710  0.6987 -0.3101
 1865TIP3   OH227009   5.578   4.344   4.671  0.3878  0.5638 -0.0937
 1865TIP3    H127010   5.568   4.394   4.752  0.2473  1.4888 -0.6766
 1865TIP3    H227011   5.626   4.265   4.697  1.3503  1.3904  0.6900
 1866TIP3   OH227012   1.027   4.431  12.493  0.4306 -0.2914  0.3408
 1866TIP3    H127013   0.932   4.432  12.508 -0.0125  0.4341 -2.1959
 1866TIP3    H227014   1.042   4.351  12.443  1.3437 -0.9630  1.6681
 1867TIP3   OH227015   6.680   3.209  15.075  0.0382  0.2447  0.3983
 1867TIP3    H127016   6.775   3.204  15.063  0.0757  1.4705  0.0993
 1867TIP3    H227017   6.661   3.303  15.076 -1.2666  0.0074 -0.3594
 1868TIP3   OH227018   1.063   5.056  14.690  1.0430 -0.8097 -0.3599
 1868TIP3    H127019   1.074   4.980  14.633  0.1518 -0.5106 -0.9246
 1868TIP3    H227020   1.127   5.120  14.658  2.3197 -1.5830  0.5830
 1869TIP3   OH227021   4.471   6.431  11.508 -0.1059  0.0345  0.1804
 1869TIP3    H127022   4.459   6.365  11.576  1.0397  1.9124  2.2699
 1869TIP3    H227023   4.537   6.393  11.450 -0.4839 -1.2359  0.5579
 1870TIP3   OH227024   4.552   4.050  12.590  0.4844  0.3140  0.5519
 1870TIP3    H127025   4.581   4.051  12.499  0.7318  0.9283  0.6346
 1870TIP3    H227026   4.579   3.965  12.623 -0.8229 -0.4754 -0.3430
 1871TIP3   OH227027   3.375   6.053   5.252  0.0098  0.3288 -0.0578
 1871TIP3    H127028   3.412   6.091   5.172 -0.0099  0.5431  0.0360
 1871TIP3    H227029   3.421   5.969   5.261 -0.4250  0.0246 -0.6279
 1872TIP3   OH227030   0.565   5.123  15.530 -0.2315  0.3544 -0.0863
 1872TIP3    H127031   0.620   5.198  15.554 -3.5856  2.8181  0.3091
 1872TIP3    H227032   0.521   5.099  15.611  0.5777 -1.8605 -0.2949
 1873TIP3   OH227033   1.136   2.584   0.382  0.2665 -0.2325 -0.4648
 1873TIP3    H127034   1.173   2.650   0.441 -2.8940  1.3904 -0.2081
 1873TIP3    H227035   1.135   2.626   0.296 -1.4948 -0.0179 -0.3578
 1874TIP3   OH227036   2.502   2.462  12.476 -0.4237 -0.1286  0.3290
 1874TIP3    H127037   2.574   2.513  12.514 -1.0813 -0.3436  1.8892
 1874TIP3    H227038   2.513   2.374  12.511 -1.0936 -0.3111  0.0938
 1875TIP3   OH227039   5.735   4.124   1.831 -0.2800  0.3378 -0.0968
 1875TIP3    H127040   5.730   4.080   1.746  1.4210 -1.1665  0.5406
 1875TIP3    H227041   5.643   4.137   1.856 -0.7993  0.2340 -1.8723
 1876TIP3   OH227042   5.125   5.839  13.433 -0.7332 -0.6775  0.5822
 1876TIP3    H127043   5.092   5.814  13.347 -0.3897  2.6275 -0.5885
 1876TIP3    H227044   5.207   5.790  13.443  1.5498  2.1052 -2.9718
 1877TIP3   OH227045   6.258   1.662  12.173 -0.3057  0.4029 -0.5019
 1877TIP3    H127046   6.226   1.619  12.094 -0.3437 -0.5838  0.0352
 1877TIP3    H227047   6.280   1.589  12.232  2.6204  1.0372 -0.7205
 1878TIP3   OH227048   1.270   5.698   6.233  0.6769  0.2719  0.1697
 1878TIP3    H127049   1.250   5.605   6.227  0.4526  0.3692 -0.6560
 1878TIP3    H227050   1.201   5.735   6.287  1.6884 -0.3209  1.8882
 1879TIP3   OH227051   4.744   4.180   5.211  0.5469  0.4145 -0.5678
 1879TIP3    H127052   4.693   4.241   5.157 -1.1610 -0.1809  0.3291
 1879TIP3    H227053   4.799   4.132   5.148 -0.0824  0.9831 -1.5669
 1880TIP3   OH227054   2.554   6.659   4.590  0.0509  0.1612 -0.4437
 1880TIP3    H127055   2.526   6.606   4.515 -1.3549  0.2302  0.0183
 1880TIP3    H227056   2.475   6.703   4.619  1.2361  2.6375 -0.8751
 1881TIP3   OH227057   5.991   1.086  15.205 -0.0021  0.1703 -0.5359
 1881TIP3    H127058   6.082   1.094  15.179  0.7546 -0.5694  1.7594
 1881TIP3    H227059   5.953   1.172  15.187  1.0740  0.3923 -1.7438
 1882TIP3   OH227060   4.887   4.177   1.413 -0.0084 -0.5749  0.1301
 1882TIP3    H127061   4.865   4.103   1.356  0.8489 -1.1339  0.5026
 1882TIP3    H227062   4.918   4.245   1.354 -0.8750 -0.4829 -0.2219
 1883TIP3   OH227063   3.215   6.054   2.728  0.6393  0.1046  0.0038
 1883TIP3    H127064   3.146   6.006   2.682  1.0659 -0.5837  0.0671
 1883TIP3    H227065   3.242   6.122   2.666  0.5882 -0.2517 -0.4180
 1884TIP3   OH227066   5.188   4.459   3.126  0.1546  0.0530 -0.1985
 1884TIP3    H127067   5.098   4.489   3.109  0.3519  0.0759 -1.2327
 1884TIP3    H227068   5.212   4.502   3.208 -0.5360  0.5870 -0.2658
 1885TIP3   OH227069   1.051   3.400   3.396  0.1530 -0.1685  0.4302
 1885TIP3    H127070   1.089   3.314   3.377  1.3810  0.5867 -0.6879
 1885TIP3    H227071   1.125   3.453   3.424 -0.2371  1.0801 -0.8572
 1886TIP3   OH227072   4.387   4.965  14.551 -0.4856 -0.3243 -0.4944
 1886TIP3    H127073   4.453   4.994  14.613 -0.5695  0.0257 -0.5673
 1886TIP3    H227074   4.410   5.007  14.468 -1.9004  1.3836 -0.0613
 1887TIP3   OH227075   1.608   3.594  15.883  0.2803  0.6468  0.1809
 1887TIP3    H127076   1.696   3.578  15.919 -0.0662 -0.4691  0.5508
 1887TIP3    H227077   1.624   3.621  15.793  1.0894  2.1818  0.7603
 1888TIP3   OH227078   4.309   6.445  13.847 -0.2608 -0.3984 -0.0373
 1888TIP3    H127079   4.390   6.408  13.882 -0.2026 -0.6984 -0.4884
 1888TIP3    H227080   4.240   6.386  13.877 -0.1307 -1.0884 -1.0571
 1889TIP3   OH227081   1.912   6.350   2.701  0.1012 -0.0307 -0.0696
 1889TIP3    H127082   2.002   6.320   2.697  0.0731 -0.1533  0.1919
 1889TIP3    H227083   1.890   6.375   2.611  0.2952 -0.2937 -0.1901
 1890TIP3   OH227084   5.694   1.334   1.344 -0.1082 -0.2336 -0.0243
 1890TIP3    H127085   5.640   1.328   1.423 -0.1088 -0.0256 -0.0083
 1890TIP3    H227086   5.689   1.247   1.305 -0.7074 -0.1314 -0.1878
 1891TIP3   OH227087   5.229   4.244  11.316 -0.1533 -0.3929 -0.0315
 1891TIP3    H127088   5.153   4.205  11.272 -0.1948  1.6508 -1.8645
 1891TIP3    H227089   5.202   4.334  11.335  0.7751 -0.5142  1.9992
 1892TIP3   OH227090   5.423   1.623  13.569  0.4383 -0.2966 -0.0056
 1892TIP3    H127091   5.384   1.587  13.490 -0.0067  1.6883 -0.7154
 1892TIP3    H227092   5.505   1.662  13.540 -0.1479  1.2286  0.3324
 1893TIP3   OH227093   4.657   0.211   3.511  0.1017  0.8282  0.1798
 1893TIP3    H127094   4.740   0.164   3.517 -0.9491 -1.3011 -1.4859
 1893TIP3    H227095   4.673   0.279   3.446  0.0287 -0.7639 -1.5404
 1894TIP3   OH227096   0.932   1.763  15.313 -0.1253  0.3737 -0.1928
 1894TIP3    H127097   0.884   1.684  15.289  0.5434  0.0490 -0.4889
 1894TIP3    H227098   1.024   1.736  15.313  0.0991  1.1203 -0.1706
 1895TIP3   OH227099   2.045   3.920   6.347 -0.0507 -0.1117  0.6214
 1895TIP3    H127100   2.102   3.976   6.399 -0.8953 -0.0006  1.4635
 1895TIP3    H227101   1.958   3.931   6.387 -0.2633 -1.8910  0.7211
 1896TIP3   OH227102   6.591   2.372  12.554 -0.2701  0.7154  0.2842
 1896TIP3    H127103   6.682   2.397  12.568 -0.6315  0.8707  2.5885
 1896TIP3    H227104   6.594   2.277  12.537  0.4406  0.9966 -1.2323
 1897TIP3   OH227105   1.501   1.284  14.916 -0.0161 -0.1366 -0.2294
 1897TIP3    H127106   1.408   1.260  14.919 -0.1848  0.5932  0.7440
 1897TIP3    H227107   1.547   1.200  14.921 -0.6095 -0.3636  1.7810
 1898TIP3   OH227108   6.395   2.125   1.124  1.1032 -0.1878 -0.1025
 1898TIP3    H127109   6.434   2.207   1.156 -1.1372 -0.2673  3.0363
 1898TIP3    H227110   6.301   2.135   1.141  0.2683 -1.8250 -3.3784
 1899TIP3   OH227111   0.613   0.126   1.259 -0.2404  0.0573  0.2279
 1899TIP3    H127112   0.673   0.068   1.211 -1.9413 -0.2602 -1.6146
 1899TIP3    H227113   0.530   0.118   1.211 -1.0204  2.5244  1.1268
 1900TIP3   OH227114   0.112   6.289   4.084 -0.0319  0.2124  0.3728
 1900TIP3    H127115   0.052   6.295   4.159 -0.3962  0.7093  0.0471
 1900TIP3    H227116   0.060   6.319   4.010  0.6716  0.7960  0.1103
 1901TIP3   OH227117   5.006   1.933  13.135  0.3443 -0.0428  0.1293
 1901TIP3    H127118   5.067   1.987  13.185 -0.6508  0.8597  0.3935
 1901TIP3    H227119   4.960   1.995  13.078 -0.2384 -0.7167 -0.1389
 1902TIP3   OH227120   6.155   5.778   3.664 -0.4093  0.0535  0.2893
 1902TIP3    H127121   6.197   5.693   3.652 -0.9609 -0.3987  1.4699
 1902TIP3    H227122   6.220   5.831   3.712  0.7348  0.9802 -2.2094
 1903TIP3   OH227123   3.776   2.905   4.571 -0.4800  0.3262 -0.6518
 1903TIP3    H127124   3.799   2.812   4.571 -2.4312 -0.1835  0.7704
 1903TIP3    H227125   3.763   2.927   4.663 -1.5194  1.6385 -1.0921
 1904TIP3   OH227126   6.155   0.336  13.255 -0.7395  0.0591 -0.1161
 1904TIP3    H127127   6.076   0.316  13.306 -1.9295  0.5750 -1.6976
 1904TIP3    H227128   6.184   0.420  13.290 -2.3517  1.0927 -1.1900
 1905TIP3   OH227129   4.905   4.757   0.139  0.3292 -0.0836  0.4278
 1905TIP3    H127130   4.995   4.773   0.112  0.3576  0.0379  0.5973
 1905TIP3    H227131   4.863   4.719   0.061  0.2762  0.7320  0.0583
 1906TIP3   OH227132   3.085   2.047  14.472 -0.3375 -0.4872  0.1099
 1906TIP3    H127133   3.154   2.042  14.406  1.7885 -0.3327  2.2375
 1906TIP3    H227134   3.102   2.128  14.519 -2.2542 -0.2261  0.3864
 1907TIP3   OH227135   2.237   4.851  14.361  0.2744  0.2081  0.2304
 1907TIP3    H127136   2.252   4.929  14.308  1.3403  0.8582  1.4451
 1907TIP3    H227137   2.314   4.796  14.345 -1.2644 -1.4117 -1.9552
 1908TIP3   OH227138   0.322   3.553  13.630  0.0767 -0.3764 -0.0958
 1908TIP3    H127139   0.308   3.470  13.584  0.2193 -0.4413 -0.0212
 1908TIP3    H227140   0.382   3.602  13.574  1.3554 -1.0230  0.7182
 1909TIP3   OH227141   2.059   5.094  11.592  0.2649  0.1805  0.0851
 1909TIP3    H127142   2.142   5.053  11.571 -0.0643 -0.2485 -0.3920
 1909TIP3    H227143   2.024   5.042  11.665  0.2108  0.0919 -0.0045
 1910TIP3   OH227144   2.552   4.457   4.175 -0.3187 -0.5043 -0.3863
 1910TIP3    H127145   2.630   4.451   4.120 -1.7936  0.5695 -2.6793
 1910TIP3    H227146   2.523   4.548   4.166 -1.3680 -0.6593  1.1191
 1911TIP3   OH227147   4.083   2.618   4.222  0.1418  0.2855  0.0572
 1911TIP3    H127148   4.172   2.609   4.187  0.5673  0.4464  1.0904
 1911TIP3    H227149   4.088   2.581   4.310 -1.4877 -2.3103 -0.9021
 1912TIP3   OH227150   0.128   4.021   5.530 -0.3316 -0.7306  0.6858
 1912TIP3    H127151   0.174   3.959   5.474 -0.5954 -0.3086 -0.0157
 1912TIP3    H227152   0.197   4.071   5.573 -0.1060 -1.9417  1.7702
 1913TIP3   OH227153   3.207   0.764  15.071  0.0124  0.5619  0.2989
 1913TIP3    H127154   3.270   0.742  15.003  1.1074 -1.2743  1.8608
 1913TIP3    H227155   3.184   0.680  15.111 -3.1841  1.2318 -0.0104
 1914TIP3   OH227156   6.157   4.398   4.987 -0.0055  0.4016 -0.2216
 1914TIP3    H127157   6.103   4.366   4.915  1.1110  0.6077 -1.1732
 1914TIP3    H227158   6.224   4.452   4.944  0.7471  0.4196  0.9562
 1915TIP3   OH227159   5.323   6.249   3.543 -0.4638  0.1193  0.0531
 1915TIP3    H127160   5.277   6.225   3.463 -0.8174 -0.3629  0.4025
 1915TIP3    H227161   5.383   6.319   3.515  0.4230 -1.0118 -0.9301
 1916TIP3   OH227162   0.135   5.830   0.101 -0.0607 -0.7015  0.1468
 1916TIP3    H127163   0.133   5.762   0.169  1.8421 -0.8298  0.1130
 1916TIP3    H227164   0.054   5.817   0.052 -0.3810 -2.0718  0.9902
 1917TIP3   OH227165   6.229   2.940  11.615 -0.9060  0.2140 -0.2735
 1917TIP3    H127166   6.160   2.892  11.660 -0.4788 -1.4199 -1.3260
 1917TIP3    H227167   6.213   2.924  11.522  1.1126 -0.5414 -0.5216
 1918TIP3   OH227168   3.424   4.265  11.983  0.2634 -0.2485  0.2581
 1918TIP3    H127169   3.427   4.228  12.071  0.4907  1.7470  1.1104
 1918TIP3    H227170   3.331   4.287  11.970 -0.0728 -2.1309 -0.6994
 1919TIP3   OH227171   3.825   3.969  13.061 -0.3575 -0.0280 -0.0499
 1919TIP3    H127172   3.845   3.946  12.970  1.5124  0.4041  0.2302
 1919TIP3    H227173   3.843   4.063  13.066 -2.1200  0.2932  0.3337
 1920TIP3   OH227174   6.220   4.180   1.612 -0.0522 -0.5327 -0.0498
 1920TIP3    H127175   6.145   4.236   1.588  0.7170  1.3225  1.7072
 1920TIP3    H227176   6.290   4.208   1.554 -0.3408 -1.3646 -0.8077
 1921TIP3   OH227177   4.900   5.519   1.319 -0.0464 -0.3442 -0.1485
 1921TIP3    H127178   4.861   5.588   1.267  0.6386 -1.3239 -1.9880
 1921TIP3    H227179   4.880   5.438   1.271  2.4996 -1.0509 -0.0866
 1922TIP3   OH227180   1.402   0.996  11.011  0.3187 -0.3261 -0.2558
 1922TIP3    H127181   1.437   1.033  11.092  0.9117  0.4341 -0.8640
 1922TIP3    H227182   1.478   0.961  10.965  0.5841  2.8467 -2.3883
 1923TIP3   OH227183   1.519   2.254   6.024 -0.2229 -0.1170 -0.3109
 1923TIP3    H127184   1.576   2.177   6.019  0.8372  0.6711 -0.4202
 1923TIP3    H227185   1.501   2.265   6.117  0.0218 -0.2133 -0.2526
 1924TIP3   OH227186   6.406   0.263  13.453  0.5595  0.0039 -0.3393
 1924TIP3    H127187   6.312   0.271  13.468  0.2990 -2.4345 -0.5787
 1924TIP3    H227188   6.414   0.204  13.378  2.2513  1.2571 -1.1751
 1925TIP3   OH227189   1.029   6.399   4.390  0.2234 -0.0764  0.3803
 1925TIP3    H127190   1.029   6.341   4.466  0.5598  0.8155  1.0605
 1925TIP3    H227191   0.936   6.414   4.372  0.1450 -0.1199  0.7450
 1926TIP3   OH227192   2.654   3.283  11.148  0.5582  0.2401  0.1018
 1926TIP3    H127193   2.628   3.205  11.198  1.1722 -0.0275  0.0131
 1926TIP3    H227194   2.651   3.255  11.057 -1.4936  1.0115 -0.0763
 1927TIP3   OH227195   4.446   5.787  17.110 -0.4288  0.1852  0.4735
 1927TIP3    H127196   4.469   5.722  17.176 -0.4013 -0.0554  0.2264
 1927TIP3    H227197   4.423   5.735  17.033  1.0515  0.5085 -0.1923
 1928TIP3   OH227198   5.300   6.089  15.100  0.1306 -0.4320 -0.2682
 1928TIP3    H127199   5.362   6.063  15.032 -1.5106 -1.0761 -1.5680
 1928TIP3    H227200   5.351   6.091  15.181  1.8441 -0.8514 -1.3232
 1929TIP3   OH227201   3.214   2.380   3.644  0.4924  1.0126 -0.2390
 1929TIP3    H127202   3.211   2.464   3.599  2.2319  2.7212  2.7056
 1929TIP3    H227203   3.302   2.346   3.624  0.7769  1.1500  0.7883
 1930TIP3   OH227204   3.173   1.790  13.880  0.2307  0.1082 -0.6526
 1930TIP3    H127205   3.179   1.864  13.820  2.3489  0.9244  0.4978
 1930TIP3    H227206   3.101   1.812  13.939  0.6859  1.1465 -0.4720
 1931TIP3   OH227207   1.104   5.777  15.380 -0.7901 -0.1055  0.0978
 1931TIP3    H127208   1.083   5.839  15.450 -1.7252  0.8189 -0.9745
 1931TIP3    H227209   1.062   5.695  15.407 -1.5904  0.3916  0.3813
 1932TIP3   OH227210   2.847   3.776  16.718  0.0487  0.6109 -0.2181
 1932TIP3    H127211   2.922   3.836  16.713  0.9365 -0.3574  1.1159
 1932TIP3    H227212   2.797   3.808  16.793  1.2668 -1.1157  1.3722
 1933TIP3   OH227213   6.692   4.929  13.658  0.4197 -0.4507 -0.8338
 1933TIP3    H127214   6.757   4.976  13.606  0.3732 -1.0299 -1.4227
 1933TIP3    H227215   6.628   4.898  13.593  0.2168 -0.9411 -0.3950
 1934TIP3   OH227216   1.122   0.380   1.489  0.3355 -0.1765  0.1015
 1934TIP3    H127217   1.057   0.314   1.464  1.7295 -2.2457  1.7111
 1934TIP3    H227218   1.116   0.447   1.421 -3.3415 -0.3849  0.1195
 1935TIP3   OH227219   4.251   5.431   5.351  0.9389  0.1236 -0.6089
 1935TIP3    H127220   4.221   5.469   5.434  0.1064 -0.6112 -0.5667
 1935TIP3    H227221   4.308   5.498   5.314  0.2064  1.0484 -0.1032
 1936TIP3   OH227222   0.099   3.129  12.125 -0.4437  0.2506 -0.0136
 1936TIP3    H127223   0.048   3.099  12.200  0.9230  0.1369  0.8966
 1936TIP3    H227224   0.145   3.207  12.158  0.4818 -0.0414 -0.6030
 1937TIP3   OH227225   0.402   4.577   1.065 -0.2147 -0.7435 -0.8251
 1937TIP3    H127226   0.362   4.651   1.020 -1.2730 -0.8758 -0.1185
 1937TIP3    H227227   0.328   4.530   1.105  0.6495 -0.9818  0.5161
 1938TIP3   OH227228   0.004   5.171   0.702  0.7332  0.3417 -0.2057
 1938TIP3    H127229  -0.089   5.171   0.724  0.9538  0.2848  0.7901
 1938TIP3    H227230   0.009   5.142   0.611 -0.3682  2.2878 -0.9154
 1939TIP3   OH227231   2.131   5.586  11.767 -0.1523  0.9631  0.5818
 1939TIP3    H127232   2.112   5.592  11.674  0.7029 -0.1108  0.3197
 1939TIP3    H227233   2.089   5.504  11.795  0.9494  0.4542  0.7776
 1940TIP3   OH227234   6.091   5.811   0.249 -0.1291  0.1942  0.3586
 1940TIP3    H127235   6.158   5.793   0.183 -1.1362  0.4820 -0.7692
 1940TIP3    H227236   6.009   5.788   0.206 -0.7301 -0.3377  1.8013
 1941TIP3   OH227237   6.073   6.223   3.270  0.1427  0.3339  0.6532
 1941TIP3    H127238   6.070   6.178   3.354  2.0079  0.6302  0.8843
 1941TIP3    H227239   5.981   6.232   3.245 -0.3638 -1.0769  1.9446
 1942TIP3   OH227240   1.410   4.166   5.064  0.0630  0.2267 -0.4683
 1942TIP3    H127241   1.359   4.086   5.048  0.7443 -0.3474  0.2250
 1942TIP3    H227242   1.459   4.180   4.984 -1.5465  1.0604 -1.3383
 1943TIP3   OH227243   0.201   4.283   1.946  0.4153  0.5593  0.4594
 1943TIP3    H127244   0.146   4.214   1.983  0.0595  0.5786 -0.0270
 1943TIP3    H227245   0.176   4.287   1.853  1.1193  0.6795  0.2728
 1944TIP3   OH227246   1.688   6.550  13.731  0.0056 -0.2526  0.1294
 1944TIP3    H127247   1.660   6.543  13.823  2.9416 -1.4186  0.9730
 1944TIP3    H227248   1.649   6.473  13.689  0.0578 -0.6451  0.7859
 1945TIP3   OH227249   3.769   6.451   5.968  0.5478 -0.0433 -0.2838
 1945TIP3    H127250   3.817   6.383   5.921 -0.9153 -1.5486  0.3676
 1945TIP3    H227251   3.785   6.433   6.060 -0.7742 -0.1959 -0.0813
 1946TIP3   OH227252   0.771   4.998   1.136  0.0256  0.4611 -0.0083
 1946TIP3    H127253   0.767   4.977   1.229 -2.0598  2.6552  0.4540
 1946TIP3    H227254   0.750   4.917   1.091 -4.3623  0.6151  1.5911
 1947TIP3   OH227255   4.525   1.782  15.558 -0.1845  0.6640  0.4004
 1947TIP3    H127256   4.557   1.769  15.647  0.6398  0.9337  0.1369
 1947TIP3    H227257   4.498   1.694  15.529 -0.4944  0.5863  0.9250
 1948TIP3   OH227258   0.662   4.191   5.956  0.2378  0.3966 -0.0490
 1948TIP3    H127259   0.663   4.259   6.023  1.7390 -2.5616  3.0961
 1948TIP3    H227260   0.754   4.181   5.930  0.0590 -0.4364 -0.3971
 1949TIP3   OH227261   6.535   0.093   2.453 -0.0320 -0.2322  0.0469
 1949TIP3    H127262   6.520   0.088   2.358 -0.4904  2.2227 -0.0331
 1949TIP3    H227263   6.514   0.005   2.484  0.3331 -1.1426 -2.1540
 1950TIP3   OH227264   3.125   6.714  13.427 -0.7310  0.2635  0.2103
 1950TIP3    H127265   3.054   6.651  13.422  0.4390 -1.2023  1.5224
 1950TIP3    H227266   3.159   6.720  13.338 -1.1195 -0.6335  0.0001
 1951TIP3   OH227267   2.891   4.586  15.861 -0.4776  0.4204 -0.4953
 1951TIP3    H127268   2.891   4.562  15.769  1.0514  0.9568 -0.6529
 1951TIP3    H227269   2.804   4.624  15.876 -0.1449  1.8974 -2.1428
 1952TIP3   OH227270   3.508   1.985   1.233  0.4220 -0.1733  0.6012
 1952TIP3    H127271   3.474   1.942   1.312  1.7794 -0.3754  1.0864
 1952TIP3    H227272   3.444   2.054   1.214 -0.8360 -1.2458  0.8529
 1953TIP3   OH227273   6.774   1.979  11.715 -0.2077  0.4985  0.1146
 1953TIP3    H127274   6.706   1.960  11.650 -0.1354  0.1034  0.1504
 1953TIP3    H227275   6.852   1.935  11.680  0.0221  0.9138  0.0925
 1954TIP3   OH227276   4.389   2.850   2.356 -0.0258 -0.0889  0.5451
 1954TIP3    H127277   4.302   2.889   2.356  0.3117  0.7381  3.5509
 1954TIP3    H227278   4.380   2.772   2.411  1.3214  0.4861  1.5994
 1955TIP3   OH227279   6.242   1.406   6.685 -0.3635 -0.1083 -0.4161
 1955TIP3    H127280   6.158   1.369   6.712  0.0274  1.5359  3.3598
 1955TIP3    H227281   6.222   1.494   6.655  0.0279  0.3392  0.6287
 1956TIP3   OH227282   4.742   6.297  12.242  0.1837  0.5280 -0.3284
 1956TIP3    H127283   4.809   6.364  12.231  2.1056 -1.5202 -1.5185
 1956TIP3    H227284   4.751   6.269  12.333  1.9442 -0.7337 -0.8671
 1957TIP3   OH227285   6.314   5.076  10.928 -0.0520  0.4604  0.2580
 1957TIP3    H127286   6.364   5.013  10.978  0.3416  2.3585  2.3294
 1957TIP3    H227287   6.338   5.058  10.837  1.9061 -0.7737  0.9731
 1958TIP3   OH227288   1.594   3.749   4.517  0.0897  0.2410  0.2848
 1958TIP3    H127289   1.521   3.810   4.502  0.0253 -0.2443 -1.4846
 1958TIP3    H227290   1.592   3.732   4.611 -2.6432 -0.4484  0.1516
 1959TIP3   OH227291   2.356   1.414  11.699 -0.2200  0.5091 -0.3722
 1959TIP3    H127292   2.329   1.352  11.631  1.3233 -0.6500  0.0577
 1959TIP3    H227293   2.283   1.476  11.705 -2.1555 -1.7140 -0.2468
 1960TIP3   OH227294   2.020   4.160  15.087 -0.5246 -0.6512 -0.3220
 1960TIP3    H127295   2.088   4.095  15.066  1.6803  1.0931  1.1934
 1960TIP3    H227296   2.003   4.147  15.180 -2.0117 -0.8009 -0.6101
 1961TIP3   OH227297   2.027   2.824   3.575 -0.2150 -0.1340 -0.3455
 1961TIP3    H127298   2.076   2.775   3.509 -0.4173 -0.5038 -0.2198
 1961TIP3    H227299   2.086   2.896   3.600 -0.0173 -0.1716 -0.7049
 1962TIP3   OH227300   2.310   4.691   3.822  0.0053  0.4129 -0.0325
 1962TIP3    H127301   2.293   4.677   3.729  0.9557 -0.0620 -0.1491
 1962TIP3    H227302   2.369   4.766   3.825  0.6127 -0.0671  0.1319
 1963TIP3   OH227303   3.952   5.384  14.443 -0.2408 -0.2859 -0.0479
 1963TIP3    H127304   4.011   5.316  14.475  0.9238  1.2768  1.2219
 1963TIP3    H227305   3.925   5.431  14.522  1.3969  2.6260 -1.1658
 1964TIP3   OH227306   6.584   1.860  12.899  0.1748  0.4833 -0.1182
 1964TIP3    H127307   6.528   1.901  12.833  0.7146  0.9372 -0.2960
 1964TIP3    H227308   6.634   1.794  12.850  0.4734  0.7232 -0.1330
 1965TIP3   OH227309   5.046   3.877   6.123 -0.3038  0.8798  0.0983
 1965TIP3    H127310   5.112   3.835   6.178  1.3334  1.2501 -1.5168
 1965TIP3    H227311   4.967   3.826   6.137  0.5662 -0.1587  1.3572
 1966TIP3   OH227312   1.817   2.080   2.876  0.1147  0.4317  0.1920
 1966TIP3    H127313   1.838   1.988   2.859 -1.9479  0.1671 -1.1784
 1966TIP3    H227314   1.899   2.118   2.906  1.9437 -1.0593 -2.6485
 1967TIP3   OH227315   3.180   1.185  12.110 -0.6534 -0.1079  0.1358
 1967TIP3    H127316   3.191   1.154  12.020 -0.3359  1.3944 -0.3661
 1967TIP3    H227317   3.110   1.249  12.105 -0.3011  0.3481  0.8737
 1968TIP3   OH227318   2.384   5.665  11.781 -0.1293 -0.0135  0.1675
 1968TIP3    H127319   2.401   5.693  11.691 -0.5770 -0.9174 -0.2055
 1968TIP3    H227320   2.294   5.633  11.780  0.4964 -1.8287  0.4793
 1969TIP3   OH227321   4.442   3.588   2.437 -0.3850  0.1910 -0.0278
 1969TIP3    H127322   4.534   3.612   2.428 -0.3177  0.0737  0.3683
 1969TIP3    H227323   4.434   3.505   2.390  0.3270 -1.2715  2.3677
 1970TIP3   OH227324   1.952   1.260  10.829 -0.2107  0.6094 -0.5787
 1970TIP3    H127325   2.044   1.266  10.854  0.1496  0.2461 -1.7837
 1970TIP3    H227326   1.922   1.177  10.867  0.2915  0.1325 -1.2098
 1971TIP3   OH227327   6.270   5.282   4.894  0.1596 -0.0255  0.0462
 1971TIP3    H127328   6.302   5.354   4.840  0.8083  0.7159  1.3868
 1971TIP3    H227329   6.194   5.248   4.847  0.5922  0.7362 -1.2148
 1972TIP3   OH227330   0.831   4.296  16.136  0.1437  0.4931 -0.0344
 1972TIP3    H127331   0.862   4.270  16.223 -0.0923  0.5658  0.0706
 1972TIP3    H227332   0.910   4.298  16.082  0.3328  0.7425  0.2500
 1973TIP3   OH227333   3.587   0.349  12.431 -0.3231  1.0386 -0.2435
 1973TIP3    H127334   3.606   0.419  12.493 -0.0843  2.5987 -2.0405
 1973TIP3    H227335   3.612   0.269  12.477 -0.7800  2.0896  1.9102
 1974TIP3   OH227336   3.089   5.379   3.974  0.0398 -0.2260  0.2752
 1974TIP3    H127337   3.064   5.340   3.890  0.5662  2.4772 -1.1992
 1974TIP3    H227338   3.169   5.428   3.955  0.5747 -0.1511  2.5424
 1975TIP3   OH227339   3.429   4.607   1.825  0.1592 -0.1896  0.1685
 1975TIP3    H127340   3.445   4.542   1.894 -0.2463  0.0313  0.4766
 1975TIP3    H227341   3.367   4.668   1.865 -0.0098 -0.0134 -0.3696
 1976TIP3   OH227342   3.658   2.329   4.542  0.3727  0.3863  0.4399
 1976TIP3    H127343   3.753   2.330   4.530  0.4127 -0.3224  0.6519
 1976TIP3    H227344   3.632   2.239   4.520 -0.1647  0.3946  1.0371
 1977TIP3   OH227345   5.620   5.144   2.639 -0.2482 -0.5003 -0.2524
 1977TIP3    H127346   5.539   5.177   2.678 -0.9588 -1.7369 -0.6671
 1977TIP3    H227347   5.677   5.221   2.633 -0.6380 -0.0222  1.9287
 1978TIP3   OH227348   3.917   2.093   2.576  0.3606  0.1198 -0.1367
 1978TIP3    H127349   3.869   2.169   2.611  0.0973 -1.0654  2.1662
 1978TIP3    H227350   4.009   2.118   2.583  0.3071 -0.0316  1.2852
 1979TIP3   OH227351   4.154   5.163   1.043  0.1777 -0.2907  0.0963
 1979TIP3    H127352   4.111   5.221   1.106 -0.6113  0.1622 -0.8664
 1979TIP3    H227353   4.248   5.176   1.061  0.0939  2.4321 -1.0960
 1980TIP3   OH227354   3.323   3.352   0.093  0.0752 -0.0297  0.0087
 1980TIP3    H127355   3.281   3.408   0.028 -1.4922 -1.4770 -0.2735
 1980TIP3    H227356   3.405   3.325   0.052  0.9734  2.2528  0.2666
 1981TIP3   OH227357   3.760   1.164  11.796 -0.5743 -1.2236 -0.1606
 1981TIP3    H127358   3.675   1.156  11.839 -0.5514 -1.9961 -0.2544
 1981TIP3    H227359   3.824   1.159  11.866 -0.6292  0.1569 -0.0011
 1982TIP3   OH227360   0.487   6.498  11.374  0.2784 -0.3988 -0.0045
 1982TIP3    H127361   0.540   6.447  11.313 -0.5130 -2.2378  0.8068
 1982TIP3    H227362   0.411   6.443  11.391 -0.4245  0.9124  1.1776
 1983TIP3   OH227363   2.906   1.806  12.511  0.0989  1.0991  0.1888
 1983TIP3    H127364   2.891   1.807  12.606 -0.1078 -0.0508  0.1782
 1983TIP3    H227365   2.845   1.739  12.478 -0.9472  2.5847 -0.9495
 1984TIP3   OH227366   6.036   5.499   3.580 -0.3151  0.7294  0.1938
 1984TIP3    H127367   6.090   5.461   3.511 -1.5952  1.1673 -1.0578
 1984TIP3    H227368   5.947   5.494   3.547 -1.3366 -1.8241  3.0626
 1985TIP3   OH227369   5.129   4.469  13.462  0.6617  0.4070 -0.2252
 1985TIP3    H127370   5.035   4.490  13.457  0.6090  0.2876  0.1970
 1985TIP3    H227371   5.134   4.398  13.527  0.6536 -1.9510 -2.7030
 1986TIP3   OH227372   2.516   5.961  16.001 -0.0010  0.0189  0.0672
 1986TIP3    H127373   2.612   5.954  16.001  0.1505  1.5878  1.8957
 1986TIP3    H227374   2.486   5.871  15.991  1.6796 -0.5177 -0.3303
 1987TIP3   OH227375   6.604   3.658  14.296  0.0460 -0.2188  0.4187
 1987TIP3    H127376   6.534   3.704  14.249 -1.2978  0.1625  2.6899
 1987TIP3    H227377   6.589   3.566  14.277 -1.0586 -0.1374  0.8239
 1988TIP3   OH227378   4.251   5.386  16.732 -1.1314 -0.2123  1.2026
 1988TIP3    H127379   4.178   5.326  16.743 -0.2448 -1.5678 -0.1506
 1988TIP3    H227380   4.260   5.397  16.637  0.7318 -0.4821  1.3209
 1989TIP3   OH227381   5.258   6.287  15.659 -0.5340 -0.0227 -0.2639
 1989TIP3    H127382   5.352   6.307  15.653 -0.5538 -0.2239 -1.3400
 1989TIP3    H227383   5.250   6.198  15.626 -1.2002  0.2694 -0.9213
 1990TIP3   OH227384   5.094   4.302  14.862 -0.8974  0.8488 -0.7018
 1990TIP3    H127385   5.167   4.276  14.918  0.6376 -0.4024 -3.1377
 1990TIP3    H227386   5.026   4.237  14.880  0.5210 -1.0764 -2.0450
 1991TIP3   OH227387   0.811   6.500   0.317 -0.5702 -0.0575  0.0137
 1991TIP3    H127388   0.874   6.463   0.255  0.5486  0.1749  0.9858
 1991TIP3    H227389   0.734   6.520   0.264 -0.1149 -1.0738 -1.0537
 1992TIP3   OH227390   5.039   5.580  10.859  0.0742 -0.2687 -0.0882
 1992TIP3    H127391   5.116   5.575  10.802 -0.6340  0.6945 -1.1370
 1992TIP3    H227392   4.991   5.500  10.842  1.1702 -1.2122  1.0782
 1993TIP3   OH227393   6.652   0.746  14.318  0.2697  0.4797  0.0791
 1993TIP3    H127394   6.714   0.685  14.277 -0.1076  0.3575 -0.3064
 1993TIP3    H227395   6.606   0.787  14.245  0.6298  1.3467  0.3325
 1994TIP3   OH227396   4.515   1.956   2.745 -0.1230 -0.4103 -0.5691
 1994TIP3    H127397   4.433   1.906   2.752  0.3744 -1.2727 -0.7396
 1994TIP3    H227398   4.560   1.939   2.827  0.4583 -1.0011 -0.9993
 1995TIP3   OH227399   4.508   6.727  11.909 -0.2898  0.0714 -0.2505
 1995TIP3    H127400   4.559   6.679  11.844 -0.8095 -0.2539 -0.4204
 1995TIP3    H227401   4.432   6.671  11.927 -0.1481  0.1566  0.6400
 1996TIP3   OH227402   2.573   0.475   1.481 -0.0130  0.2101 -0.1747
 1996TIP3    H127403   2.551   0.563   1.450  0.9764  0.7227  0.5559
 1996TIP3    H227404   2.666   0.465   1.461 -0.0255 -0.5225  0.1100
 1997TIP3   OH227405   4.730   0.576   1.950 -0.1113  0.3737 -0.2686
 1997TIP3    H127406   4.813   0.533   1.929 -0.4972  0.0676 -1.2235
 1997TIP3    H227407   4.755   0.657   1.995  0.6043 -1.0265  1.9149
 1998TIP3   OH227408   6.081   4.319  16.904  0.1530  0.3499  0.0483
 1998TIP3    H127409   6.161   4.312  16.852 -0.8018 -0.1326 -1.3801
 1998TIP3    H227410   6.065   4.413  16.910  0.5974  0.4339 -0.0287
 1999TIP3   OH227411   2.523   1.053  15.043  0.1621 -0.5990  0.0691
 1999TIP3    H127412   2.535   1.141  15.008 -1.1305  0.0444  1.2364
 1999TIP3    H227413   2.612   1.025  15.065  0.5027  0.7182  0.4396
 2000TIP3   OH227414   0.661   4.510   0.971  0.1953  0.4118  0.5563
 2000TIP3    H127415   0.753   4.488   0.961 -0.3772 -1.7986 -0.1617
 2000TIP3    H227416   0.652   4.594   0.926  1.8068  0.5552  0.4637
 2001TIP3   OH227417   6.175   2.272  15.823  0.3096 -0.3572 -0.4196
 2001TIP3    H127418   6.096   2.219  15.819 -0.2444  0.6196 -2.8846
 2001TIP3    H227419   6.222   2.253  15.742  1.2355  1.1599 -0.2750
 2002TIP3   OH227420   5.158   1.639  15.536 -0.6690 -0.6522  0.4369
 2002TIP3    H127421   5.135   1.731  15.546 -0.8655 -0.8634  2.0878
 2002TIP3    H227422   5.152   1.622  15.442 -2.7115  0.4768  0.3566
 2003TIP3   OH227423   5.510   4.228  11.594 -0.2551 -0.6933  0.1982
 2003TIP3    H127424   5.435   4.171  11.582 -3.0113  1.9980  3.5208
 2003TIP3    H227425   5.489   4.307  11.543  0.0292  0.3058  1.5910
 2004TIP3   OH227426   2.080   2.037  15.694 -0.1282 -0.0934 -0.5875
 2004TIP3    H127427   1.987   2.038  15.714  0.1943 -1.6798  1.1559
 2004TIP3    H227428   2.114   2.120  15.728 -0.2229 -1.2310  2.4398
 2005TIP3   OH227429   6.487   1.171  15.553  0.2779 -0.0544 -0.6300
 2005TIP3    H127430   6.484   1.076  15.555  1.8021 -0.1071  0.2257
 2005TIP3    H227431   6.397   1.198  15.537 -0.4511 -1.6069  0.7026
 2006TIP3   OH227432   0.253   6.371   5.225  0.5032  0.2018  0.0791
 2006TIP3    H127433   0.326   6.338   5.277 -1.2031 -1.6890  1.3521
 2006TIP3    H227434   0.235   6.301   5.162 -0.6816  0.3271  0.2691
 2007TIP3   OH227435   6.710   0.401   5.081  0.4978  0.1281  0.4700
 2007TIP3    H127436   6.751   0.420   4.997  0.9276  2.8622  1.2386
 2007TIP3    H227437   6.641   0.467   5.089  0.8541  0.2782  2.5181
 2008TIP3   OH227438   6.665   2.955  11.649  0.1972 -0.1586 -0.4741
 2008TIP3    H127439   6.672   2.923  11.559  1.3680 -1.0773 -0.0659
 2008TIP3    H227440   6.623   2.883  11.697  0.6366 -0.1395 -0.0560
 2009TIP3   OH227441   4.696   1.996  11.909 -0.5840  0.4061  0.1006
 2009TIP3    H127442   4.663   2.081  11.936 -0.8695  0.0184  0.9865
 2009TIP3    H227443   4.780   1.987  11.954 -1.1177 -0.2923  0.9874
 2010TIP3   OH227444   4.792   2.265   5.475 -0.1723 -0.2690  0.1499
 2010TIP3    H127445   4.868   2.318   5.454  0.2356 -0.0282  2.1233
 2010TIP3    H227446   4.822   2.174   5.467 -0.1157 -0.1867 -0.5797
 2011TIP3   OH227447   4.223   0.288  15.603  0.3640  0.1882  0.2642
 2011TIP3    H127448   4.290   0.356  15.601 -0.2734  0.8471  0.9843
 2011TIP3    H227449   4.141   0.335  15.588  0.1568 -0.7498 -1.7222
 2012TIP3   OH227450   5.427   4.132  15.376 -0.6519 -0.7970  0.6179
 2012TIP3    H127451   5.460   4.107  15.462  1.7914 -0.0888 -0.0527
 2012TIP3    H227452   5.417   4.227  15.381  0.2888 -0.6498 -0.1094
 2013TIP3   OH227453   0.860   2.423  14.268  0.3919  0.1019 -0.2725
 2013TIP3    H127454   0.869   2.474  14.349  0.5587 -1.6861  0.8544
 2013TIP3    H227455   0.929   2.357  14.274  0.5422  0.0810 -1.9967
 2014TIP3   OH227456   1.877   0.148  15.479  0.1563 -0.4127 -0.2056
 2014TIP3    H127457   1.837   0.182  15.559 -0.6355  1.0903 -1.2104
 2014TIP3    H227458   1.960   0.109  15.508 -0.9473 -1.4997  1.5732
 2015TIP3   OH227459   4.683   5.821  16.973  0.0901 -0.3241 -0.2724
 2015TIP3    H127460   4.694   5.726  16.978  1.2615 -0.4202 -3.2375
 2015TIP3    H227461   4.600   5.838  17.017 -0.0657 -2.7195  0.4325
 2016TIP3   OH227462   1.172   3.394   4.206 -0.2057  0.1146  0.1141
 2016TIP3    H127463   1.228   3.471   4.209  0.0075 -0.0464  0.2811
 2016TIP3    H227464   1.222   3.330   4.155 -1.4228  0.9207 -2.1876
 2017TIP3   OH227465   0.189   4.210  10.761  1.0664 -0.0872 -0.2871
 2017TIP3    H127466   0.226   4.209  10.849  0.2571  1.6982  0.0989
 2017TIP3    H227467   0.095   4.224  10.775  0.8801 -0.1775 -1.4167
 2018TIP3   OH227468   4.181   3.201  16.372 -0.3862  0.2737  0.2457
 2018TIP3    H127469   4.250   3.228  16.433  0.2745  0.3757 -0.5323
 2018TIP3    H227470   4.106   3.179  16.428 -0.2880  1.8089  1.0071
 2019TIP3   OH227471   4.912   0.916  13.578 -0.2289 -0.3257 -0.3536
 2019TIP3    H127472   4.874   1.001  13.601 -0.5912  0.0782 -2.3331
 2019TIP3    H227473   4.838   0.863  13.551 -0.0685 -1.4792  1.3814
 2020TIP3   OH227474   4.700   2.692   1.582  0.0670  0.7192 -0.2628
 2020TIP3    H127475   4.652   2.620   1.624 -0.8127  1.6413  0.3149
 2020TIP3    H227476   4.702   2.668   1.489 -0.3797  0.0481 -0.1048
 2021TIP3   OH227477   3.310   2.333   2.392  0.5373  0.0216 -0.0892
 2021TIP3    H127478   3.364   2.382   2.330 -0.2584 -0.0132 -0.8193
 2021TIP3    H227479   3.357   2.250   2.404  0.9022  0.1913 -0.3252
 2022TIP3   OH227480   1.050   6.215   3.764 -0.2314 -0.3928 -0.1259
 2022TIP3    H127481   1.075   6.225   3.672  0.8846  0.6752  0.2830
 2022TIP3    H227482   1.124   6.249   3.814 -0.8440 -0.9051  1.1842
 2023TIP3   OH227483   2.191   3.976  15.591  0.4014 -0.2769 -0.7292
 2023TIP3    H127484   2.149   3.892  15.610 -1.6276  0.3774 -2.2201
 2023TIP3    H227485   2.155   4.037  15.654  0.7621 -0.1832 -0.6093
 2024TIP3   OH227486   3.488   5.463  15.859  1.0256 -0.2488 -0.9721
 2024TIP3    H127487   3.483   5.558  15.871  0.1972 -0.2122 -1.6317
 2024TIP3    H227488   3.496   5.428  15.948  0.8053  0.4039 -0.6966
 2025TIP3   OH227489   6.450   6.709   5.461  1.1671  0.2740  0.1358
 2025TIP3    H127490   6.377   6.667   5.505 -1.1399  2.5728 -1.3456
 2025TIP3    H227491   6.525   6.692   5.518 -0.5642 -1.8505  1.8668
 2026TIP3   OH227492   4.995   4.350  12.729 -0.1062 -0.1141  0.1410
 2026TIP3    H127493   4.927   4.409  12.760  0.2274  0.4210 -0.1494
 2026TIP3    H227494   5.077   4.399  12.737  0.1612 -0.4858 -0.2120
 2027TIP3   OH227495   1.136   2.379   2.942  0.0310  0.2833  0.0229
 2027TIP3    H127496   1.152   2.300   2.890  1.0466  0.5937 -0.1460
 2027TIP3    H227497   1.187   2.447   2.898  0.9662  0.5414  1.4623
 2028TIP3   OH227498   2.785   6.627   2.924 -0.1777 -0.3240  0.6502
 2028TIP3    H127499   2.863   6.610   2.873  0.1977  0.9349  0.7850
 2028TIP3    H227500   2.729   6.551   2.909 -0.2118  0.1645 -1.8696
 2029TIP3   OH227501   1.556   1.060   3.825  0.2413 -0.4686  0.4098
 2029TIP3    H127502   1.471   1.100   3.842 -0.3514 -0.3331 -2.6565
 2029TIP3    H227503   1.619   1.133   3.830 -0.4813  0.3864 -2.3330
 2030TIP3   OH227504   6.577   4.802  15.394  0.1030  0.0110  0.4167
 2030TIP3    H127505   6.497   4.854  15.388 -1.3940 -2.2703  0.2970
 2030TIP3    H227506   6.554   4.718  15.356  3.2592  0.0970 -1.8816
 2031TIP3   OH227507   2.410   2.413  14.191 -0.2692  0.5646  0.3543
 2031TIP3    H127508   2.429   2.489  14.136  0.1868 -0.1262 -0.4594
 2031TIP3    H227509   2.494   2.367  14.198 -0.5949  0.0081  0.6453
 2032TIP3   OH227510   3.256   2.407   3.935  0.1055 -0.6309 -0.4064
 2032TIP3    H127511   3.221   2.324   3.967 -0.1100 -0.2551  0.3388
 2032TIP3    H227512   3.226   2.413   3.844  0.2152 -1.4176 -0.4966
 2033TIP3   OH227513   2.017   2.270  14.800 -0.0427 -0.1255  0.2039
 2033TIP3    H127514   2.020   2.174  14.798 -1.8140 -0.1753 -0.0296
 2033TIP3    H227515   1.933   2.291  14.840  1.1478  1.3439  1.9854
 2034TIP3   OH227516   5.905   2.567   3.221 -0.6980  0.1606 -0.0683
 2034TIP3    H127517   5.814   2.563   3.250 -0.3500  2.3308  1.5043
 2034TIP3    H227518   5.949   2.617   3.290  1.6213 -0.6171 -0.9514
 2035TIP3   OH227519   5.876   0.926   4.947 -0.3253 -0.2274 -0.4355
 2035TIP3    H127520   5.949   0.888   4.899  1.3902  0.7749  1.2908
 2035TIP3    H227521   5.811   0.856   4.953  0.6858 -1.2760 -1.6134
 2036TIP3   OH227522   6.271   0.912   4.437  0.3368  0.2644  0.3299
 2036TIP3    H127523   6.320   0.900   4.356  0.2105  0.5707  0.2059
 2036TIP3    H227524   6.321   0.864   4.503  1.0048  0.8888  0.2842
 2037TIP3   OH227525   3.639   5.999   5.531 -0.0078 -0.2880  0.8283
 2037TIP3    H127526   3.643   5.981   5.625 -1.1915 -2.5519  0.4765
 2037TIP3    H227527   3.554   5.965   5.504  0.5560 -0.1510 -1.1656
 2038TIP3   OH227528   1.668   5.138   5.708 -0.0715  0.6183  0.0718
 2038TIP3    H127529   1.733   5.104   5.770 -0.6923 -1.8122 -0.5709
 2038TIP3    H227530   1.584   5.123   5.751 -0.4427 -0.0177 -0.8649
 2039TIP3   OH227531   4.484   4.323   5.330 -0.3971  0.4345  0.3835
 2039TIP3    H127532   4.456   4.236   5.301 -1.4070  0.7604  0.3722
 2039TIP3    H227533   4.579   4.314   5.342 -0.3085 -0.3295 -0.7768
 2040TIP3   OH227534   3.271   4.338   3.873  0.4032  0.2425  0.6842
 2040TIP3    H127535   3.192   4.341   3.820 -0.5267 -0.1907  2.0365
 2040TIP3    H227536   3.337   4.385   3.820 -0.8143  0.8729 -0.2979
 2041TIP3   OH227537   6.277   6.615   0.668  0.2904 -0.4734  0.3722
 2041TIP3    H127538   6.225   6.641   0.743  0.8856  2.1428 -0.0696
 2041TIP3    H227539   6.228   6.647   0.592  2.4973  2.1618 -0.0441
 2042TIP3   OH227540   4.269   6.573   3.596 -0.4566 -0.2091  0.1570
 2042TIP3    H127541   4.202   6.518   3.555 -1.0472  1.2550 -0.8783
 2042TIP3    H227542   4.261   6.554   3.690 -2.4521  0.0983  0.0662
 2043TIP3   OH227543   0.742   2.958   4.661 -0.2997  0.0576  0.1066
 2043TIP3    H127544   0.652   2.949   4.692 -0.4134  1.7512  0.3086
 2043TIP3    H227545   0.736   2.943   4.567 -1.0291  1.4471 -0.0884
 2044TIP3   OH227546   0.864   0.340   1.157 -0.3451  0.2166 -0.1299
 2044TIP3    H127547   0.823   0.257   1.135 -2.9473  1.3486  0.2627
 2044TIP3    H227548   0.868   0.341   1.253  1.0783 -0.0831 -0.1732
 2045TIP3   OH227549   6.264   1.503  13.198  0.2142 -0.0200 -0.0769
 2045TIP3    H127550   6.251   1.408  13.210  1.4396  0.2242  3.8806
 2045TIP3    H227551   6.334   1.509  13.132 -1.8436 -1.7383 -2.5386
 2046TIP3   OH227552   0.888   3.200  16.329  0.2609  0.6896 -0.5051
 2046TIP3    H127553   0.893   3.197  16.234 -1.7330  0.0434 -0.6222
 2046TIP3    H227554   0.912   3.112  16.358  1.5903  1.0942 -0.3597
 2047TIP3   OH227555   3.059   4.561   1.123  0.8081  0.7769  0.8427
 2047TIP3    H127556   3.108   4.596   1.049 -1.6231 -1.0815 -1.7431
 2047TIP3    H227557   3.062   4.466   1.112 -1.7152  0.5466  1.6358
 2048TIP3   OH227558   0.188   3.324  13.529  0.0503  0.1254 -0.2552
 2048TIP3    H127559   0.168   3.231  13.537  0.1567  0.1442  0.2230
 2048TIP3    H227560   0.102   3.367  13.530  0.1317  0.3865  4.0179
 2049TIP3   OH227561   1.063   3.341   0.545  0.0018  0.2084 -0.3512
 2049TIP3    H127562   0.969   3.354   0.533  0.0977  0.0593 -1.2388
 2049TIP3    H227563   1.103   3.385   0.470  0.5603 -1.1198 -0.8358
 2050TIP3   OH227564   4.090   5.343   1.825 -1.0468  0.2098  0.0653
 2050TIP3    H127565   4.080   5.285   1.750 -0.8441  0.8852 -0.4790
 2050TIP3    H227566   4.174   5.386   1.812 -0.9908  0.2986  0.7012
 2051TIP3   OH227567   1.998   4.795   2.886 -0.4054  0.0903  0.3002
 2051TIP3    H127568   1.959   4.730   2.943 -0.7244 -0.7188 -0.8304
 2051TIP3    H227569   2.070   4.749   2.843 -1.0441  0.2814 -1.0001
 2052TIP3   OH227570   2.861   1.453  11.407  0.2087 -0.5163 -0.2477
 2052TIP3    H127571   2.850   1.396  11.483 -0.6535 -1.0341 -0.7609
 2052TIP3    H227572   2.929   1.411  11.355 -1.6580 -2.0567 -1.5188
 2053TIP3   OH227573   3.148   1.229  10.440  0.1459  0.4033  0.2814
 2053TIP3    H127574   3.123   1.156  10.384  0.7041  0.1240  0.3886
 2053TIP3    H227575   3.223   1.269  10.395  0.4873  0.2800  0.7353
 2054TIP3   OH227576   6.509   5.419   3.362 -0.1995  0.7286  0.2032
 2054TIP3    H127577   6.492   5.383   3.275  0.9222 -1.4549  0.8516
 2054TIP3    H227578   6.583   5.479   3.349  0.6202 -0.3592 -0.1711
 2055TIP3   OH227579   5.817   6.666   5.013  0.0291  0.5183  0.2232
 2055TIP3    H127580   5.898   6.711   4.986  0.3096  1.0423  1.8599
 2055TIP3    H227581   5.768   6.733   5.060 -0.9828 -0.0358 -0.0468
 2056TIP3   OH227582   5.569   6.226   2.922  0.9389  0.3678  0.6502
 2056TIP3    H127583   5.587   6.273   3.003 -1.2883  0.5030  1.1079
 2056TIP3    H227584   5.561   6.294   2.855  0.4564  0.4345  0.7753
 2057TIP3   OH227585   0.364   3.539   2.499  0.2307  0.5115 -0.5420
 2057TIP3    H127586   0.321   3.578   2.575 -2.5161  0.7530 -2.1502
 2057TIP3    H227587   0.375   3.447   2.521  1.6553  1.0448  1.0683
 2058TIP3   OH227588   0.140   0.564  15.957 -0.0938  0.0137  0.4033
 2058TIP3    H127589   0.230   0.574  15.989 -0.0835  1.9321 -0.1809
 2058TIP3    H227590   0.145   0.588  15.865 -1.1926  0.0702  0.3575
 2059TIP3   OH227591   1.173   3.797  13.952  0.4964 -0.1744  0.0390
 2059TIP3    H127592   1.158   3.707  13.924  0.7417  0.2217 -1.4210
 2059TIP3    H227593   1.108   3.813  14.020  1.2498 -1.8351  1.1778
 2060TIP3   OH227594   4.941   3.817  16.818 -0.3226  0.4514 -0.2640
 2060TIP3    H127595   4.873   3.837  16.882  0.3281  1.9141  0.0098
 2060TIP3    H227596   4.923   3.877  16.745  0.0003  0.0521 -0.6715
 2061TIP3   OH227597   5.582   1.294   4.966 -0.4058  0.4286  0.4625
 2061TIP3    H127598   5.564   1.206   4.933 -3.1594  0.8745  0.6096
 2061TIP3    H227599   5.609   1.344   4.888 -0.3889 -0.1498  0.0979
 2062TIP3   OH227600   2.086   1.421   5.369 -0.2273 -0.1627  0.5928
 2062TIP3    H127601   2.126   1.336   5.354 -1.4649 -0.2181 -2.8961
 2062TIP3    H227602   2.158   1.483   5.358 -0.0905 -0.5420 -0.6991
 2063TIP3   OH227603   4.261   4.105   0.255  0.5311 -0.3881 -0.0038
 2063TIP3    H127604   4.306   4.152   0.326  1.2175  1.5509 -1.6808
 2063TIP3    H227605   4.200   4.047   0.301 -0.0219  1.7991  2.1682
 2064TIP3   OH227606   2.025   3.324   5.069  0.2216  0.5327 -0.9626
 2064TIP3    H127607   1.988   3.260   5.131 -0.2942  0.5928 -1.2140
 2064TIP3    H227608   1.998   3.409   5.103  1.9172  0.7027  0.0589
 2065TIP3   OH227609   3.325   6.130  14.620  0.0041 -0.2145  0.3642
 2065TIP3    H127610   3.329   6.156  14.712 -0.9795 -0.5960  0.5219
 2065TIP3    H227611   3.302   6.037  14.622 -0.9587  0.0007 -0.2765
 2066TIP3   OH227612   1.088   5.486   4.292 -0.0911 -0.3192  0.5892
 2066TIP3    H127613   1.053   5.410   4.338 -0.4892 -0.3477  0.2386
 2066TIP3    H227614   1.017   5.551   4.295  0.4227  0.2189  1.3211
 2067TIP3   OH227615   4.904   2.820   0.507  0.1025 -0.4096  0.6442
 2067TIP3    H127616   4.935   2.852   0.592 -0.0642 -2.1576  1.3886
 2067TIP3    H227617   4.873   2.898   0.461  1.0831  0.6794  1.8177
 2068TIP3   OH227618   3.135   4.506   3.398 -0.1530 -0.2261 -0.4808
 2068TIP3    H127619   3.139   4.582   3.456 -0.2322 -0.4661 -0.1631
 2068TIP3    H227620   3.225   4.498   3.365 -0.4828  0.9331 -1.7121
 2069TIP3   OH227621   5.588   3.453   3.572 -0.5287  0.3667 -0.3447
 2069TIP3    H127622   5.633   3.379   3.614 -0.4661 -1.4036 -3.4370
 2069TIP3    H227623   5.642   3.474   3.496 -2.2429  1.5188 -1.2751
 2070TIP3   OH227624   5.350   2.502   5.633 -0.7990 -0.5795 -0.3645
 2070TIP3    H127625   5.352   2.458   5.548 -0.1538 -0.5785 -0.3512
 2070TIP3    H227626   5.282   2.457   5.682  0.6355 -2.3186  0.0581
 2071TIP3   OH227627   6.385   1.408   5.897  0.0735  0.1124  0.3189
 2071TIP3    H127628   6.379   1.337   5.834  0.2693 -0.7318  1.2369
 2071TIP3    H227629   6.468   1.392   5.943  0.0348  0.8318  0.6412
 2072TIP3   OH227630   4.926   3.379   4.791 -0.1523 -0.4262  0.6689
 2072TIP3    H127631   4.846   3.370   4.739 -0.2991 -0.6568  0.9314
 2072TIP3    H227632   4.995   3.341   4.736 -0.1828 -0.0100  0.3463
 2073TIP3   OH227633   4.328   1.636   3.728  0.2946 -0.1028  0.3131
 2073TIP3    H127634   4.334   1.676   3.642 -1.6964 -0.7880 -0.1635
 2073TIP3    H227635   4.237   1.647   3.754  0.9017  0.2348  2.4034
 2074TIP3   OH227636   3.732   3.691  15.763  0.6020  0.0268 -0.0950
 2074TIP3    H127637   3.671   3.620  15.782  0.1358  0.3259 -0.4473
 2074TIP3    H227638   3.707   3.762  15.822  0.1347  0.4089 -0.7456
 2075TIP3   OH227639   6.098   2.806  12.316  0.2392 -0.6152  0.0039
 2075TIP3    H127640   6.005   2.794  12.335  0.3173  0.0884  0.8872
 2075TIP3    H227641   6.111   2.767  12.230 -0.7527 -1.2555  0.1461
 2076TIP3   OH227642   0.265   3.898  12.173  0.0417 -0.4315 -0.3391
 2076TIP3    H127643   0.360   3.913  12.179  0.1508 -1.3696  0.4014
 2076TIP3    H227644   0.227   3.985  12.189  0.7103 -0.6204  2.6368
 2077TIP3   OH227645   1.605   5.783   3.516 -0.0845 -0.2074  0.0393
 2077TIP3    H127646   1.550   5.788   3.438  0.8588 -0.4131 -0.6436
 2077TIP3    H227647   1.633   5.874   3.531 -2.7947  0.3762  1.9992
 2078TIP3   OH227648   6.570   2.761   1.082  0.4335  0.7891  0.7566
 2078TIP3    H127649   6.652   2.749   1.131  0.2134 -1.8237  0.5702
 2078TIP3    H227650   6.594   2.744   0.991 -0.9102 -3.5115  1.0788
 2079TIP3   OH227651   5.927   2.817   2.146  0.2163 -0.0161 -0.0594
 2079TIP3    H127652   5.904   2.877   2.075  1.5666  0.3967 -0.1630
 2079TIP3    H227653   5.861   2.747   2.141 -0.6939  0.8723 -0.6459
 2080TIP3   OH227654   4.796   5.472  11.063  0.3642 -0.4947 -0.3592
 2080TIP3    H127655   4.808   5.522  11.144 -0.5714 -1.4658  0.3834
 2080TIP3    H227656   4.849   5.393  11.075 -0.2128 -0.9018 -0.4621
 2081TIP3   OH227657   4.503   6.312   2.249  0.0351  0.3153  0.7021
 2081TIP3    H127658   4.419   6.293   2.290  1.3091  1.0785  3.7711
 2081TIP3    H227659   4.527   6.398   2.283  2.5580 -0.3644  0.7337
 2082TIP3   OH227660   5.175   0.284   0.395  0.1557 -0.3449  0.3396
 2082TIP3    H127661   5.159   0.326   0.310 -2.6533  2.3119  2.0675
 2082TIP3    H227662   5.223   0.349   0.446  0.5791 -1.3630  1.2615
 2083TIP3   OH227663   4.891   6.279  15.850  0.2793 -0.4050 -0.3986
 2083TIP3    H127664   4.867   6.188  15.835 -1.6805  0.1019 -0.4397
 2083TIP3    H227665   4.887   6.291  15.945 -1.7213  0.2181 -0.5418
 2084TIP3   OH227666   3.357   1.170   0.691  0.1968  0.4683  0.1005
 2084TIP3    H127667   3.319   1.257   0.680  0.1499  0.5700  1.0282
 2084TIP3    H227668   3.390   1.147   0.604  1.3837  1.9624  0.1276
 2085TIP3   OH227669   3.940   6.208   1.748  0.2675  0.0232  0.5657
 2085TIP3    H127670   3.997   6.250   1.813 -0.2333  1.5079  0.0724
 2085TIP3    H227671   3.896   6.281   1.704  0.2772 -0.9821 -1.1567
 2086TIP3   OH227672   3.209   3.880  14.331 -0.4102 -0.1169  0.2770
 2086TIP3    H127673   3.205   3.975  14.324 -0.0008 -0.0876  0.4658
 2086TIP3    H227674   3.278   3.854  14.270 -0.3329 -0.2692  0.4278
 2087TIP3   OH227675   4.061   6.758   0.804 -0.1616 -0.0981  0.1487
 2087TIP3    H127676   4.052   6.677   0.755  1.3464  0.3939 -0.9900
 2087TIP3    H227677   4.151   6.756   0.838 -0.2907  0.8413  0.5683
 2088TIP3   OH227678   1.337   5.801  15.687  0.0005  0.1573  0.5362
 2088TIP3    H127679   1.250   5.831  15.662  0.1563 -0.9564 -1.4365
 2088TIP3    H227680   1.322   5.750  15.767 -0.7618  2.2047  1.7305
 2089TIP3   OH227681   2.140   0.455  16.136 -0.4038 -0.1478  0.4402
 2089TIP3    H127682   2.200   0.382  16.121 -1.0908 -0.7782  0.7245
 2089TIP3    H227683   2.095   0.432  16.217  1.1759  1.8127  1.9283
 2090TIP3   OH227684   4.640   1.390   2.472  0.6109  0.2958 -0.0556
 2090TIP3    H127685   4.575   1.333   2.431  0.4405 -0.3620  1.0737
 2090TIP3    H227686   4.693   1.424   2.400 -1.8697  1.9899 -1.1210
 2091TIP3   OH227687   4.481   6.743   3.562 -0.0509 -0.1363 -0.0918
 2091TIP3    H127688   4.427   6.665   3.551 -1.8240  0.6546  2.5921
 2091TIP3    H227689   4.546   6.718   3.628  0.0027  0.3211  0.0318
 2092TIP3   OH227690   1.635   2.647   1.781  0.1539  0.2209  0.3517
 2092TIP3    H127691   1.680   2.650   1.697 -1.7183 -1.9060 -0.7998
 2092TIP3    H227692   1.684   2.584   1.833 -1.4955 -2.2535 -0.9749
 2093TIP3   OH227693   6.465   0.488  15.952 -0.0139  0.6820  0.6087
 2093TIP3    H127694   6.519   0.431  16.007 -0.5989  0.1016  0.5928
 2093TIP3    H227695   6.482   0.458  15.863  1.8669  2.4272  0.3656
 2094TIP3   OH227696   6.132   2.733   2.827 -0.3160  0.3273  0.2532
 2094TIP3    H127697   6.220   2.708   2.853 -0.8503 -0.3248  1.4640
 2094TIP3    H227698   6.132   2.829   2.830  0.6780  0.3717 -0.8860
 2095TIP3   OH227699   4.637   2.909   3.596 -0.3109 -0.5681  0.0300
 2095TIP3    H127700   4.638   2.890   3.690  2.3514  1.0992  0.3656
 2095TIP3    H227701   4.662   2.827   3.555 -0.5026 -1.0300  0.8166
 2096TIP3   OH227702   1.399   1.451  15.767 -0.2995  0.6650  0.3190
 2096TIP3    H127703   1.394   1.435  15.862 -0.0691 -1.1271  0.0432
 2096TIP3    H227704   1.485   1.491  15.754  0.4006 -0.6913  0.6640
 2097TIP3   OH227705   1.575   2.046   4.459  0.2639  0.0244 -0.1479
 2097TIP3    H127706   1.597   1.953   4.464  1.1761  0.2535  0.1701
 2097TIP3    H227707   1.654   2.087   4.425 -0.2976  0.6296 -0.7590
 2098TIP3   OH227708   4.672   1.872   0.200 -0.6310 -0.0528  0.0370
 2098TIP3    H127709   4.664   1.941   0.134  0.1228 -0.9815 -1.0507
 2098TIP3    H227710   4.585   1.834   0.207 -0.4823 -0.6206 -1.1706
 2099TIP3   OH227711   0.032   2.429   2.387 -0.1213 -0.0053 -0.4705
 2099TIP3    H127712   0.043   2.484   2.464  0.8227 -0.4841 -0.2485
 2099TIP3    H227713   0.094   2.357   2.401 -1.1483 -0.9822 -0.8726
 2100TIP3   OH227714   5.942   0.493  13.071 -0.1456  0.2749  0.0362
 2100TIP3    H127715   5.941   0.408  13.028 -0.6108  0.1671  0.2566
 2100TIP3    H227716   6.033   0.521  13.067 -0.2188  0.3735 -1.2349
 2101TIP3   OH227717   1.201   1.080   1.592  1.0332 -0.1813 -0.0273
 2101TIP3    H127718   1.256   1.134   1.649  2.1208 -0.4254 -0.8218
 2101TIP3    H227719   1.231   0.991   1.607 -0.9686 -0.6274  1.5064
 2102TIP3   OH227720   5.610   2.973  11.739 -0.0760  0.7717  0.0863
 2102TIP3    H127721   5.655   2.889  11.750 -1.3293  0.2522  1.4595
 2102TIP3    H227722   5.678   3.033  11.709  0.9539 -0.6151 -0.4071
 2103TIP3   OH227723   3.912   6.408  11.158  0.3837 -0.1407 -0.5065
 2103TIP3    H127724   3.820   6.383  11.155  0.3935 -0.0659 -1.5707
 2103TIP3    H227725   3.914   6.486  11.213  0.0733 -1.2038  1.0694
 2104TIP3   OH227726   0.407   5.716  14.042  0.4204  0.1554 -1.1349
 2104TIP3    H127727   0.453   5.698  13.961  0.5254 -0.0889 -1.0233
 2104TIP3    H227728   0.341   5.646  14.048  1.7706 -1.0560  0.0166
 2105TIP3   OH227729   0.297   1.653   5.953  0.4209  0.3710  0.1831
 2105TIP3    H127730   0.346   1.585   5.906  0.7923 -1.4645  3.0787
 2105TIP3    H227731   0.361   1.721   5.972  0.7033  0.2454 -0.3343
 2106TIP3   OH227732   4.881   3.489   5.758 -0.4892  0.3030 -0.0747
 2106TIP3    H127733   4.840   3.465   5.841 -0.7166 -2.9019 -1.0261
 2106TIP3    H227734   4.814   3.469   5.692  0.4460  0.8146 -1.1925
 2107TIP3   OH227735   4.648   4.889   5.223  0.3175  0.4194 -0.0966
 2107TIP3    H127736   4.608   4.909   5.307 -0.7939  0.9066 -0.7333
 2107TIP3    H227737   4.725   4.946   5.218  0.6868  0.0028  0.8127
 2108TIP3   OH227738   3.481   5.038  13.811  0.1632  0.0917  0.2952
 2108TIP3    H127739   3.568   4.997  13.806 -0.3265 -1.0721  1.2157
 2108TIP3    H227740   3.427   4.975  13.857 -0.8975  1.3124  0.7579
 2109TIP3   OH227741   0.352   5.875   6.627  0.4675  0.2682 -0.1920
 2109TIP3    H127742   0.325   5.784   6.620 -0.2111  0.4085  0.5351
 2109TIP3    H227743   0.447   5.874   6.611  0.7091 -0.7470  1.2692
 2110TIP3   OH227744   2.564   4.030  12.347  0.3315  0.0820 -0.3059
 2110TIP3    H127745   2.584   4.028  12.441 -0.1403  2.9226 -0.1003
 2110TIP3    H227746   2.470   4.048  12.343  0.2725 -0.4463 -1.3409
 2111TIP3   OH227747   4.532   2.380  17.110  0.0751 -0.5521  0.0989
 2111TIP3    H127748   4.541   2.362  17.204 -0.7058 -0.2434  0.2310
 2111TIP3    H227749   4.566   2.301  17.068  3.5679  0.6053  0.5801
 2112TIP3   OH227750   2.581   4.674   4.818  0.0495 -0.2113  0.4534
 2112TIP3    H127751   2.538   4.661   4.734  0.2277  0.6505  0.2219
 2112TIP3    H227752   2.622   4.590   4.837  0.7617 -0.1607 -0.7624
 2113TIP3   OH227753   6.409   3.883   5.856  0.2285  0.6467  0.1116
 2113TIP3    H127754   6.345   3.865   5.925  0.3297  0.0101  0.0447
 2113TIP3    H227755   6.366   3.852   5.776 -0.6573  3.0812 -0.4016
 2114TIP3   OH227756   4.673   0.846  13.277  0.1742 -0.8264  0.0684
 2114TIP3    H127757   4.612   0.914  13.247  0.6144 -0.6397 -0.4138
 2114TIP3    H227758   4.618   0.770  13.293 -0.0436 -0.9806 -1.3994
 2115TIP3   OH227759   0.676   1.005  12.853  0.0356  0.2208  0.0264
 2115TIP3    H127760   0.591   1.048  12.842  0.9743  1.9529 -0.7108
 2115TIP3    H227761   0.705   0.986  12.763 -0.1952 -1.6589  0.3244
 2116TIP3   OH227762   3.697   0.692   1.014  0.0366  0.0923 -0.5052
 2116TIP3    H127763   3.641   0.661   1.084  0.7074 -2.8315 -1.2131
 2116TIP3    H227764   3.786   0.678   1.046  0.3457 -0.6561 -1.6619
 2117TIP3   OH227765   6.404   2.118  14.645 -0.3855  0.0489  0.2007
 2117TIP3    H127766   6.471   2.185  14.633  0.1587 -0.5893 -0.3489
 2117TIP3    H227767   6.378   2.126  14.737  1.3882 -0.5988  0.7661
 2118TIP3   OH227768   0.140   2.057   5.771 -0.0072  0.1757 -0.4099
 2118TIP3    H127769   0.212   2.003   5.737  2.2157  1.9579  1.3418
 2118TIP3    H227770   0.154   2.143   5.732 -1.5801  0.3796 -0.5454
 2119TIP3   OH227771   5.067   1.937   3.378  0.0919 -0.1001 -0.3985
 2119TIP3    H127772   5.089   1.887   3.299 -1.0966  0.1921 -0.9217
 2119TIP3    H227773   4.980   1.973   3.360  0.0431  0.4095  0.8309
 2120TIP3   OH227774   3.156   4.664  15.645  0.3992  0.5302 -0.5907
 2120TIP3    H127775   3.129   4.658  15.554  1.2197  0.7548 -0.8540
 2120TIP3    H227776   3.180   4.575  15.669 -1.7439  0.0956  0.0244
 2121TIP3   OH227777   0.980   6.442  11.374  0.0591  0.2441  0.3536
 2121TIP3    H127778   1.068   6.412  11.350 -0.3853 -0.3885 -0.5435
 2121TIP3    H227779   0.925   6.364  11.364 -0.8187  0.9395 -0.3113
 2122TIP3   OH227780   6.431   2.904  16.010  0.1260  0.0101 -0.1611
 2122TIP3    H127781   6.508   2.925  16.063 -1.2447  1.9020  1.1852
 2122TIP3    H227782   6.433   2.968  15.939 -1.2842  1.4187  1.0359
 2123TIP3   OH227783   2.377   3.675   2.121  0.3073 -0.2943 -0.3891
 2123TIP3    H127784   2.437   3.683   2.195  1.7930 -1.8143 -1.3727
 2123TIP3    H227785   2.294   3.649   2.159  1.1927 -1.5876  0.7177
 2124TIP3   OH227786   4.830   4.121   4.485  0.2415 -0.2479 -0.4677
 2124TIP3    H127787   4.755   4.163   4.444 -1.0104 -1.6807  0.2826
 2124TIP3    H227788   4.871   4.071   4.414 -0.9260 -1.3647 -0.3772
 2125TIP3   OH227789   4.982   5.638  15.337 -0.0916 -0.5398 -0.0977
 2125TIP3    H127790   4.916   5.599  15.279  0.4155 -1.3654 -0.1308
 2125TIP3    H227791   4.931   5.681  15.405 -0.7019  0.7127 -1.3249
 2126TIP3   OH227792   3.114   0.144  11.271 -0.3706 -0.4447 -0.5015
 2126TIP3    H127793   3.146   0.071  11.218 -1.2849 -0.9002 -0.4271
 2126TIP3    H227794   3.023   0.122  11.291 -0.5597  0.5635 -0.2096
 2127TIP3   OH227795   2.154   4.596  15.447 -0.4166 -0.1337 -0.1622
 2127TIP3    H127796   2.226   4.652  15.477  1.1128 -2.9489  1.6664
 2127TIP3    H227797   2.116   4.643  15.373  3.4570  1.3191 -1.3364
 2128TIP3   OH227798   0.511   1.103  12.084 -0.2528  0.2963 -0.0401
 2128TIP3    H127799   0.581   1.156  12.122 -1.3756  1.7172  0.1035
 2128TIP3    H227800   0.500   1.030  12.145  1.2256 -0.0446 -0.1685
 2129TIP3   OH227801   1.416   2.640   2.095 -0.2864  0.1863  0.4273
 2129TIP3    H127802   1.497   2.594   2.072 -0.7581  0.3806 -1.7902
 2129TIP3    H227803   1.442   2.703   2.162  1.3940  0.1795 -0.1758
 2130TIP3   OH227804   2.105   5.056  14.854  0.2111  0.4841 -0.2822
 2130TIP3    H127805   2.192   5.096  14.852  1.0246 -1.2523 -0.2642
 2130TIP3    H227806   2.118   4.969  14.892 -1.2918 -0.3318 -1.5292
 2131TIP3   OH227807   6.540   0.789  15.071  0.1449 -0.0605  0.1098
 2131TIP3    H127808   6.576   0.836  14.996 -0.4766  0.7949  0.3343
 2131TIP3    H227809   6.509   0.706  15.034  0.6853 -0.0365 -0.4055
 2132TIP3   OH227810   0.157   6.274  14.127 -0.2428  0.3723  0.4890
 2132TIP3    H127811   0.238   6.326  14.126 -0.2140  0.3102 -1.8437
 2132TIP3    H227812   0.186   6.185  14.145  0.4048  0.0722 -1.9232
 2133TIP3   OH227813   3.939   3.207  11.335  0.6568  0.1745  0.1784
 2133TIP3    H127814   3.941   3.228  11.428  0.8061 -0.6016  0.3478
 2133TIP3    H227815   4.023   3.165  11.317  0.4227 -0.1456 -0.1935
 2134TIP3   OH227816   4.196   4.361  14.468  0.3327 -0.1463  0.2763
 2134TIP3    H127817   4.248   4.354  14.388  0.8841 -1.1388  0.7230
 2134TIP3    H227818   4.147   4.443  14.457 -1.1222 -1.2581 -2.0001
 2135TIP3   OH227819   1.327   1.311   4.185  0.5536  0.4931 -0.2482
 2135TIP3    H127820   1.339   1.406   4.187  0.3053  0.5241  2.1505
 2135TIP3    H227821   1.373   1.280   4.263 -0.8116 -1.1510 -0.0768
 2136TIP3   OH227822   4.930   4.210   3.650 -0.7504 -0.1819 -0.3950
 2136TIP3    H127823   4.915   4.116   3.639  1.1548 -0.4373 -0.9591
 2136TIP3    H227824   5.012   4.227   3.603 -0.6675  1.6166  0.3608
 2137TIP3   OH227825   3.116   0.550  13.980  0.2102 -0.2368 -0.2702
 2137TIP3    H127826   3.098   0.591  14.065 -0.4257 -0.1535 -0.4456
 2137TIP3    H227827   3.169   0.614  13.933  0.0220 -0.0173 -0.1807
 2138TIP3   OH227828   4.319   4.468   3.306 -0.4914  0.5405 -0.0507
 2138TIP3    H127829   4.290   4.387   3.263 -0.6465  1.5420 -1.8626
 2138TIP3    H227830   4.412   4.452   3.326 -0.7507 -0.4213  0.4132
 2139TIP3   OH227831   4.978   2.400  15.277 -0.3179 -0.0279  0.5001
 2139TIP3    H127832   4.995   2.306  15.278  0.9125  0.1861  0.5083
 2139TIP3    H227833   5.042   2.437  15.337 -0.9697  0.7936  0.7011
 2140TIP3   OH227834   3.881   0.886   2.447  0.0987 -0.3357  0.1441
 2140TIP3    H127835   3.863   0.792   2.455  0.4180 -0.2258  2.4243
 2140TIP3    H227836   3.878   0.903   2.352 -1.5793 -2.3097 -0.1895
 2141TIP3   OH227837   3.791   1.975  12.060  0.3232  0.1477  0.2669
 2141TIP3    H127838   3.766   1.940  11.974  0.6149 -1.6321  0.8995
 2141TIP3    H227839   3.849   2.049  12.039 -1.5994  1.3255 -1.1011
 2142TIP3   OH227840   5.670   4.605   4.590 -0.7779  0.3995  0.3766
 2142TIP3    H127841   5.627   4.689   4.608 -1.1511  0.0408  1.1888
 2142TIP3    H227842   5.686   4.606   4.496  1.2641  2.3492  0.7172
 2143TIP3   OH227843   5.128   5.078   4.425 -0.1587 -0.4507 -0.0267
 2143TIP3    H127844   5.215   5.096   4.460  0.6543  0.7839 -2.5771
 2143TIP3    H227845   5.112   4.987   4.447  2.6399 -1.2984 -1.2206
 2144TIP3   OH227846   5.673   0.223  13.871  0.7108 -0.3276  0.0207
 2144TIP3    H127847   5.756   0.242  13.916  0.9754 -0.0678 -0.5753
 2144TIP3    H227848   5.608   0.226  13.941  0.5894  3.7559 -0.1088
 2145TIP3   OH227849   5.712   1.336   2.519  0.2367  0.4784  0.3439
 2145TIP3    H127850   5.641   1.399   2.503  0.5721  0.4409 -1.3991
 2145TIP3    H227851   5.669   1.261   2.559 -0.6011  0.7435 -0.0361
 2146TIP3   OH227852   0.608   5.193   5.371 -0.3013 -0.9278 -0.1191
 2146TIP3    H127853   0.575   5.103   5.363 -0.6523 -0.7926 -0.1658
 2146TIP3    H227854   0.661   5.206   5.293 -2.5062 -0.1313 -1.5146
 2147TIP3   OH227855   6.648   6.177  12.510  0.0763  1.1970  0.2451
 2147TIP3    H127856   6.666   6.210  12.599 -1.5612  1.4881  0.4810
 2147TIP3    H227857   6.630   6.256  12.459  1.0090  1.0270 -0.3500
 2148TIP3   OH227858   1.827   1.314  10.584 -0.2503 -0.0985 -0.2581
 2148TIP3    H127859   1.909   1.280  10.619 -0.7128 -0.6411  0.3213
 2148TIP3    H227860   1.762   1.248  10.607 -1.1051  1.0281  0.6286
 2149TIP3   OH227861   2.231   4.835  16.258  0.2106 -0.1323  0.5719
 2149TIP3    H127862   2.258   4.924  16.237 -1.2259  0.5400  1.5534
 2149TIP3    H227863   2.234   4.789  16.174  1.7497  0.6186  0.1994
 2150TIP3   OH227864   4.679   0.290   2.645 -0.6378  0.3072  0.3344
 2150TIP3    H127865   4.742   0.361   2.660 -1.1403  0.8022  0.1361
 2150TIP3    H227866   4.613   0.329   2.587 -2.2218  0.4113  2.1864
 2151TIP3   OH227867   2.871   3.640   1.834  0.1863 -0.3713 -0.7716
 2151TIP3    H127868   2.806   3.654   1.903  0.8236  0.3675 -0.3156
 2151TIP3    H227869   2.863   3.547   1.812  0.5400 -0.7955  0.8713
 2152TIP3   OH227870   2.040   2.809  11.048  0.2135 -0.3515 -0.3360
 2152TIP3    H127871   1.971   2.793  11.112 -2.2953  0.0999 -2.8053
 2152TIP3    H227872   2.090   2.882  11.083 -1.8215  0.6276  0.5854
 2153TIP3   OH227873   6.176   1.401  11.228 -0.1857 -0.1154  0.1836
 2153TIP3    H127874   6.206   1.385  11.318  1.3832  0.3442 -0.2335
 2153TIP3    H227875   6.125   1.323  11.206  0.6720 -0.9155  0.9580
 2154TIP3   OH227876   2.341   4.880  16.775  0.5148  0.1202 -0.6667
 2154TIP3    H127877   2.431   4.848  16.781  0.2290 -0.7746 -0.9671
 2154TIP3    H227878   2.313   4.853  16.687 -0.1107  0.2148 -0.4939
 2155TIP3   OH227879   4.475   2.443  16.424  0.4134  1.0700  0.1388
 2155TIP3    H127880   4.391   2.410  16.393  2.2840 -1.9656 -1.8060
 2155TIP3    H227881   4.480   2.532  16.389 -0.9480  0.4421 -1.7096
 2156TIP3   OH227882   6.640   3.842   0.166 -0.2495  0.4110  0.0597
 2156TIP3    H127883   6.701   3.847   0.093  1.3566 -1.9515  1.1774
 2156TIP3    H227884   6.678   3.898   0.234  0.0783 -0.1347  0.3301
 2157TIP3   OH227885   1.597   5.494  15.896  0.7455 -0.2641 -0.4305
 2157TIP3    H127886   1.610   5.411  15.943 -0.8566  0.0253  0.5537
 2157TIP3    H227887   1.665   5.494  15.829  0.0718 -2.9152 -1.1767
 2158TIP3   OH227888   4.160   4.227  15.052 -0.1808 -0.7675 -0.3436
 2158TIP3    H127889   4.136   4.276  15.131 -0.6572 -0.1852 -0.8346
 2158TIP3    H227890   4.237   4.273  15.018  0.3599 -1.3514  0.0769
 2159TIP3   OH227891   5.598   3.236  14.676 -0.2219  0.1295  0.1458
 2159TIP3    H127892   5.575   3.149  14.709  1.7227  0.1292  1.6089
 2159TIP3    H227893   5.543   3.296  14.726 -0.4061 -0.1635  0.2973
 2160TIP3   OH227894   0.137   3.141   1.357  0.8069  0.2037 -0.2371
 2160TIP3    H127895   0.112   3.162   1.447  1.6939 -0.1243  0.0940
 2160TIP3    H227896   0.170   3.223   1.321  2.6004 -0.1672  0.4859
 2161TIP3   OH227897   5.716   6.703  12.986  0.4490 -0.1104  0.1541
 2161TIP3    H127898   5.707   6.796  12.965  0.8678 -0.1011  0.0050
 2161TIP3    H227899   5.627   6.668  12.982  0.1427  0.5049  1.2445
 2162TIP3   OH227900   0.267   0.683  13.603  0.0787  0.5994  0.0088
 2162TIP3    H127901   0.309   0.756  13.649  0.3465  0.7424 -0.4641
 2162TIP3    H227902   0.195   0.657  13.661  2.1961 -1.1494  1.9764
 2163TIP3   OH227903   0.170   1.837   4.503 -0.2442  0.5407 -0.4567
 2163TIP3    H127904   0.109   1.779   4.547 -0.7783  1.4207 -0.0248
 2163TIP3    H227905   0.243   1.780   4.477 -0.6158 -0.2565  0.2322
 2164TIP3   OH227906   1.445   0.937   1.262  0.0305 -0.1884 -0.2660
 2164TIP3    H127907   1.477   0.966   1.176  0.4863 -0.5526 -0.2219
 2164TIP3    H227908   1.407   1.016   1.302 -0.2047 -0.0255 -0.8103
 2165TIP3   OH227909   5.842   3.763   1.625  0.0836  0.3852 -0.0567
 2165TIP3    H127910   5.753   3.740   1.652 -0.0127 -0.5744 -1.1669
 2165TIP3    H227911   5.834   3.852   1.590 -0.9998 -0.6990 -2.7442
 2166TIP3   OH227912   2.273   3.203   2.043  0.3251  0.8666  0.3711
 2166TIP3    H127913   2.271   3.118   2.088 -0.1279  0.1697 -0.9334
 2166TIP3    H227914   2.247   3.183   1.953  0.4316  2.3635 -0.0062
 2167TIP3   OH227915   6.633   5.715   5.682  0.0331 -0.2581  0.0174
 2167TIP3    H127916   6.553   5.676   5.715  0.4398 -0.3435  0.9198
 2167TIP3    H227917   6.667   5.766   5.755 -0.6355  2.0435 -1.2279
 2168TIP3   OH227918   6.031   0.616  14.930  0.4621  0.2633  0.2185
 2168TIP3    H127919   6.013   0.705  14.901  0.2864  0.3533  0.6121
 2168TIP3    H227920   5.977   0.604  15.008  0.1124 -0.3565 -0.1181
 2169TIP3   OH227921   1.296   1.874   2.680 -0.2741  0.0856 -0.1770
 2169TIP3    H127922   1.262   1.906   2.597 -2.1288 -0.6850  0.2565
 2169TIP3    H227923   1.221   1.875   2.739  1.3779  2.1584  1.9825
 2170TIP3   OH227924   4.374   2.164  14.610 -0.0954 -0.6071 -0.4277
 2170TIP3    H127925   4.375   2.255  14.640 -0.0560 -0.0506 -2.0756
 2170TIP3    H227926   4.281   2.139  14.613 -0.0589 -0.6596  0.4282
 2171TIP3   OH227927   2.136   3.092   5.846  0.8368 -0.4730  0.2633
 2171TIP3    H127928   2.056   3.040   5.847 -0.2300  1.0776 -1.4203
 2171TIP3    H227929   2.115   3.172   5.894  1.3028  0.0367 -0.3673
 2172TIP3   OH227930   3.368   0.199  14.360  0.2415 -0.0284 -0.3298
 2172TIP3    H127931   3.311   0.127  14.333  0.5321  0.0764 -1.2398
 2172TIP3    H227932   3.409   0.229  14.279  0.8711  0.5190  0.1853
 2173TIP3   OH227933   4.503   5.563  15.958  0.1439 -0.2357  0.5336
 2173TIP3    H127934   4.562   5.535  16.028 -0.9376 -2.2009  0.7145
 2173TIP3    H227935   4.476   5.651  15.982  1.1116 -0.2550  1.7040
 2174TIP3   OH227936   5.231   0.219  13.151 -0.0401 -0.0883  0.1419
 2174TIP3    H127937   5.231   0.193  13.059  0.8976 -1.3827  0.5038
 2174TIP3    H227938   5.184   0.149  13.197  0.2195  0.1415  0.7694
 2175TIP3   OH227939   5.023   3.620  15.160  0.1242  0.3562  0.0348
 2175TIP3    H127940   4.984   3.558  15.098 -0.4398  1.1771 -0.4360
 2175TIP3    H227941   5.029   3.571  15.242 -3.1316  0.6257  0.4755
 2176TIP3   OH227942   4.560   0.498   2.480  0.5695 -0.2271  0.3220
 2176TIP3    H127943   4.479   0.507   2.430  1.2113 -0.6533 -0.8119
 2176TIP3    H227944   4.541   0.540   2.564  0.5389  3.5664 -1.4685
 2177TIP3   OH227945   5.009   2.090   5.051  0.1533 -0.1011 -0.3611
 2177TIP3    H127946   4.982   2.003   5.081  0.2375  0.0888  0.2648
 2177TIP3    H227947   4.939   2.148   5.079  0.6577  0.2159  0.2773
 2178TIP3   OH227948   3.497   0.612  13.372  0.0361  0.5301  0.2689
 2178TIP3    H127949   3.468   0.584  13.460 -1.1398  1.1376  0.0874
 2178TIP3    H227950   3.589   0.587  13.368  0.0880  0.4534  1.6656
 2179TIP3   OH227951   1.547   1.220   1.944  0.1871  0.0029 -0.2746
 2179TIP3    H127952   1.507   1.216   1.857  0.1691 -1.3567 -0.2130
 2179TIP3    H227953   1.482   1.181   2.002  2.1143 -3.5984 -0.3888
 2180TIP3   OH227954   2.705   5.640   4.970  0.1245  0.2478 -0.2513
 2180TIP3    H127955   2.613   5.631   4.997  0.6469 -1.3949  1.0901
 2180TIP3    H227956   2.736   5.718   5.016 -0.4047  0.3943 -0.1330
 2181TIP3   OH227957   5.384   0.821  12.698 -0.3163  0.2919  0.1860
 2181TIP3    H127958   5.345   0.799  12.614 -1.0111 -1.3520  0.9252
 2181TIP3    H227959   5.350   0.755  12.759  3.2585 -0.9339  0.9618
 2182TIP3   OH227960   1.064   5.165  14.204  0.3931  0.2365  0.1503
 2182TIP3    H127961   1.045   5.076  14.176 -0.9831  0.3106  0.7780
 2182TIP3    H227962   1.156   5.179  14.183  0.2142 -0.8071 -1.3637
 2183TIP3   OH227963   4.175   2.843  14.651  0.0683 -0.3476 -0.1478
 2183TIP3    H127964   4.244   2.869  14.591 -0.4804 -2.5687 -1.8017
 2183TIP3    H227965   4.110   2.914  14.646  0.6618  0.1280 -1.1164
 2184TIP3   OH227966   6.527   1.006   0.004 -0.2762  0.3089 -0.1894
 2184TIP3    H127967   6.572   0.952  -0.061  0.6466  0.2759  0.4649
 2184TIP3    H227968   6.517   1.092  -0.038  1.1096  0.5460 -0.0517
 2185TIP3   OH227969   4.941   1.764  11.609 -0.0504 -0.6667  0.1980
 2185TIP3    H127970   4.869   1.800  11.557  0.4279 -1.7330 -1.2512
 2185TIP3    H227971   4.980   1.840  11.652 -0.6922  0.1958 -0.7127
 2186TIP3   OH227972   2.531   5.142   3.442  0.1208 -0.1938 -0.0810
 2186TIP3    H127973   2.603   5.080   3.431 -0.4334 -0.6863 -0.9858
 2186TIP3    H227974   2.548   5.210   3.378  0.7750  0.6541  0.9697
 2187TIP3   OH227975   0.873   5.445  13.142 -0.2197 -0.3160  0.2755
 2187TIP3    H127976   0.855   5.376  13.078  0.3438  0.1344 -0.3632
 2187TIP3    H227977   0.803   5.435  13.207 -2.7288  1.2939 -2.0999
 2188TIP3   OH227978   3.973   2.617   5.813  0.2320  0.6100  0.1177
 2188TIP3    H127979   4.014   2.682   5.870  0.6430  0.3332  0.1491
 2188TIP3    H227980   3.963   2.540   5.870  3.1814 -0.6030 -0.8777
 2189TIP3   OH227981   4.065   5.480  17.193  0.3618 -0.2308 -0.0741
 2189TIP3    H127982   4.055   5.560  17.142 -2.1544 -0.8826 -0.6799
 2189TIP3    H227983   4.024   5.412  17.140  1.0960 -1.6450  1.1150
 2190TIP3   OH227984   6.645   1.087  14.533  0.1690 -0.0564 -0.6275
 2190TIP3    H127985   6.699   1.118  14.606  1.7531  0.1553 -1.8671
 2190TIP3    H227986   6.658   0.992  14.533 -0.2511 -0.1128 -0.3000
 2191TIP3   OH227987   6.026   5.769  11.226 -0.0411 -0.3984 -0.1928
 2191TIP3    H127988   6.121   5.768  11.214  0.1326 -1.2356  1.1793
 2191TIP3    H227989   5.994   5.703  11.166  0.2856 -0.4739 -0.2857
 2192TIP3   OH227990   2.568   5.557  11.921 -0.2397  0.2654  0.4511
 2192TIP3    H127991   2.542   5.466  11.909  1.4563 -0.0975 -0.6641
 2192TIP3    H227992   2.501   5.608  11.876 -1.6010 -0.3872  1.7204
 2193TIP3   OH227993   3.019   4.829  12.468 -0.4484  0.1900 -0.0638
 2193TIP3    H127994   2.985   4.915  12.493  0.6113  0.6964 -0.3191
 2193TIP3    H227995   3.037   4.785  12.552  0.5027  0.8310  0.0799
 2194TIP3   OH227996   5.373   4.752  11.798  0.6407  0.4413 -0.3996
 2194TIP3    H127997   5.296   4.810  11.804 -3.0979 -4.2083 -0.6626
 2194TIP3    H227998   5.407   4.767  11.710 -1.1701  1.1840 -1.0092
 2195TIP3   OH227999   3.656   5.698  12.880 -0.3847  0.6552 -0.1301
 2195TIP3    H128000   3.725   5.634  12.865 -0.0936  0.9049  0.1246
 2195TIP3    H228001   3.663   5.760  12.808  0.2640  1.2028  0.3980
 2196TIP3   OH228002   4.768   2.073  16.372 -0.0684  0.5827  0.1274
 2196TIP3    H128003   4.731   2.033  16.293 -1.0139  0.5375  0.5811
 2196TIP3    H228004   4.821   2.005  16.411 -0.9480  0.0508  0.4215
 2197TIP3   OH228005   4.593   3.888  12.120 -0.3593 -0.1617  0.4500
 2197TIP3    H128006   4.589   3.849  12.208 -1.0079  1.2177  1.0350
 2197TIP3    H228007   4.649   3.827  12.071  0.2024 -0.8389  1.8693
 2198TIP3   OH228008   0.702   2.665   0.880 -0.2651 -0.2855 -0.1751
 2198TIP3    H128009   0.692   2.744   0.826 -1.0582 -0.2002  0.0853
 2198TIP3    H228010   0.759   2.609   0.829  1.0627  0.8288  0.0532
 2199TIP3   OH228011   2.172   6.565   1.696 -0.2142  0.0362  0.2111
 2199TIP3    H128012   2.179   6.652   1.656 -0.2399 -0.4418 -0.8476
 2199TIP3    H228013   2.149   6.582   1.787 -1.8824  1.0888 -0.3899
 2200TIP3   OH228014   4.202   3.764   0.385 -0.5378 -0.1321 -0.0772
 2200TIP3    H128015   4.218   3.676   0.419 -1.9441 -0.9419 -1.4467
 2200TIP3    H228016   4.226   3.759   0.293  2.2327  1.7561  0.4899
 2201TIP3   OH228017   1.747   0.877   1.581 -0.8392  0.3833  0.2989
 2201TIP3    H128018   1.722   0.963   1.614 -1.4565  1.2765 -2.3506
 2201TIP3    H228019   1.838   0.888   1.551 -0.6172 -0.1332  0.7750
 2202TIP3   OH228020   3.426   1.562  13.163 -0.0259 -0.2733 -0.9898
 2202TIP3    H128021   3.359   1.523  13.108 -1.4516 -0.1948  0.6591
 2202TIP3    H228022   3.380   1.630  13.213  1.3225 -0.0473 -0.0279
 2203TIP3   OH228023   5.290   5.195  13.387  0.1001  0.8065 -0.1082
 2203TIP3    H128024   5.260   5.183  13.297  1.2584  2.6106 -0.7577
 2203TIP3    H228025   5.344   5.274  13.384  3.5827 -1.4027  1.3455
 2204TIP3   OH228026   2.369   2.850   2.707  0.2222 -0.0172 -0.3176
 2204TIP3    H128027   2.387   2.935   2.668 -2.4203  0.4360 -0.6930
 2204TIP3    H228028   2.275   2.852   2.725  0.4895 -2.1172  1.4903
 2205TIP3   OH228029   2.821   2.696  17.180 -0.0330  0.0235  0.0167
 2205TIP3    H128030   2.766   2.619  17.187  1.5026 -0.9879  1.3194
 2205TIP3    H228031   2.854   2.694  17.090 -2.8464  1.1920 -1.0997
 2206TIP3   OH228032   5.293   4.789   3.079 -0.2641  0.1987  0.1990
 2206TIP3    H128033   5.381   4.775   3.113  0.3879 -0.2183 -1.5918
 2206TIP3    H228034   5.279   4.715   3.019 -1.0347  1.3420 -1.0532
 2207TIP3   OH228035   6.055   5.611   6.506 -0.1767 -0.3756  0.0946
 2207TIP3    H128036   6.034   5.575   6.420  1.0313 -0.5595 -0.1384
 2207TIP3    H228037   6.054   5.535   6.565 -1.3136 -0.2016  0.3085
 2208TIP3   OH228038   2.950   0.230  12.605  0.0466 -0.2278 -0.0180
 2208TIP3    H128039   3.017   0.293  12.631  2.4075 -2.8298  0.5148
 2208TIP3    H228040   2.907   0.270  12.529  3.3942  0.7759 -1.4543
 2209TIP3   OH228041   0.259   0.065  14.618  0.3917 -0.6736 -0.1881
 2209TIP3    H128042   0.345   0.095  14.589 -0.3674  0.9221 -0.8515
 2209TIP3    H228043   0.233   0.000  14.553  0.5851 -0.3021 -0.6342
 2210TIP3   OH228044   4.231   5.266  12.602  0.0303 -0.5522  0.5720
 2210TIP3    H128045   4.221   5.277  12.696  0.3295  2.5488  0.2964
 2210TIP3    H228046   4.193   5.180  12.583  1.1786 -1.8098  3.6785
 2211TIP3   OH228047   2.643   0.919  13.760 -0.0480 -0.0509  0.3811
 2211TIP3    H128048   2.686   0.954  13.682 -4.5418  1.3785 -1.6196
 2211TIP3    H228049   2.598   0.841  13.729 -2.1208  0.6918  1.4386
 2212TIP3   OH228050   4.206   6.623  15.533 -0.4141 -0.0685  0.2090
 2212TIP3    H128051   4.233   6.627  15.441  1.2866  0.0950  0.7130
 2212TIP3    H228052   4.132   6.562  15.533  0.7850 -1.5880 -0.9915
 2213TIP3   OH228053   6.564   6.092  11.921 -0.1498 -0.0253 -0.0200
 2213TIP3    H128054   6.638   6.031  11.919 -0.6473 -0.6554  1.0043
 2213TIP3    H228055   6.547   6.107  12.014 -1.4507 -0.0321 -0.2536
 2214TIP3   OH228056   0.437   1.926  13.064 -0.5637  0.6036 -0.2581
 2214TIP3    H128057   0.434   1.832  13.045 -0.9890  0.4582  0.4900
 2214TIP3    H228058   0.481   1.931  13.149  1.6092  1.2591 -1.3765
 2215TIP3   OH228059   2.339   3.865  15.300  0.4840 -0.4985 -0.1284
 2215TIP3    H128060   2.366   3.920  15.227 -1.3704  0.0677 -0.4252
 2215TIP3    H228061   2.367   3.913  15.378 -0.2935  0.4245 -0.4070
 2216TIP3   OH228062   6.420   4.255  13.051 -0.1110 -0.0630 -0.0986
 2216TIP3    H128063   6.349   4.302  13.094  2.2765  3.3726  0.2798
 2216TIP3    H228064   6.379   4.175  13.018 -4.2533  1.9876 -0.2998
 2217TIP3   OH228065   1.793   5.229   3.676 -0.0173 -0.2597  0.4533
 2217TIP3    H128066   1.697   5.232   3.676 -0.1867 -3.2869  2.9510
 2217TIP3    H228067   1.818   5.280   3.753  0.4809  1.4096 -0.7780
 2218TIP3   OH228068   6.324   3.549   3.287  0.3089  0.2975 -0.8852
 2218TIP3    H128069   6.277   3.557   3.370  0.0604  0.1738 -1.0134
 2218TIP3    H228070   6.359   3.460   3.287  2.0284  0.9590 -0.0123
 2219TIP3   OH228071   0.237   6.528   2.572 -0.6059  0.4346  0.2802
 2219TIP3    H128072   0.267   6.510   2.661  1.8977 -1.0726 -0.7992
 2219TIP3    H228073   0.153   6.572   2.583 -1.0958 -1.1424  3.3467
 2220TIP3   OH228074   1.341   4.689  12.172 -0.1066  0.0260 -0.3901
 2220TIP3    H128075   1.326   4.714  12.081 -0.2984  0.9191 -0.1154
 2220TIP3    H228076   1.298   4.757  12.223 -1.7184 -1.5043  0.3735
 2221TIP3   OH228077   3.359   0.407  13.228 -0.5167 -0.3999  0.4385
 2221TIP3    H128078   3.393   0.391  13.140 -0.3549  0.0352  0.4194
 2221TIP3    H228079   3.421   0.470  13.266 -1.6184  0.8461  0.2104
 2222TIP3   OH228080   3.571   0.697  16.623  0.0994 -0.1833 -0.5782
 2222TIP3    H128081   3.637   0.633  16.646 -0.6131 -0.5082  0.5839
 2222TIP3    H228082   3.605   0.780  16.656  0.0405 -0.3125 -0.1915
 2223TIP3   OH228083   3.005   5.572  10.866  0.2379  0.0196 -0.2787
 2223TIP3    H128084   2.972   5.489  10.899 -0.1256 -1.0205 -3.1243
 2223TIP3    H228085   3.086   5.587  10.915 -1.0940 -0.5790  2.2151
 2224TIP3   OH228086   1.527   0.212  13.828  0.6048  0.7630 -0.1671
 2224TIP3    H128087   1.540   0.120  13.805 -0.4161  0.8539 -1.1534
 2224TIP3    H228088   1.604   0.257  13.793 -0.2130  0.6750 -2.1229
 2225TIP3   OH228089   1.141   4.409   5.028  0.1034  0.0534 -0.4227
 2225TIP3    H128090   1.120   4.501   5.008  0.2547  0.6891  2.1417
 2225TIP3    H228091   1.235   4.410   5.048 -0.0436 -0.5239  0.3127
 2226TIP3   OH228092   1.444   6.650   3.210 -0.0070 -0.5958  0.4496
 2226TIP3    H128093   1.359   6.688   3.187  0.8661  0.5738 -0.8703
 2226TIP3    H228094   1.429   6.609   3.295 -1.9353 -0.5260  0.1634
 2227TIP3   OH228095   4.464   1.596  10.304 -0.4165 -0.0067  0.0708
 2227TIP3    H128096   4.422   1.632  10.383  2.4727  0.5641  1.4060
 2227TIP3    H228097   4.444   1.503  10.306  0.7304 -0.2362  2.2468
 2228TIP3   OH228098   3.187   6.729   1.161 -0.3967  0.3121 -0.4602
 2228TIP3    H128099   3.092   6.731   1.172 -0.2442  0.1596  1.1215
 2228TIP3    H228100   3.205   6.649   1.112 -1.0554  0.0406 -0.2576
 2229TIP3   OH228101   3.661   0.306   1.755  0.0849 -0.2619 -0.5791
 2229TIP3    H128102   3.754   0.325   1.740 -0.6563  2.0760 -2.4029
 2229TIP3    H228103   3.645   0.227   1.704  0.4466  0.8816 -2.5009
 2230TIP3   OH228104   4.108   1.037   0.864 -0.1138 -0.8289  0.4735
 2230TIP3    H128105   4.113   1.094   0.941  0.2108  0.3353 -0.3784
 2230TIP3    H228106   4.015   1.028   0.847 -0.1643 -0.1624  0.3551
 2231TIP3   OH228107   0.821   3.579   5.495  0.3649  0.1756 -0.2678
 2231TIP3    H128108   0.784   3.608   5.579  0.9510  0.4343 -0.0902
 2231TIP3    H228109   0.834   3.485   5.507  0.9775  0.3079  0.1450
 2232TIP3   OH228110   3.946   3.195   0.457 -0.0372 -0.0005  0.1494
 2232TIP3    H128111   3.889   3.138   0.405 -3.8277  0.2644  3.7378
 2232TIP3    H228112   3.975   3.140   0.530  2.3829  0.5987 -0.3252
 2233TIP3   OH228113   2.069   1.889   1.485  0.5285  0.1642  0.0233
 2233TIP3    H128114   2.122   1.856   1.558 -1.9350  1.8439  2.7102
 2233TIP3    H228115   1.993   1.830   1.483  0.2346  0.5699 -0.7268
 2234TIP3   OH228116   2.440   2.189   5.562 -0.1716 -0.0857 -0.2835
 2234TIP3    H128117   2.427   2.100   5.529 -0.2616 -0.7491  1.4907
 2234TIP3    H228118   2.353   2.217   5.590 -0.3671  1.0398 -1.9320
 2235TIP3   OH228119   0.087   2.780  11.451 -0.3969  0.4275  0.1844
 2235TIP3    H128120   0.074   2.780  11.546 -0.6505 -0.1879  0.1493
 2235TIP3    H228121  -0.001   2.784  11.414 -0.4008 -1.1152 -0.0299
 2236TIP3   OH228122   5.301   2.351  13.783 -0.2344  0.1054  0.3398
 2236TIP3    H128123   5.215   2.308  13.790 -0.3171 -0.4355 -3.3761
 2236TIP3    H228124   5.363   2.285  13.816 -0.8759 -0.8877 -0.4288
 2237TIP3   OH228125   6.742   1.583  14.378  0.1729  0.3746  0.0261
 2237TIP3    H128126   6.760   1.544  14.464 -1.5185  0.2781  0.3572
 2237TIP3    H228127   6.648   1.571  14.366  0.4249  0.2281 -1.9296
 2238TIP3   OH228128   6.362   5.970   0.463 -0.2262  0.3640 -0.2620
 2238TIP3    H128129   6.379   6.052   0.509 -0.1007  0.9442 -1.3501
 2238TIP3    H228130   6.346   5.995   0.372 -1.2104 -0.7113 -0.4049
 2239TIP3   OH228131   0.016   1.077   1.130 -0.3011  0.4326  0.1202
 2239TIP3    H128132   0.108   1.099   1.144  0.0201 -0.2542 -0.8668
 2239TIP3    H228133  -0.009   1.028   1.208  0.7371 -1.1208 -0.5112
 2240TIP3   OH228134   1.600   1.972   5.277 -0.4125 -0.1957 -0.0956
 2240TIP3    H128135   1.607   1.944   5.369 -0.6193  0.6483  0.1833
 2240TIP3    H228136   1.547   1.904   5.235 -0.2412 -0.6336  0.3924
 2241TIP3   OH228137   0.590   0.663   4.149 -1.3972 -0.0042 -0.3928
 2241TIP3    H128138   0.674   0.617   4.158 -0.8892  1.3615  2.5618
 2241TIP3    H228139   0.614   0.750   4.116 -1.6858  0.2367  0.0253
 2242TIP3   OH228140   2.803   0.546  13.160 -0.0489  0.4548 -0.0100
 2242TIP3    H128141   2.778   0.470  13.108  0.0205  0.1895  0.3415
 2242TIP3    H228142   2.874   0.587  13.111 -0.5432  0.6848 -0.5472
 2243TIP3   OH228143   0.460   5.423  15.540  0.0755 -0.2897  0.1628
 2243TIP3    H128144   0.517   5.464  15.475 -0.2644 -2.7633 -1.7838
 2243TIP3    H228145   0.381   5.477  15.540  0.9085  0.9366  0.0627
 2244TIP3   OH228146   1.476   4.673  12.726  0.0248  0.3272  0.9588
 2244TIP3    H128147   1.389   4.645  12.756  0.5455 -1.9694  0.4119
 2244TIP3    H228148   1.522   4.592  12.708  2.6891  1.4795  2.3073
 2245TIP3   OH228149   0.854   3.143   0.635  0.3001 -0.3120  0.7267
 2245TIP3    H128150   0.940   3.134   0.593  0.4306  2.1150  0.4412
 2245TIP3    H228151   0.835   3.055   0.669  2.6509 -1.0069  0.3298
 2246TIP3   OH228152   1.493   0.759   5.282 -0.5587  0.1027  0.1546
 2246TIP3    H128153   1.471   0.748   5.189 -0.1706  0.3950  0.0306
 2246TIP3    H228154   1.483   0.671   5.319 -0.7231 -0.0136 -0.1603
 2247TIP3   OH228155   2.756   3.983   0.839 -0.4771  0.1502  0.1082
 2247TIP3    H128156   2.814   3.998   0.913 -0.7684  1.1226  0.1568
 2247TIP3    H228157   2.810   3.998   0.762 -0.1473 -0.9657  0.1242
 2248TIP3   OH228158   4.729   1.908   1.920  0.1417 -0.1503  0.3298
 2248TIP3    H128159   4.666   1.974   1.950  0.6369 -0.0988  1.2607
 2248TIP3    H228160   4.698   1.883   1.833  0.4620  1.9873 -0.4341
 2249TIP3   OH228161   5.670   1.877   3.691  0.4692 -0.3241  0.0246
 2249TIP3    H128162   5.616   1.952   3.713  1.0282 -0.4478  1.8911
 2249TIP3    H228163   5.750   1.889   3.741  0.2713 -2.5415  0.9489
 2250TIP3   OH228164   6.035   3.171  15.568  0.1453 -0.6844  0.0110
 2250TIP3    H128165   5.969   3.233  15.537  1.8678  0.1716 -2.0682
 2250TIP3    H228166   5.999   3.085  15.546 -0.8450 -0.2772  0.0293
 2251TIP3   OH228167   6.096   0.379  14.599 -0.2217  0.0095 -0.0776
 2251TIP3    H128168   6.008   0.408  14.575  0.0930  0.0208 -1.2333
 2251TIP3    H228169   6.130   0.339  14.520  0.5116 -0.7321  0.6139
 2252TIP3   OH228170   5.906   2.659   5.903 -0.1454  0.0423  0.1169
 2252TIP3    H128171   5.964   2.603   5.851  0.1476  0.4866 -0.0298
 2252TIP3    H228172   5.876   2.602   5.974  1.4982  0.1758  0.9506
 2253TIP3   OH228173   6.542   1.717  13.592 -0.3907  0.1775  0.6907
 2253TIP3    H128174   6.541   1.810  13.615  0.0839  0.4975 -0.5321
 2253TIP3    H228175   6.528   1.715  13.497  0.7127 -0.9274  0.5317
 2254TIP3   OH228176   0.894   5.033  12.433  0.1792  0.6123 -0.7578
 2254TIP3    H128177   0.866   5.029  12.525  0.0641 -0.7141 -0.8408
 2254TIP3    H228178   0.940   4.950  12.418  2.1159  1.7559 -1.2913
 2255TIP3   OH228179   0.366   0.816  11.614 -0.0996 -0.1137 -0.5954
 2255TIP3    H128180   0.450   0.827  11.571 -0.4242  1.5682 -0.8125
 2255TIP3    H228181   0.332   0.733  11.579  1.8779 -1.3035  0.2463
 2256TIP3   OH228182   3.951   0.218   1.809  0.2004  0.4499 -0.0991
 2256TIP3    H128183   3.970   0.130   1.842 -1.4049  0.1008 -0.0523
 2256TIP3    H228184   4.009   0.276   1.859 -0.8854 -0.2680  2.0665
 2257TIP3   OH228185   2.190   5.986   4.668  0.5292  0.1086 -0.3851
 2257TIP3    H128186   2.159   6.077   4.664 -0.1854 -0.0738  0.8722
 2257TIP3    H228187   2.113   5.934   4.644 -0.4126 -0.3869  3.4465
 2258TIP3   OH228188   2.752   3.939  15.923 -0.1195 -0.0177 -0.2977
 2258TIP3    H128189   2.830   3.906  15.877 -0.9764 -0.3157 -1.5900
 2258TIP3    H228190   2.752   4.033  15.907  0.1428  0.0213 -0.0512
 2259TIP3   OH228191   4.735   3.456  12.693  0.0760 -0.4511 -0.2927
 2259TIP3    H128192   4.717   3.536  12.742 -2.7959 -1.7738  0.9096
 2259TIP3    H228193   4.810   3.478  12.637 -0.3204  2.8815  0.4169
 2260TIP3   OH228194   6.151   0.138  15.920  0.2508 -0.0652  0.3959
 2260TIP3    H128195   6.240   0.116  15.948  0.7863  0.9396 -0.5026
 2260TIP3    H228196   6.134   0.078  15.847  0.0211 -0.5391  0.8289
 2261TIP3   OH228197   0.428   1.834  11.261 -0.3825  0.5543 -0.1785
 2261TIP3    H128198   0.403   1.823  11.170  0.3711 -0.8636 -0.2166
 2261TIP3    H228199   0.501   1.774  11.274 -1.8374 -0.8262  1.9257
 2262TIP3   OH228200   3.631   4.707   0.334  0.0982  0.0859  0.0550
 2262TIP3    H128201   3.656   4.769   0.265 -1.2865 -1.0468 -1.5213
 2262TIP3    H228202   3.682   4.628   0.314  1.0964  0.3591  1.4588
 2263TIP3   OH228203   5.651   6.728  14.141 -0.0330 -0.4623 -0.0968
 2263TIP3    H128204   5.732   6.695  14.103  0.5644  0.4810  0.3419
 2263TIP3    H228205   5.653   6.697  14.232  0.3155  0.4021  0.1912
 2264TIP3   OH228206   3.280   0.116   5.881  0.0894 -0.2671  0.3659
 2264TIP3    H128207   3.244   0.063   5.952 -0.1750  2.5101  2.4199
 2264TIP3    H228208   3.203   0.154   5.839  0.3396  0.1511  0.2820
 2265TIP3   OH228209   0.422   1.811   4.798 -0.0700 -0.5523 -0.1596
 2265TIP3    H128210   0.415   1.906   4.798 -0.2403 -0.5522 -1.2677
 2265TIP3    H228211   0.418   1.787   4.705  0.9849 -1.5704  0.0499
 2266TIP3   OH228212   0.818   1.049   2.946  0.2374 -0.0899  0.0631
 2266TIP3    H128213   0.758   0.989   2.991 -0.3822  1.6417  1.6053
 2266TIP3    H228214   0.779   1.135   2.958  0.6943  0.5887 -2.7905
 2267TIP3   OH228215   2.614   4.555   1.993  0.0855  0.2649 -0.2174
 2267TIP3    H128216   2.668   4.507   1.931  1.9668 -1.4140  2.6008
 2267TIP3    H228217   2.626   4.647   1.970  0.9830 -0.3081 -2.1182
 2268TIP3   OH228218   0.413   3.885   0.429 -0.2088 -0.6756 -0.3997
 2268TIP3    H128219   0.410   3.975   0.397 -2.3301 -0.8716 -0.7933
 2268TIP3    H228220   0.473   3.889   0.504  0.3395  0.8997 -0.8947
 2269TIP3   OH228221   1.000   4.710   5.469 -0.0412 -0.0616  0.5847
 2269TIP3    H128222   0.919   4.661   5.458  0.0354 -0.5552  2.0456
 2269TIP3    H228223   0.978   4.780   5.530 -0.1127  1.6857 -1.3993
 2270TIP3   OH228224   5.025   2.595  13.730 -0.0798  0.3541 -0.1308
 2270TIP3    H128225   5.096   2.654  13.757  0.2101  0.2989 -0.7556
 2270TIP3    H228226   5.067   2.533  13.670 -0.3347 -0.6388  0.6954
 2271TIP3   OH228227   5.529   1.329   2.946  0.1195  0.2536 -0.6793
 2271TIP3    H128228   5.522   1.424   2.957 -2.0588  0.0123  0.2279
 2271TIP3    H228229   5.591   1.302   3.013  0.1014  0.9288 -0.3828
 2272TIP3   OH228230   3.151   0.678  11.408 -0.3319 -0.0276  0.0240
 2272TIP3    H128231   3.150   0.755  11.466  1.0351 -0.2290  0.3360
 2272TIP3    H228232   3.062   0.671  11.375 -1.0497  0.3084  1.8474
 2273TIP3   OH228233   3.046   3.747   5.109  0.0133 -0.4919 -0.1073
 2273TIP3    H128234   3.094   3.667   5.093 -0.7259 -1.0800  0.5639
 2273TIP3    H228235   3.105   3.817   5.081  1.1499 -1.2112  0.4472
 2274TIP3   OH228236   6.267   0.461  17.114 -0.3841  0.2297  0.2590
 2274TIP3    H128237   6.254   0.550  17.083  0.4573 -0.2055 -1.3457
 2274TIP3    H228238   6.207   0.454  17.189 -1.2076  1.8016 -0.2162
 2275TIP3   OH228239   3.923   3.224   4.122  0.1532 -0.6687 -0.1694
 2275TIP3    H128240   3.884   3.160   4.063  1.0781 -1.8281  0.4432
 2275TIP3    H228241   3.893   3.198   4.209  1.4859 -1.0175  0.2080
 2276TIP3   OH228242   4.052   1.668  12.559 -0.2508  0.2950  0.4022
 2276TIP3    H128243   4.059   1.757  12.524 -0.4315  0.4989  0.8874
 2276TIP3    H228244   3.990   1.625  12.500 -0.5848  0.6534  0.4887
 2277TIP3   OH228245   6.531   2.476  13.802 -0.8538 -0.2920 -0.0457
 2277TIP3    H128246   6.452   2.505  13.848 -0.9299 -0.3375 -0.1455
 2277TIP3    H228247   6.543   2.541  13.732 -2.5872 -2.0015 -1.9764
 2278TIP3   OH228248   3.662   1.960  10.871  0.6932  0.2643  0.3951
 2278TIP3    H128249   3.729   1.919  10.927 -0.1761 -0.2142  1.1000
 2278TIP3    H228250   3.659   1.905  10.793  1.3974  0.5162  0.1820
 2279TIP3   OH228251   3.757   4.966  13.773  0.3930  0.2020  0.2519
 2279TIP3    H128252   3.785   4.948  13.683  1.0942  2.0547  0.0686
 2279TIP3    H228253   3.839   4.967  13.823  0.1164  0.2348  0.7049
 2280TIP3   OH228254   3.842   0.709   3.127 -1.1371 -0.1540 -0.0548
 2280TIP3    H128255   3.903   0.647   3.087 -0.9597  0.6098 -1.0035
 2280TIP3    H228256   3.756   0.672   3.113 -0.9888 -0.4971 -0.0584
 2281TIP3   OH228257   0.163   2.125  17.182  0.2754 -0.1697 -0.3711
 2281TIP3    H128258   0.177   2.082  17.098 -0.9592  1.3040 -1.3570
 2281TIP3    H228259   0.128   2.211  17.159 -0.2617  0.1702  1.6595
 2282TIP3   OH228260   6.109   0.334  15.734 -0.2018 -0.7599  0.0730
 2282TIP3    H128261   6.156   0.417  15.742 -1.4657  0.1906 -1.9579
 2282TIP3    H228262   6.120   0.292  15.819  0.4300  1.4960  1.1418
 2283TIP3   OH228263   1.932   1.988  13.799  0.1760  0.4064 -0.0949
 2283TIP3    H128264   1.896   1.966  13.713 -0.1623  0.0420  0.1391
 2283TIP3    H228265   2.007   2.045  13.780 -0.6915  1.4137 -0.5819
 2284TIP3   OH228266   1.018   2.759  14.181 -0.0231  0.0801  0.0090
 2284TIP3    H128267   0.961   2.821  14.226  0.6660  1.7433 -1.3473
 2284TIP3    H228268   1.054   2.808  14.108  1.9502 -1.3985 -0.0645
 2285TIP3   OH228269   4.917   3.442  15.004  0.2197  0.1907 -0.1801
 2285TIP3    H128270   4.854   3.397  15.062  1.7409 -0.9751  0.6084
 2285TIP3    H228271   4.864   3.471  14.930 -0.9478 -2.4975 -0.4785
 2286TIP3   OH228272   2.772   1.809   4.721  0.1494  0.4633  0.1370
 2286TIP3    H128273   2.794   1.897   4.693 -0.2569  0.0331 -1.5654
 2286TIP3    H228274   2.698   1.820   4.781  1.4097  1.4316  1.5670
 2287TIP3   OH228275   6.262   0.337  12.702 -0.1372  0.4682  0.1353
 2287TIP3    H128276   6.324   0.347  12.774 -0.3995  0.1875  0.4078
 2287TIP3    H228277   6.189   0.288  12.741  0.4358 -1.1304 -0.7362
 2288TIP3   OH228278   1.155   4.558  16.271  0.0538 -0.2758  0.2611
 2288TIP3    H128279   1.215   4.617  16.317 -1.3221  2.0805 -0.8696
 2288TIP3    H228280   1.198   4.473  16.274  1.4825  0.4787  3.1122
 2289TIP3   OH228281   4.010   4.762  12.488  1.1371  0.2317  0.4538
 2289TIP3    H128282   3.963   4.765  12.571  0.9813 -1.1958  0.4318
 2289TIP3    H228283   3.955   4.710  12.430  2.6952 -1.4385  0.4170
 2290TIP3   OH228284   0.513   1.037   2.215 -0.2178 -0.5412 -0.2090
 2290TIP3    H128285   0.474   1.111   2.170  0.0369 -0.9616 -1.1206
 2290TIP3    H228286   0.494   0.961   2.160  1.1026 -0.8884 -0.2194
 2291TIP3   OH228287   6.312   0.411   1.332  0.1381  0.7054  0.2914
 2291TIP3    H128288   6.218   0.391   1.334  0.1068  0.9159  1.0731
 2291TIP3    H228289   6.341   0.398   1.423  1.2587 -1.2173 -0.3020
 2292TIP3   OH228290   4.258   3.853  12.276 -0.2842  0.4129  0.2045
 2292TIP3    H128291   4.217   3.939  12.265 -0.8009  0.0849 -0.4438
 2292TIP3    H228292   4.342   3.872  12.318  0.7242  1.4811 -2.2167
 2293TIP3   OH228293   0.919   5.448  15.774 -0.1473  0.5190 -0.2375
 2293TIP3    H128294   0.980   5.521  15.781 -1.3816  1.9140 -3.1362
 2293TIP3    H228295   0.974   5.370  15.781  1.3770  1.6958  1.4820
 2294TIP3   OH228296   6.022   0.661  11.669  0.1130  0.6636  0.4820
 2294TIP3    H128297   5.927   0.648  11.670  0.3644 -1.4416 -0.9520
 2294TIP3    H228298   6.039   0.717  11.745 -2.1538  0.2816  1.3065
 2295TIP3   OH228299   6.167   1.775   1.302  0.4072  0.3098  0.3524
 2295TIP3    H128300   6.116   1.836   1.355 -1.2477  0.4847 -1.4016
 2295TIP3    H228301   6.107   1.745   1.234  1.7504 -1.8530  0.0645
 2296TIP3   OH228302   0.137   2.029  16.917  0.0305  0.2485 -0.0167
 2296TIP3    H128303   0.173   1.967  16.854  2.7938  1.0134  0.7564
 2296TIP3    H228304   0.083   2.088  16.864  0.6231 -0.3879 -1.3386
 2297TIP3   OH228305   6.134   4.651  12.073  0.2515 -0.5422 -0.1439
 2297TIP3    H128306   6.221   4.687  12.087  0.3693 -0.4015 -1.2006
 2297TIP3    H228307   6.074   4.717  12.110  0.4924  0.4707 -1.5116
 2298TIP3   OH228308   0.483   1.813  12.395 -0.8165 -0.1043  0.1696
 2298TIP3    H128309   0.439   1.779  12.473 -0.8591 -0.6391 -0.0818
 2298TIP3    H228310   0.485   1.739  12.335  0.6915 -0.1838  0.2905
 2299TIP3   OH228311   2.169   5.279   5.402 -0.1198  0.5263  0.3073
 2299TIP3    H128312   2.117   5.287   5.322  1.3770 -0.0052 -0.7501
 2299TIP3    H228313   2.216   5.362   5.408 -0.3277  0.6138  0.7073
 2300TIP3   OH228314   4.343   0.598  12.234 -0.5549 -0.1673 -0.0936
 2300TIP3    H128315   4.383   0.680  12.206  0.6442 -0.1972  1.4298
 2300TIP3    H228316   4.306   0.560  12.154  0.2080  1.1170 -1.0725
 2301TIP3   OH228317   0.309   3.485   5.504  0.7937 -0.2701  0.2742
 2301TIP3    H128318   0.368   3.417   5.534  2.6427  0.6228 -1.2414
 2301TIP3    H228319   0.272   3.451   5.422  1.1018  0.1977 -0.0618
 2302TIP3   OH228320   1.290   5.959   3.026  0.5107 -0.1034 -0.4884
 2302TIP3    H128321   1.226   6.015   2.982  1.1117 -0.1859 -1.4726
 2302TIP3    H228322   1.307   5.888   2.965  2.4786  0.5833 -0.7792
 2303TIP3   OH228323   3.414   4.182   3.608 -0.4989 -0.5337 -0.5108
 2303TIP3    H128324   3.507   4.200   3.589 -0.8579 -0.8259 -2.6775
 2303TIP3    H228325   3.370   4.198   3.525 -2.4240 -0.3043  0.5457
 2304TIP3   OH228326   4.628   6.463  12.958  0.6078  0.5483  0.0370
 2304TIP3    H128327   4.668   6.376  12.956  0.6282  0.5014  1.6206
 2304TIP3    H228328   4.674   6.513  12.892  1.1868 -0.4057 -0.2836
 2305TIP3   OH228329   3.406   5.024   1.151 -0.4146  0.0032  0.0882
 2305TIP3    H128330   3.352   4.949   1.124  0.1837 -0.4421  0.1072
 2305TIP3    H228331   3.493   5.003   1.117 -0.3750  0.9800 -0.4207
 2306TIP3   OH228332   2.425   1.415  16.664  0.1075  0.0766 -0.1788
 2306TIP3    H128333   2.477   1.482  16.708 -0.3842 -0.6976  1.6302
 2306TIP3    H228334   2.462   1.332  16.696 -1.0333 -0.4859 -0.2969
 2307TIP3   OH228335   4.215   5.803   4.083 -0.2308  0.0841  0.0250
 2307TIP3    H128336   4.189   5.776   4.171 -0.0272 -0.5938 -0.1120
 2307TIP3    H228337   4.236   5.896   4.091 -0.5696  0.1117  0.6105
 2308TIP3   OH228338   6.774   0.450  16.171 -0.9354 -0.0282  0.0570
 2308TIP3    H128339   6.736   0.525  16.219 -2.9046  1.1345 -3.1618
 2308TIP3    H228340   6.843   0.488  16.118 -1.8219 -0.5003 -1.4599
 2309TIP3   OH228341   1.241   6.066  13.250 -0.3764 -0.4232 -0.0460
 2309TIP3    H128342   1.198   6.080  13.166  1.9942  0.8906 -1.0983
 2309TIP3    H228343   1.308   6.001  13.233 -0.5639 -0.9264  1.0855
 2310TIP3   OH228344   6.449   4.988   5.452 -0.1125  0.4455  0.0468
 2310TIP3    H128345   6.499   4.966   5.531  0.5818  0.4706 -0.3802
 2310TIP3    H228346   6.371   4.934   5.458  0.6093 -0.6144  0.0472
 2311TIP3   OH228347   1.539   0.780   6.198 -0.1890  0.4040  0.0882
 2311TIP3    H128348   1.594   0.746   6.127 -0.3283 -0.3802  0.3501
 2311TIP3    H228349   1.594   0.771   6.276  0.9741  3.7217 -0.2828
 2312TIP3   OH228350   5.709   0.125   3.651 -0.6665 -0.0508  0.6151
 2312TIP3    H128351   5.779   0.186   3.676 -0.6588  0.1632  0.0758
 2312TIP3    H228352   5.629   0.177   3.654 -0.5530  0.2156 -0.6843
 2313TIP3   OH228353   6.619   5.864  15.934  0.1879 -0.1364 -0.1777
 2313TIP3    H128354   6.684   5.844  16.002  1.0733  0.1377 -0.9436
 2313TIP3    H228355   6.602   5.780  15.892 -1.1936 -0.5258  1.0881
 2314TIP3   OH228356   2.957   5.137   0.280  0.5606 -0.4512  0.4072
 2314TIP3    H128357   3.020   5.089   0.226 -0.1798 -0.8022 -0.1650
 2314TIP3    H228358   2.934   5.076   0.350  0.9327 -0.2811  0.6824
 2315TIP3   OH228359   3.273   2.978  12.804 -0.5167  0.0169  0.3492
 2315TIP3    H128360   3.209   2.974  12.875 -0.0274 -2.3555  0.6992
 2315TIP3    H228361   3.319   2.894  12.808 -1.3695 -0.7774 -3.5838
 2316TIP3   OH228362   5.160   0.369  10.609 -0.0221  0.3374  0.0689
 2316TIP3    H128363   5.100   0.298  10.587  0.1024  0.1735  0.2535
 2316TIP3    H228364   5.121   0.447  10.569 -0.4024  0.2482  0.2695
 2317TIP3   OH228365   2.263   3.677  13.507  0.1648  0.1702 -0.7161
 2317TIP3    H128366   2.234   3.743  13.569 -1.9472 -1.2240 -0.1737
 2317TIP3    H228367   2.278   3.725  13.426 -3.1917  1.0862 -0.8814
 2318TIP3   OH228368   0.122   2.244   1.268  0.7167 -0.1181  0.2495
 2318TIP3    H128369   0.204   2.263   1.223  0.1197 -0.3627 -0.9627
 2318TIP3    H228370   0.101   2.325   1.314  1.8439 -0.1848  0.8995
 2319TIP3   OH228371   4.705   6.684  13.679 -0.6468  0.3923 -0.3263
 2319TIP3    H128372   4.773   6.722  13.735 -2.5270  0.6408  1.8946
 2319TIP3    H228373   4.753   6.633  13.614  1.6350 -0.0246  1.5885
 2320TIP3   OH228374   1.929   3.872   4.015  0.5113 -0.8217  0.5523
 2320TIP3    H128375   1.952   3.961   3.988  1.2996 -1.2486 -0.2283
 2320TIP3    H228376   1.835   3.866   4.003  0.4559 -0.0897  0.6068
 2321TIP3   OH228377   0.206   3.450   4.381 -0.3916 -0.3050  0.1987
 2321TIP3    H128378   0.295   3.454   4.417 -0.2101 -0.3479 -0.2433
 2321TIP3    H228379   0.160   3.523   4.423  0.0688  0.1878 -0.1498
 2322TIP3   OH228380   4.171   1.105  11.067  0.1208  0.2710  0.0645
 2322TIP3    H128381   4.108   1.150  11.011  1.5425  1.9825 -0.1751
 2322TIP3    H228382   4.203   1.172  11.127  0.8788 -0.8472  0.9434
 2323TIP3   OH228383   5.507   5.761  17.098  0.0543 -0.0594 -0.0630
 2323TIP3    H128384   5.519   5.674  17.059  0.4116  1.2825 -3.0552
 2323TIP3    H228385   5.416   5.784  17.077  1.1636  1.9545 -2.7923
 2324TIP3   OH228386   0.428   5.857  14.305 -0.6953  0.2363 -0.4098
 2324TIP3    H128387   0.514   5.887  14.334 -0.2418 -0.5607 -0.9224
 2324TIP3    H228388   0.443   5.824  14.216 -1.7864  1.3106 -1.0103
 2325TIP3   OH228389   6.001   1.017   6.558  0.0864  0.3417 -0.3227
 2325TIP3    H128390   5.941   1.029   6.484  0.4668  0.9956 -0.5210
 2325TIP3    H228391   6.085   0.996   6.518  0.0878 -0.1855 -0.0520
 2326TIP3   OH228392   2.962   3.428  14.882  0.1992 -0.3623  0.9009
 2326TIP3    H128393   2.871   3.398  14.889 -0.1044 -0.0731 -1.5278
 2326TIP3    H228394   2.991   3.397  14.797  2.3407 -0.2763  1.5697
 2327TIP3   OH228395   6.259   6.627   1.604  0.5710  0.1895  0.0281
 2327TIP3    H128396   6.287   6.599   1.691  1.8822  3.5225  0.7533
 2327TIP3    H228397   6.336   6.614   1.549  0.1205 -0.8025 -0.3638
 2328TIP3   OH228398   4.224   3.980   3.961  0.0311 -0.0666 -0.4061
 2328TIP3    H128399   4.244   3.946   4.048 -0.2177  1.1172  0.1249
 2328TIP3    H228400   4.217   3.902   3.906 -0.3317 -0.8624  0.7373
 2329TIP3   OH228401   5.447   6.108  14.097  0.1976  0.2313 -0.0020
 2329TIP3    H128402   5.461   6.122  14.190  1.2682  0.1657 -0.1432
 2329TIP3    H228403   5.533   6.122  14.057 -0.1101 -0.3481 -0.9030
 2330TIP3   OH228404   3.003   5.273   2.922  0.6110 -0.1106  0.4424
 2330TIP3    H128405   2.929   5.334   2.918  1.9259  1.5685  0.8603
 2330TIP3    H228406   2.964   5.187   2.909 -1.3731  0.7689  0.3349
 2331TIP3   OH228407   0.901   0.824  15.709  0.1551  0.0180 -0.4444
 2331TIP3    H128408   0.940   0.746  15.749 -2.1867  0.0015  1.9731
 2331TIP3    H228409   0.857   0.793  15.630 -1.5066 -1.3230  0.9689
 2332TIP3   OH228410   0.769   2.241  16.473 -0.0994  0.4050  0.4416
 2332TIP3    H128411   0.761   2.218  16.566 -1.6472 -0.0075  0.2153
 2332TIP3    H228412   0.709   2.314  16.461 -0.0352  0.3430 -0.2811
 2333TIP3   OH228413   1.339   6.112   0.108  0.2278  0.0411 -0.0443
 2333TIP3    H128414   1.420   6.085   0.063 -0.0383  0.2822 -0.6780
 2333TIP3    H228415   1.328   6.047   0.178  1.0404  0.0885  0.1313
 2334TIP3   OH228416   6.254   4.307  14.317  0.5815 -0.3709 -0.1219
 2334TIP3    H128417   6.287   4.363  14.388  0.4220 -0.3429 -0.0701
 2334TIP3    H228418   6.228   4.226  14.362  1.8420 -0.9097 -0.3404
 2335TIP3   OH228419   6.675   2.006   0.798 -0.2496  0.3137  0.2931
 2335TIP3    H128420   6.736   1.979   0.730 -0.4798  0.8360 -0.1235
 2335TIP3    H228421   6.693   2.099   0.811 -1.3009  0.5998 -0.2100
 2336TIP3   OH228422   6.244   2.011  16.164  0.4738  0.3352  0.2341
 2336TIP3    H128423   6.157   2.012  16.124  0.8698 -0.2568 -0.6493
 2336TIP3    H228424   6.279   1.924  16.145  1.4065  0.6964  0.2627
 2337TIP3   OH228425   5.447   5.886   4.316  0.2515  0.4470 -0.6043
 2337TIP3    H128426   5.489   5.925   4.240  2.0026  1.4504  0.8132
 2337TIP3    H228427   5.396   5.957   4.354  1.8717  0.8557  0.8786
 2338TIP3   OH228428   4.388   4.386  13.940 -0.1910 -0.8697 -0.0690
 2338TIP3    H128429   4.430   4.371  13.855 -0.7215 -0.3036 -0.4312
 2338TIP3    H228430   4.295   4.387  13.921 -0.2485  1.0787  0.2310
 2339TIP3   OH228431   4.395   2.963  16.933 -0.6958 -0.0093 -0.6343
 2339TIP3    H128432   4.488   2.982  16.936 -0.5428 -0.3574 -2.5647
 2339TIP3    H228433   4.388   2.870  16.956 -0.5661  0.0134 -0.5043
 2340TIP3   OH228434   3.431   4.527   3.760  0.1553  0.8309 -0.0271
 2340TIP3    H128435   3.472   4.565   3.837 -1.3464  0.8077  0.8008
 2340TIP3    H228436   3.429   4.599   3.696  0.4005  1.1603  0.3331
 2341TIP3   OH228437   3.211   5.573   4.502  0.1579 -0.8569  0.3692
 2341TIP3    H128438   3.244   5.524   4.427  1.7250 -0.5044  0.7959
 2341TIP3    H228439   3.290   5.595   4.552 -0.9927 -2.7506  3.1254
 2342TIP3   OH228440   2.438   2.944  12.138 -0.1662  0.2176  0.4435
 2342TIP3    H128441   2.378   2.987  12.198  1.5265  1.9423  0.9539
 2342TIP3    H228442   2.486   3.015  12.095 -0.2101 -1.0293 -1.7798
 2343TIP3   OH228443   5.858   5.882  15.518  0.7335  0.0647 -0.3372
 2343TIP3    H128444   5.820   5.954  15.569  1.9308  0.6785 -0.2890
 2343TIP3    H228445   5.799   5.872  15.443 -0.9472 -0.7429  1.0759
 2344TIP3   OH228446   3.987   6.737   1.299 -0.1258 -0.0653 -0.4494
 2344TIP3    H128447   3.993   6.643   1.285  1.9090  0.0682 -0.6764
 2344TIP3    H228448   3.904   6.762   1.258 -1.0295 -1.8446  0.2310
 2345TIP3   OH228449   5.386   0.474  15.154  0.3440 -0.4989 -0.5334
 2345TIP3    H128450   5.458   0.411  15.153  1.2447  0.5068 -0.8657
 2345TIP3    H228451   5.416   0.543  15.213 -1.1271 -0.9361  0.7505
 2346TIP3   OH228452   4.146   5.447  15.222  0.2491  0.4885 -0.0710
 2346TIP3    H128453   4.117   5.424  15.310  2.4537 -1.4485  0.2037
 2346TIP3    H228454   4.121   5.372  15.169  2.0821  0.0983 -0.3906
 2347TIP3   OH228455   3.275   4.932  11.952  0.1808  0.4142 -0.0884
 2347TIP3    H128456   3.262   4.884  11.870  0.2993  0.3388 -0.0639
 2347TIP3    H228457   3.355   4.983  11.937  0.9895 -0.6562  0.4683
 2348TIP3   OH228458   0.120   2.657   4.996  0.1008  0.5907  0.2406
 2348TIP3    H128459   0.185   2.589   4.980  0.9670  1.4098  0.2149
 2348TIP3    H228460   0.152   2.703   5.073 -1.8238 -0.6245  1.7976
 2349TIP3   OH228461   6.228   5.587   2.387  0.1506  0.2518  0.5586
 2349TIP3    H128462   6.212   5.681   2.399  0.5615  0.3087  0.6665
 2349TIP3    H228463   6.220   5.573   2.293  1.8147  0.7177  0.3392
 2350TIP3   OH228464   5.519   6.437   3.876  0.4007 -0.0013  0.3184
 2350TIP3    H128465   5.493   6.520   3.915  1.2937  0.4886 -0.1265
 2350TIP3    H228466   5.470   6.371   3.925 -0.6826  0.8170  0.3535
 2351TIP3   OH228467   2.144   3.739   0.909  0.2629  0.1999  0.5371
 2351TIP3    H128468   2.068   3.702   0.864  1.9656 -1.5591 -0.9463
 2351TIP3    H228469   2.210   3.750   0.841  3.2278 -3.3791  2.6456
 2352TIP3   OH228470   2.201   0.706   3.565 -0.5129  0.5821 -0.1456
 2352TIP3    H128471   2.202   0.799   3.542 -0.9431  0.4004 -0.8941
 2352TIP3    H228472   2.113   0.690   3.599 -0.5456  0.3723 -0.3279
 2353TIP3   OH228473   2.949   2.640   5.271  0.6619  0.1900  0.3028
 2353TIP3    H128474   2.985   2.551   5.270  0.6185  0.1600 -2.6172
 2353TIP3    H228475   2.856   2.628   5.291  0.5654 -0.4896 -0.5176
 2354TIP3   OH228476   6.226   1.881   0.143 -0.1424  0.2916  0.1911
 2354TIP3    H128477   6.255   1.919   0.060  0.5973  1.7896  1.1045
 2354TIP3    H228478   6.167   1.947   0.181  0.0283 -0.0862  1.1345
 2355TIP3   OH228479   1.051   0.992   3.865  0.2106 -0.4376 -0.0610
 2355TIP3    H128480   1.062   0.932   3.939  0.5247 -2.6164 -1.8321
 2355TIP3    H228481   0.986   0.949   3.809 -0.0905  1.2382 -1.0240
 2356TIP3   OH228482   5.679   3.094   6.090 -0.1826 -0.0827 -0.4212
 2356TIP3    H128483   5.618   3.085   6.017  1.9037  0.6372 -2.3257
 2356TIP3    H228484   5.696   3.004   6.117 -2.3358 -0.2754  0.3786
 2357TIP3   OH228485   3.861   4.330   5.202 -0.0624 -0.3865  0.4969
 2357TIP3    H128486   3.801   4.394   5.241  1.2710  0.4268  1.2326
 2357TIP3    H228487   3.803   4.263   5.166 -1.4129 -0.2804  2.3503
 2358TIP3   OH228488   6.402   5.889   3.794 -0.5720 -0.3911  0.3516
 2358TIP3    H128489   6.356   5.808   3.818 -0.3307 -0.7107 -0.2492
 2358TIP3    H228490   6.494   5.863   3.787 -0.3856  0.1057  0.9142
 2359TIP3   OH228491   2.887   0.677   1.785  0.0305  0.6527 -0.6770
 2359TIP3    H128492   2.924   0.644   1.703  0.0858  0.2437 -0.4914
 2359TIP3    H228493   2.962   0.693   1.841 -0.0672 -0.2601 -0.2697
 2360TIP3   OH228494   5.152   0.315  15.241  0.3689  0.2553  0.1160
 2360TIP3    H128495   5.226   0.359  15.198  0.1457  2.7009  2.0965
 2360TIP3    H228496   5.193   0.263  15.311  0.4688 -1.1079 -0.9433
 2361TIP3   OH228497   1.865   1.285   1.655  0.3504  0.3638 -0.1676
 2361TIP3    H128498   1.879   1.205   1.706  1.5338  0.4622 -0.3308
 2361TIP3    H228499   1.813   1.257   1.580 -0.4407  0.0090  0.5058
 2362TIP3   OH228500   0.631   2.828  14.535  0.1305  0.2862 -0.0423
 2362TIP3    H128501   0.565   2.864  14.595 -1.3065 -0.6669 -1.0200
 2362TIP3    H228502   0.708   2.883  14.549 -0.8600  1.4128  1.1456
 2363TIP3   OH228503   1.099   4.147   5.935  0.3325  0.2370  0.0559
 2363TIP3    H128504   1.017   4.174   5.894  0.0892  0.2938  0.5767
 2363TIP3    H228505   1.071   4.096   6.011  0.7788  1.6271  1.1479
 2364TIP3   OH228506   1.322   2.299   0.364 -0.2074 -0.5151 -0.1081
 2364TIP3    H128507   1.381   2.349   0.420 -1.3626  0.3245  0.3870
 2364TIP3    H228508   1.371   2.220   0.341  1.2438  0.3617 -0.0395
 2365TIP3   OH228509   4.421   0.880  10.028  0.1548 -0.2035 -0.1131
 2365TIP3    H128510   4.433   0.974  10.041  0.6953 -0.4647  1.3972
 2365TIP3    H228511   4.334   0.862  10.064  0.8803 -0.6131  1.4645
 2366TIP3   OH228512   2.004   0.545  16.660  0.3469 -0.1556  0.4812
 2366TIP3    H128513   2.092   0.516  16.634  0.1073  0.5294 -1.2076
 2366TIP3    H228514   1.984   0.496  16.740  2.2560 -0.3278  0.8692
 2367TIP3   OH228515   5.763   0.119   4.826 -0.1448  0.3698 -0.1111
 2367TIP3    H128516   5.729   0.205   4.854  0.8765  1.0590 -0.9527
 2367TIP3    H228517   5.858   0.128   4.831 -0.0546 -1.0480  0.7320
 2368TIP3   OH228518   2.100   1.779   4.833 -0.0197  0.1933  0.0848
 2368TIP3    H128519   2.019   1.813   4.796  0.2128 -0.8362 -1.4413
 2368TIP3    H228520   2.074   1.697   4.875  0.3518 -0.5511 -1.1166
 2369TIP3   OH228521   1.047   3.516  16.262 -0.1354  0.5037 -0.1846
 2369TIP3    H128522   1.133   3.545  16.290 -1.5683  2.4325  2.5201
 2369TIP3    H228523   1.014   3.465  16.336 -1.4218  0.0467 -1.0535
 2370TIP3   OH228524   1.956   6.748   3.541 -0.5268  0.0257  0.4794
 2370TIP3    H128525   1.907   6.683   3.491  2.4030 -1.8552 -0.0715
 2370TIP3    H228526   1.898   6.771   3.614 -2.3789 -1.7704 -0.3747
 2371TIP3   OH228527   3.392   6.437   0.217  0.5555  0.8101  0.2638
 2371TIP3    H128528   3.368   6.509   0.158 -0.0577  1.4610  1.2985
 2371TIP3    H228529   3.479   6.411   0.187 -0.7885 -0.6237 -2.6101
 2372TIP3   OH228530   2.991   2.525   2.628 -0.4965  0.3906  0.4436
 2372TIP3    H128531   2.988   2.606   2.680  1.1548  0.5481  0.3503
 2372TIP3    H228532   2.960   2.457   2.687 -1.3673  1.0181  0.7094
 2373TIP3   OH228533   0.691   5.854  12.891  0.3959  0.0263 -0.1746
 2373TIP3    H128534   0.749   5.785  12.860  0.0559 -0.7095  0.7971
 2373TIP3    H228535   0.746   5.932  12.894  1.2811 -0.6164  0.5365
 2374TIP3   OH228536   1.039   6.175   0.657 -0.4829 -0.7789 -0.5641
 2374TIP3    H128537   1.117   6.181   0.602 -0.3503 -0.9456 -0.3942
 2374TIP3    H228538   0.995   6.259   0.645 -0.1529 -0.5897 -0.4720
 2375TIP3   OH228539   3.494   4.750   5.951 -0.6360 -0.3064  0.2740
 2375TIP3    H128540   3.576   4.788   5.922 -0.4854 -1.3424 -0.7267
 2375TIP3    H228541   3.517   4.663   5.983 -1.0748  0.1258  1.8022
 2376TIP3   OH228542   6.609   0.670   3.450  0.7612 -0.4261 -0.6092
 2376TIP3    H128543   6.697   0.706   3.466  0.8026 -0.4518 -0.7681
 2376TIP3    H228544   6.557   0.697   3.525  0.8780 -0.3121 -0.5705
 2377TIP3   OH228545   5.911   3.804   5.607 -0.1865  0.2993  0.4011
 2377TIP3    H128546   5.897   3.828   5.515 -1.5075 -0.5907  0.3467
 2377TIP3    H228547   5.996   3.842   5.629 -0.8760  2.4915 -0.5151
 2378TIP3   OH228548   2.471   2.792   2.472 -0.3049 -0.3023  0.1499
 2378TIP3    H128549   2.549   2.741   2.492 -0.1623 -0.4635 -0.7846
 2378TIP3    H228550   2.427   2.804   2.557  0.7940 -0.0984  0.6947
 2379TIP3   OH228551   3.137   3.008  14.483  0.1001 -0.3697 -0.4982
 2379TIP3    H128552   3.192   2.933  14.460  2.2858  1.1380 -0.3592
 2379TIP3    H228553   3.199   3.080  14.496 -1.5075  0.4042  3.8378
 2380TIP3   OH228554   1.428   3.283   5.881  0.0803  0.1030 -0.3783
 2380TIP3    H128555   1.524   3.279   5.885  0.1307  1.4533 -0.0481
 2380TIP3    H228556   1.409   3.373   5.855 -1.1288  0.1153  0.5309
 2381TIP3   OH228557   1.233   5.604   2.892  0.1531 -0.3367  0.0158
 2381TIP3    H128558   1.257   5.628   2.802  0.6381  2.5816  0.8747
 2381TIP3    H228559   1.303   5.545   2.920  0.0023 -1.2808 -1.4817
 2382TIP3   OH228560   4.479   1.140  16.138  0.1756 -0.2010  0.7408
 2382TIP3    H128561   4.562   1.170  16.175 -0.1371  0.8561  0.5928
 2382TIP3    H228562   4.492   1.144  16.043  0.9253 -2.7699  0.6873
 2383TIP3   OH228563   5.934   0.332   2.223 -0.3374 -0.1232  0.5579
 2383TIP3    H128564   5.856   0.278   2.231  1.1684 -2.2356  1.5985
 2383TIP3    H228565   5.962   0.348   2.314  0.2025  0.9628  0.2162
 2384TIP3   OH228566   2.580   1.795  16.148  0.1713 -0.4636  0.0912
 2384TIP3    H128567   2.531   1.875  16.129  1.7417  0.8478  1.3797
 2384TIP3    H228568   2.547   1.766  16.233 -0.6111 -1.3709 -0.5139
 2385TIP3   OH228569   4.982   2.032  11.750 -0.3616  0.2327 -0.1993
 2385TIP3    H128570   4.897   2.076  11.746 -0.2525  0.4059 -0.6718
 2385TIP3    H228571   5.003   2.030  11.843 -1.3073 -0.6299 -0.0030
 2386TIP3   OH228572   6.594   2.185   5.647 -0.5162  0.2386  0.4325
 2386TIP3    H128573   6.519   2.218   5.598  0.0791 -0.3180 -0.8802
 2386TIP3    H228574   6.661   2.252   5.637 -0.0857 -0.2951 -0.2857
 2387TIP3   OH228575   4.156   4.038  14.589  0.0555 -0.1385  0.4441
 2387TIP3    H128576   4.171   4.129  14.616  0.1860 -0.1547  0.4326
 2387TIP3    H228577   4.241   3.996  14.602  0.0963 -0.1674  0.0862
 2388TIP3   OH228578   2.121   0.250   1.102 -0.0181 -0.3526  0.5966
 2388TIP3    H128579   2.125   0.246   1.006 -0.1498 -0.2335  0.5847
 2388TIP3    H228580   2.170   0.329   1.124  0.2441 -0.5285  0.6459
 2389TIP3   OH228581   4.429   1.877  12.704 -0.0334  1.1893 -0.0948
 2389TIP3    H128582   4.502   1.904  12.648  0.3383  0.3417 -0.0325
 2389TIP3    H228583   4.408   1.789  12.675  0.4330  0.5857  1.3643
 2390TIP3   OH228584   5.171   5.021   2.929 -0.0964  0.3426  0.3835
 2390TIP3    H128585   5.104   4.971   2.883  0.8731 -0.6625  0.0613
 2390TIP3    H228586   5.190   4.971   3.008 -0.2750  1.0204  0.8636
 2391TIP3   OH228587   2.280   2.861  16.137 -0.1036 -0.3734  0.0627
 2391TIP3    H128588   2.373   2.860  16.160 -0.3674 -0.5178  1.1399
 2391TIP3    H228589   2.255   2.953  16.139  0.1503 -0.2787 -0.8101
 2392TIP3   OH228590   5.954   6.191  16.778 -0.0215  0.1401  0.1682
 2392TIP3    H128591   5.981   6.109  16.818  0.1093  0.7277  1.3264
 2392TIP3    H228592   5.897   6.166  16.705  0.4456 -0.9823  0.1889
 2393TIP3   OH228593   0.263   2.610  12.472  0.1099 -0.1908 -0.3315
 2393TIP3    H128594   0.269   2.540  12.537 -0.7804 -0.4374 -0.5077
 2393TIP3    H228595   0.255   2.690  12.523 -1.8124 -0.4976 -0.1320
 2394TIP3   OH228596   4.406   6.494   0.956 -0.3524  0.1141 -1.1830
 2394TIP3    H128597   4.342   6.429   0.927 -1.4734  1.0682 -0.8880
 2394TIP3    H228598   4.383   6.510   1.048  1.0724 -0.4159 -0.7124
 2395TIP3   OH228599   3.297   5.562   3.930  0.3190 -0.0721  0.0633
 2395TIP3    H128600   3.256   5.647   3.917  0.1680  0.1740  1.9624
 2395TIP3    H228601   3.391   5.580   3.932  0.2287  0.3162  2.0577
 2396TIP3   OH228602   4.859   0.008   0.906  0.2161 -0.5714 -0.1941
 2396TIP3    H128603   4.922   0.010   0.977  0.1295  0.3800 -0.1398
 2396TIP3    H228604   4.886  -0.066   0.851  1.1235 -0.4210  0.0496
 2397TIP3   OH228605   0.913   3.557  12.111 -0.5600 -0.1616  0.1480
 2397TIP3    H128606   0.972   3.619  12.154 -0.8273  0.4744 -0.4028
 2397TIP3    H228607   0.885   3.498  12.181  0.6907 -0.4454  0.4364
 2398TIP3   OH228608   0.291   0.950   6.160 -0.6691  0.0729  0.2836
 2398TIP3    H128609   0.299   0.969   6.253  0.6079 -1.2441  0.4683
 2398TIP3    H228610   0.360   0.886   6.142 -1.2334 -0.1007 -1.4551
 2399TIP3   OH228611   4.272   6.535  14.381  0.1544  0.2440 -0.4312
 2399TIP3    H128612   4.306   6.573  14.463  1.5661 -0.2075 -0.7944
 2399TIP3    H228613   4.340   6.552  14.317 -0.7651  0.2074 -1.4263
 2400TIP3   OH228614   6.741   6.497  14.898  0.1874  0.1972 -0.2137
 2400TIP3    H128615   6.780   6.503  14.811  0.4602 -0.0343 -0.1065
 2400TIP3    H228616   6.678   6.569  14.901  1.4195  1.2874  0.0294
 2401TIP3   OH228617   3.853   0.960   3.234 -0.2239 -0.1377 -0.1245
 2401TIP3    H128618   3.761   0.947   3.258  0.2940 -1.4817  1.2215
 2401TIP3    H228619   3.887   0.871   3.219  0.8292  0.3539 -0.7352
 2402TIP3   OH228620   2.804   2.702  12.172  0.0466  0.0977 -0.4219
 2402TIP3    H128621   2.723   2.653  12.159 -0.1104  0.3828 -0.5035
 2402TIP3    H228622   2.852   2.651  12.238  0.1066 -0.4355 -0.8739
 2403TIP3   OH228623   3.144   3.612   6.526 -0.0930  0.4482  0.5311
 2403TIP3    H128624   3.085   3.547   6.488  1.5649 -1.0194  0.3835
 2403TIP3    H228625   3.155   3.584   6.617  0.0216  0.9826  0.6852
 2404TIP3   OH228626   5.001   5.412   4.034 -0.3105  0.3000  0.0784
 2404TIP3    H128627   5.077   5.442   3.985  0.6108 -0.4045  1.0481
 2404TIP3    H228628   4.976   5.487   4.088  2.3589 -0.7638  2.9542
 2405TIP3   OH228629   3.378   4.306  12.717  0.3812 -0.0529 -0.7456
 2405TIP3    H128630   3.439   4.292  12.789  0.2574  0.2372 -0.5859
 2405TIP3    H228631   3.427   4.361  12.655  0.9321 -1.3246 -1.4553
 2406TIP3   OH228632   1.085   3.072   2.176  0.5028  0.2472 -0.3190
 2406TIP3    H128633   1.047   2.987   2.198  1.4308 -0.5099 -1.5254
 2406TIP3    H228634   1.163   3.050   2.125  0.3569  1.8415 -1.2576
 2407TIP3   OH228635   0.590   0.933  14.080 -0.1846 -0.4499 -0.2745
 2407TIP3    H128636   0.539   0.853  14.094 -0.5725  0.0041  0.9326
 2407TIP3    H228637   0.535   1.003  14.115  0.9767  0.1314  0.4028
 2408TIP3   OH228638   0.507   6.050   1.908  0.4108  0.0279 -0.1192
 2408TIP3    H128639   0.520   5.959   1.880  1.7388  0.2374 -0.2340
 2408TIP3    H228640   0.528   6.102   1.830 -3.8337  0.3281 -1.1537
 2409TIP3   OH228641   4.216   1.454  14.082  0.3005  0.0447 -0.1913
 2409TIP3    H128642   4.188   1.492  14.000 -0.0680  0.3690  0.0886
 2409TIP3    H228643   4.311   1.466  14.083  0.2412  0.5298 -0.3191
 2410TIP3   OH228644   5.868   1.730   2.059 -0.4109 -0.0299  0.1981
 2410TIP3    H128645   5.813   1.657   2.030  0.8838 -0.9050 -0.0896
 2410TIP3    H228646   5.954   1.712   2.022  0.7727 -0.0857  2.8664
 2411TIP3   OH228647   4.440   1.168   1.107 -0.0548 -0.3485 -0.1262
 2411TIP3    H128648   4.479   1.209   1.029 -1.9254  0.9933 -0.4172
 2411TIP3    H228649   4.376   1.233   1.137 -1.6087 -2.2118  0.6598
 2412TIP3   OH228650   6.226   6.784  10.989  0.1536 -0.3030 -0.3412
 2412TIP3    H128651   6.243   6.690  10.981  0.8355 -0.2045 -0.1523
 2412TIP3    H228652   6.133   6.790  11.011  0.4115 -1.0035  1.0406
 2413TIP3   OH228653   3.620   5.329   0.279 -0.3369  0.1582  0.1819
 2413TIP3    H128654   3.711   5.298   0.273 -0.1687  0.6353  0.2627
 2413TIP3    H228655   3.626   5.411   0.328 -0.7841  0.3177 -0.0288
 2414TIP3   OH228656   6.515   3.971   4.668  0.2576  0.4996 -0.1047
 2414TIP3    H128657   6.470   4.049   4.701  1.2340  1.3588 -0.7718
 2414TIP3    H228658   6.480   3.957   4.581  1.6257  1.4763 -0.8299
 2415TIP3   OH228659   3.149   1.241  16.289  0.1417  0.0500 -0.0858
 2415TIP3    H128660   3.233   1.196  16.300  0.0001  0.0511  1.0302
 2415TIP3    H228661   3.089   1.172  16.261  0.6313  0.1530 -1.4414
 2416TIP3   OH228662   5.268   1.810  13.346 -0.5735 -0.3861  0.2012
 2416TIP3    H128663   5.234   1.862  13.419 -0.7372  0.9372 -0.7885
 2416TIP3    H228664   5.354   1.848  13.327  0.2372 -1.8740  0.8453
 2417TIP3   OH228665   1.338   2.479   3.168 -0.5400 -0.3398 -0.6258
 2417TIP3    H128666   1.313   2.512   3.082  1.7299  0.9722 -0.8270
 2417TIP3    H228667   1.300   2.542   3.230  1.7785  1.3892 -0.9061
 2418TIP3   OH228668   4.716   3.308   3.788  0.3945  0.0739 -0.0773
 2418TIP3    H128669   4.707   3.251   3.711  0.6872 -0.6264  0.3970
 2418TIP3    H228670   4.705   3.249   3.862  0.7033  0.6431  0.4259
 2419TIP3   OH228671   1.896   5.804  12.423  0.0839  0.2572 -0.5057
 2419TIP3    H128672   1.859   5.890  12.442  0.0730  0.2562 -0.5225
 2419TIP3    H228673   1.900   5.760  12.508 -0.2720  0.1292 -0.5532
 2420TIP3   OH228674   3.964   1.933   4.812 -0.1462  0.2988 -0.0386
 2420TIP3    H128675   3.883   1.983   4.817 -0.5671 -0.2582 -1.0442
 2420TIP3    H228676   3.961   1.874   4.888  0.6344  2.1557  1.4935
 2421TIP3   OH228677   5.732   2.335  15.812  0.2904 -0.2724 -0.1458
 2421TIP3    H128678   5.713   2.429  15.805 -0.7209 -0.3995  0.7752
 2421TIP3    H228679   5.815   2.331  15.859  1.3823  0.2094 -1.9668
 2422TIP3   OH228680   3.438   2.975  12.018 -0.5698 -0.1293 -0.0020
 2422TIP3    H128681   3.434   3.033  12.094  1.4530  0.4838 -0.3425
 2422TIP3    H228682   3.358   2.994  11.969 -0.9338  0.8671  0.9689
 2423TIP3   OH228683   4.553   3.800  13.559  0.0095  0.6437 -0.1881
 2423TIP3    H128684   4.586   3.889  13.543 -0.0454  0.9389  1.2736
 2423TIP3    H228685   4.459   3.807  13.547  0.2487  0.2040 -2.5693
 2424TIP3   OH228686   5.011   3.922   0.443  0.6634 -0.0972 -0.1471
 2424TIP3    H128687   4.971   3.966   0.368 -0.3124  0.7398  0.8492
 2424TIP3    H228688   4.962   3.954   0.518  0.4545 -2.3062  0.6840
 2425TIP3   OH228689   4.119   3.874  13.757 -0.6434 -0.8118 -0.4665
 2425TIP3    H128690   4.069   3.955  13.766  2.2981  0.8878  1.4901
 2425TIP3    H228691   4.070   3.809  13.807 -1.5684  0.4874  0.3302
 2426TIP3   OH228692   4.597   3.748  14.859 -0.1817  0.3090  0.1419
 2426TIP3    H128693   4.603   3.803  14.781  0.8362  0.2148  0.1521
 2426TIP3    H228694   4.660   3.786  14.920  0.2768 -0.6487  0.2749
 2427TIP3   OH228695   0.868   3.785   1.567  0.5262  0.4637  0.4268
 2427TIP3    H128696   0.791   3.782   1.624 -0.4713 -1.3816 -0.9631
 2427TIP3    H228697   0.942   3.788   1.627 -0.5448 -0.2755  1.8146
 2428TIP3   OH228698   4.083   2.916   5.188 -0.8326 -0.6117  0.1455
 2428TIP3    H128699   4.078   2.920   5.284  0.2935  1.3181  0.1557
 2428TIP3    H228700   4.094   2.823   5.168 -2.8673 -1.2430  1.7876
 2429TIP3   OH228701   3.869   0.623  12.688 -0.1533 -0.1716  0.2080
 2429TIP3    H128702   3.898   0.550  12.632 -0.5731 -0.4244  0.3226
 2429TIP3    H228703   3.912   0.700  12.650  0.2262 -0.4658  0.0366
 2430TIP3   OH228704   1.150   3.559   5.025 -0.4025 -0.3767 -0.0838
 2430TIP3    H128705   1.088   3.572   4.954 -1.1656 -0.3206  0.5857
 2430TIP3    H228706   1.166   3.646   5.060  0.1713 -0.3740 -0.3572
 2431TIP3   OH228707   5.348   4.524  15.629 -0.5597 -0.7107 -0.3546
 2431TIP3    H128708   5.315   4.478  15.552  2.3912  1.6364 -3.1579
 2431TIP3    H228709   5.407   4.461  15.671  0.1536 -0.9775 -1.7306
 2432TIP3   OH228710   1.902   2.168  11.637  0.0366 -0.8379  0.3390
 2432TIP3    H128711   1.846   2.152  11.713  0.4393  0.6688  0.9706
 2432TIP3    H228712   1.886   2.259  11.614  2.7629 -0.1390  1.0028
 2433TIP3   OH228713   4.343   3.074   5.508 -0.0522  0.0046  0.4152
 2433TIP3    H128714   4.379   3.036   5.588 -1.2154  2.2191  2.0257
 2433TIP3    H228715   4.394   3.033   5.437  0.4042 -2.6521  2.1911
 2434TIP3   OH228716   5.982   1.299   1.475  0.2423 -0.0493 -0.4512
 2434TIP3    H128717   6.050   1.364   1.488 -0.3671  0.6491 -0.7120
 2434TIP3    H228718   5.973   1.291   1.380 -0.5024  0.3681 -0.4253
 2435TIP3   OH228719   3.250   0.486   5.788 -0.2912 -0.7373 -0.6752
 2435TIP3    H128720   3.322   0.521   5.736  0.5363 -0.6892  0.4806
 2435TIP3    H228721   3.289   0.416   5.840  0.1450  2.5554  3.7118
 2436TIP3   OH228722   2.086   0.994  14.424 -0.0440 -0.0421  0.4236
 2436TIP3    H128723   2.079   1.082  14.387  0.7226 -0.2489 -0.2357
 2436TIP3    H228724   2.163   0.998  14.481 -0.5899 -0.0159  1.1577
 2437TIP3   OH228725   1.618   3.789  14.705 -0.3503 -0.3148 -0.7021
 2437TIP3    H128726   1.538   3.835  14.678  1.0351  1.8875 -1.2753
 2437TIP3    H228727   1.672   3.789  14.625  0.6445 -0.7819 -0.0307
 2438TIP3   OH228728   1.797   3.316  16.579 -0.4507 -0.1392 -0.2587
 2438TIP3    H128729   1.756   3.234  16.606 -3.0928  0.0029 -3.5588
 2438TIP3    H228730   1.750   3.383  16.627 -1.0569 -0.2799 -0.6580
 2439TIP3   OH228731   6.645   4.190  16.034 -0.0197 -0.2777 -0.5321
 2439TIP3    H128732   6.741   4.188  16.034  0.0101  0.9093 -0.2336
 2439TIP3    H228733   6.620   4.105  15.998  1.1426 -0.5469 -0.7476
 2440TIP3   OH228734   3.992   4.241  15.865 -0.1446  0.5986 -0.2908
 2440TIP3    H128735   4.012   4.196  15.947  1.8167  1.7012 -0.1313
 2440TIP3    H228736   3.939   4.317  15.891 -1.4394 -0.2886 -0.3066
 2441TIP3   OH228737   0.038   2.068  14.814  0.2073 -0.0793 -0.1533
 2441TIP3    H128738  -0.013   2.019  14.879  1.5844  1.2281  1.9694
 2441TIP3    H228739   0.124   2.025  14.814  0.1770 -0.1734 -1.2744
 2442TIP3   OH228740   1.703   4.913  16.089 -0.6985  0.5314 -0.7375
 2442TIP3    H128741   1.677   4.923  16.180  0.4930 -1.2096 -0.1776
 2442TIP3    H228742   1.765   4.985  16.074 -0.8843  0.8126 -0.1768
 2443TIP3   OH228743   4.292   3.541   4.585  0.1088  0.3928 -0.5847
 2443TIP3    H128744   4.285   3.451   4.553  1.1798  0.1010 -0.0298
 2443TIP3    H228745   4.283   3.595   4.506 -3.4164 -0.0533 -0.5696
 2444TIP3   OH228746   2.139   0.333  15.302 -0.0511 -0.4478 -0.4176
 2444TIP3    H128747   2.230   0.308  15.321 -0.7370 -1.0393  2.3467
 2444TIP3    H228748   2.086   0.274  15.356 -2.0368  0.7475 -1.0019
 2445TIP3   OH228749   0.110   4.213  14.604  0.0761  0.0960  0.5289
 2445TIP3    H128750   0.059   4.290  14.578  1.3891  0.7120 -0.2446
 2445TIP3    H228751   0.113   4.218  14.699 -1.4741 -0.0626  0.6125
 2446TIP3   OH228752   2.055   2.336  12.761  0.5929  0.0378  0.2806
 2446TIP3    H128753   2.032   2.418  12.804  0.6991  0.2191 -0.0102
 2446TIP3    H228754   2.141   2.351  12.722  1.1449 -0.5933  1.2284
 2447TIP3   OH228755   3.842   0.036   0.022  0.4077  0.0622 -0.2516
 2447TIP3    H128756   3.814   0.088   0.097  0.0834 -1.4899  0.7393
 2447TIP3    H228757   3.896   0.095  -0.030  0.0056  1.3838  0.8147
 2448TIP3   OH228758   4.987   5.476   3.670 -0.3699  0.0075 -0.1376
 2448TIP3    H128759   4.959   5.490   3.580 -1.5757 -1.2158  0.0365
 2448TIP3    H228760   4.925   5.528   3.723  1.4988  2.2918 -0.0877
 2449TIP3   OH228761   3.922   6.389   0.130 -0.9982  0.1860 -0.4339
 2449TIP3    H128762   3.972   6.462   0.093 -1.1926  0.8497  0.5957
 2449TIP3    H228763   3.929   6.320   0.065  2.5062 -0.2501  0.3098
 2450TIP3   OH228764   0.720   6.155  13.242  0.1185 -0.1333  0.0282
 2450TIP3    H128765   0.766   6.084  13.197 -0.7815 -0.8882  0.2849
 2450TIP3    H228766   0.789   6.217  13.266  0.8697 -0.7630 -0.4878
 2451TIP3   OH228767   3.180   2.319  17.208 -0.2656  0.5852 -0.2886
 2451TIP3    H128768   3.142   2.407  17.209  1.0888  1.1775 -0.2106
 2451TIP3    H228769   3.270   2.331  17.179 -0.5719 -1.0064 -1.9975
 2452TIP3   OH228770   4.710   3.100  11.636 -0.3898  0.8701 -0.3603
 2452TIP3    H128771   4.628   3.055  11.616 -0.2559  0.8017 -0.7555
 2452TIP3    H228772   4.748   3.050  11.708  0.4555 -0.5057 -1.7411
 2453TIP3   OH228773   1.017   0.238   2.315 -0.1919 -0.5430 -0.0799
 2453TIP3    H128774   1.049   0.270   2.230  0.8700 -0.4242  0.3598
 2453TIP3    H228775   1.032   0.311   2.375  2.2603 -1.8571  0.9399
 2454TIP3   OH228776   2.116   3.664   0.473 -0.4019  0.2721 -0.2651
 2454TIP3    H128777   2.067   3.591   0.435  0.2026  0.1494 -0.8204
 2454TIP3    H228778   2.180   3.688   0.405  0.4726  0.2606  0.5448
 2455TIP3   OH228779   1.307   5.549  15.249  0.2541  0.3150  0.0411
 2455TIP3    H128780   1.360   5.623  15.276 -0.5407  1.0795 -0.4848
 2455TIP3    H228781   1.242   5.539  15.319  0.8035 -0.3324  0.4612
 2456TIP3   OH228782   2.083   2.552   5.634  0.0809 -0.1341  0.8921
 2456TIP3    H128783   2.149   2.574   5.568 -0.8940 -0.5185 -0.2168
 2456TIP3    H228784   2.132   2.553   5.717  1.6479 -1.1258  0.0206
 2457TIP3   OH228785   0.370   3.465  12.481 -0.8576 -0.4576  0.7787
 2457TIP3    H128786   0.462   3.486  12.496 -0.3745 -0.9076 -1.2598
 2457TIP3    H228787   0.361   3.375  12.514 -0.6921 -0.2206  1.4657
 2458TIP3   OH228788   0.300   2.665  13.483  0.2560 -0.4127  0.3628
 2458TIP3    H128789   0.371   2.683  13.545  1.2341  0.6015 -1.0285
 2458TIP3    H228790   0.343   2.618  13.411 -0.6393 -0.5226 -0.0998
 2459TIP3   OH228791   0.004   4.397  11.801 -0.0548  0.0558 -0.1457
 2459TIP3    H128792  -0.021   4.445  11.880 -1.7834 -0.3864 -0.3916
 2459TIP3    H228793   0.060   4.327  11.833  0.5525  0.8232  0.5003
 2460TIP3   OH228794   2.501   5.551  16.597 -0.0016  0.2778  0.0305
 2460TIP3    H128795   2.447   5.503  16.535  0.3938 -0.1432  0.0050
 2460TIP3    H228796   2.440   5.606  16.646 -0.3897  0.1410 -0.3019
 2461TIP3   OH228797   6.455   5.548   1.047 -0.0681  0.1939 -0.4535
 2461TIP3    H128798   6.518   5.605   1.002  1.0216 -1.0516 -0.5138
 2461TIP3    H228799   6.387   5.608   1.078  1.3965  1.6314  0.0508
 2462TIP3   OH228800   3.547   4.730   3.129  0.7685 -0.9278 -0.0887
 2462TIP3    H128801   3.566   4.823   3.141 -0.9574 -0.4731 -0.6718
 2462TIP3    H228802   3.603   4.685   3.193  0.9596  0.5705  0.8205
 2463TIP3   OH228803   5.327   4.763   0.216  0.7092 -0.2440 -0.6419
 2463TIP3    H128804   5.379   4.817   0.156  1.5795  2.1582  2.1317
 2463TIP3    H228805   5.240   4.758   0.176  1.5080  0.5578 -2.5140
 2464TIP3   OH228806   5.924   2.413   2.471 -0.5968 -0.3676  0.2260
 2464TIP3    H128807   5.916   2.468   2.393  2.8065 -0.5473 -0.2883
 2464TIP3    H228808   5.884   2.465   2.541  0.2418  1.6766 -0.7754
 2465TIP3   OH228809   5.155   1.321  13.355  0.0992  0.3092  0.0324
 2465TIP3    H128810   5.140   1.337  13.262 -1.4087  0.8581  0.3575
 2465TIP3    H228811   5.183   1.405  13.390  2.6212 -0.3597 -0.2780
 2466TIP3   OH228812   3.218   3.187   6.355 -0.0809  0.5110  0.3690
 2466TIP3    H128813   3.250   3.098   6.365  0.5392  0.4044 -2.1606
 2466TIP3    H228814   3.127   3.177   6.327  1.0570  0.5036 -3.6559
 2467TIP3   OH228815   0.265   2.829   2.897  0.0517  0.2202  0.0792
 2467TIP3    H128816   0.259   2.878   2.979  1.6660 -0.1018  0.4103
 2467TIP3    H228817   0.206   2.755   2.909 -0.3753  0.6448  0.6145
 2468TIP3   OH228818   1.886   2.524   0.819 -0.1221  0.2294  0.2221
 2468TIP3    H128819   1.937   2.473   0.882 -0.9206 -2.3785 -1.1727
 2468TIP3    H228820   1.950   2.550   0.753  0.0357 -0.2398  0.1844
 2469TIP3   OH228821   1.848   1.566   5.331 -0.7742 -0.3813  0.2739
 2469TIP3    H128822   1.844   1.618   5.412 -0.7243  1.9537 -1.1820
 2469TIP3    H228823   1.916   1.500   5.348  0.3449  1.0819  1.5773
 2470TIP3   OH228824   0.283   3.639  11.976 -0.4297  0.2574 -0.2009
 2470TIP3    H128825   0.284   3.660  12.069 -0.3325 -1.6554  0.2481
 2470TIP3    H228826   0.363   3.680  11.941  0.8652 -1.1173  1.0584
 2471TIP3   OH228827   3.324   5.181   5.911  0.0956  0.2204 -0.8573
 2471TIP3    H128828   3.414   5.148   5.910 -0.1067 -0.4969  1.5365
 2471TIP3    H228829   3.320   5.237   5.989 -1.1480  1.3805 -1.7321
 2472TIP3   OH228830   6.328   2.173   3.812  0.6619 -0.2740  0.2749
 2472TIP3    H128831   6.303   2.266   3.812  0.8486 -0.2286  0.9767
 2472TIP3    H228832   6.424   2.174   3.811  0.6811 -0.4533 -2.0937
 2473TIP3   OH228833   0.196   4.907  13.737  0.1667 -0.2308 -0.2056
 2473TIP3    H128834   0.228   4.996  13.751  2.5234 -1.3058  1.6153
 2473TIP3    H228835   0.138   4.890  13.811 -0.8756  0.0045 -0.9433
 2474TIP3   OH228836   1.630   0.135   3.393 -0.3754 -0.2438  0.6497
 2474TIP3    H128837   1.654   0.042   3.395 -3.1501 -1.0091  0.7197
 2474TIP3    H228838   1.535   0.135   3.402 -0.4291  2.6203  0.4735
 2475TIP3   OH228839   6.646   4.762   4.356 -0.2466  0.0294 -0.3280
 2475TIP3    H128840   6.666   4.807   4.439  0.0997  0.2019 -0.5024
 2475TIP3    H228841   6.666   4.827   4.289  0.9897 -0.6349 -0.6230
 2476TIP3   OH228842   3.064   6.203  14.172  0.1659  0.3895 -0.3101
 2476TIP3    H128843   3.057   6.266  14.100  0.3906  2.5760  1.5512
 2476TIP3    H228844   3.129   6.240  14.231  1.3389 -2.2930  0.1765
 2477TIP3   OH228845   5.805   3.991  13.012 -0.2226  0.4888 -0.4579
 2477TIP3    H128846   5.776   3.904  12.982 -0.4809  0.5987 -0.5287
 2477TIP3    H228847   5.862   3.972  13.087 -1.3248  0.3172  0.3488
 2478TIP3   OH228848   5.146   3.794   1.096  0.0223  0.1045 -0.2015
 2478TIP3    H128849   5.134   3.721   1.034  1.1572  0.8479 -1.3259
 2478TIP3    H228850   5.204   3.758   1.163  0.7428  0.0247 -0.8610
 2479TIP3   OH228851   0.133   4.920   1.941 -0.2421  0.1975  0.2437
 2479TIP3    H128852   0.204   4.984   1.946  0.8457 -0.8682 -1.0395
 2479TIP3    H228853   0.144   4.867   2.020  0.6793 -0.2474 -0.1745
 2480TIP3   OH228854   6.306   0.284  12.283  0.3674 -0.5744 -0.4674
 2480TIP3    H128855   6.247   0.356  12.264  0.7956 -0.0706  0.0971
 2480TIP3    H228856   6.312   0.235  12.201 -0.5346 -0.4173 -0.6285
 2481TIP3   OH228857   5.143   6.624  14.479  0.1052  0.0870  0.2560
 2481TIP3    H128858   5.120   6.689  14.412 -0.1712  0.9698  1.1963
 2481TIP3    H228859   5.169   6.675  14.555  0.2174 -0.9089  0.9031
 2482TIP3   OH228860   2.618   6.606  14.761  0.1943  0.1760 -0.3021
 2482TIP3    H128861   2.687   6.569  14.816  0.5432 -0.2284 -1.0086
 2482TIP3    H228862   2.614   6.698  14.786 -0.1352 -0.1580  0.9042
 2483TIP3   OH228863   5.668   5.248   0.296  0.0544 -0.4029  0.7028
 2483TIP3    H128864   5.627   5.192   0.230 -1.5096  1.9029 -0.3581
 2483TIP3    H228865   5.610   5.243   0.371 -0.2804  0.0523  0.4784
 2484TIP3   OH228866   3.822   2.406   3.543  0.1393  0.6280  0.0955
 2484TIP3    H128867   3.794   2.333   3.488 -1.4423  1.4694 -0.2128
 2484TIP3    H228868   3.908   2.430   3.509 -0.6879  0.9457 -1.8239
 2485TIP3   OH228869   2.332   6.268   0.691  0.0778  0.4442  0.0047
 2485TIP3    H128870   2.280   6.278   0.770 -0.4410 -0.1219 -0.2658
 2485TIP3    H228871   2.417   6.236   0.722 -0.1021  0.2884  0.3291
 2486TIP3   OH228872   4.078   1.893  16.253 -0.2698 -0.4766  0.3749
 2486TIP3    H128873   4.156   1.919  16.203 -0.2250  0.1145  0.7492
 2486TIP3    H228874   4.108   1.891  16.344 -0.5361 -0.8453  0.4547
 2487TIP3   OH228875   0.392   5.859   4.741 -0.2195 -0.2954  0.3624
 2487TIP3    H128876   0.380   5.833   4.832  1.2640 -1.0128  0.3729
 2487TIP3    H228877   0.451   5.935   4.745  0.2687 -0.6476 -0.0163
 2488TIP3   OH228878   4.182   2.894   3.475  0.1645  0.3263 -0.4115
 2488TIP3    H128879   4.266   2.939   3.481  0.0224  0.6008 -0.4830
 2488TIP3    H228880   4.205   2.803   3.455  0.4118  0.5419 -1.0965
 2489TIP3   OH228881   0.731   5.138  14.481 -0.1734  0.3648 -0.3887
 2489TIP3    H128882   0.679   5.078  14.535 -0.4205 -0.2724 -1.3393
 2489TIP3    H228883   0.818   5.137  14.522 -0.4621  0.1874  0.2325
 2490TIP3   OH228884   0.998   3.594  12.689 -0.0990  0.3753  0.6386
 2490TIP3    H128885   0.947   3.573  12.611  0.2167 -0.4712  0.6636
 2490TIP3    H228886   0.978   3.524  12.751  0.0033  0.8029  1.1646
 2491TIP3   OH228887   5.972   2.673   5.069  0.2110 -0.4834 -0.5349
 2491TIP3    H128888   5.958   2.595   5.015 -0.0246 -0.2145 -0.8609
 2491TIP3    H228889   5.917   2.658   5.146 -1.5030  0.3422 -1.5806
 2492TIP3   OH228890   2.824   1.032   2.998  0.2165  0.1547  0.2405
 2492TIP3    H128891   2.907   1.075   3.015  0.9742 -2.2618  3.0419
 2492TIP3    H228892   2.847   0.942   2.975 -1.5152  0.1448 -1.6361
 2493TIP3   OH228893   3.051   1.838  16.608  0.0688 -0.3902  0.3044
 2493TIP3    H128894   3.088   1.887  16.535  1.5627  0.7515  1.7962
 2493TIP3    H228895   2.967   1.805  16.574  0.3978  0.7102 -1.6802
 2494TIP3   OH228896   3.377   2.561   4.951 -0.3068  0.2237  0.1359
 2494TIP3    H128897   3.356   2.492   5.013 -1.3996  0.7430  0.3438
 2494TIP3    H228898   3.389   2.640   5.005  1.5926  0.0651 -0.0301
 2495TIP3   OH228899   1.050   2.909  11.110  0.3078 -0.1260 -0.0389
 2495TIP3    H128900   0.986   2.977  11.091 -0.6542 -1.1464 -0.5180
 2495TIP3    H228901   1.023   2.874  11.195  0.9900  0.3015  0.3573
 2496TIP3   OH228902   4.666   0.905  16.972 -0.1653 -0.0430 -0.2100
 2496TIP3    H128903   4.579   0.869  16.989 -0.0600  0.4351  1.4377
 2496TIP3    H228904   4.723   0.862  17.036  0.1170  2.3256  1.2071
 2497TIP3   OH228905   1.968   3.753  11.951  0.5601  0.2622  0.3189
 2497TIP3    H128906   1.924   3.805  12.018 -0.1293  0.1552 -0.0460
 2497TIP3    H228907   1.989   3.670  11.994  0.2430  0.2457  0.4446
 2498TIP3   OH228908   2.167   0.752   0.132  0.3201  0.2201  0.0815
 2498TIP3    H128909   2.216   0.798   0.200  1.5212 -0.5276 -0.2538
 2498TIP3    H228910   2.094   0.810   0.111 -0.5270  0.0942  2.5693
 2499TIP3   OH228911   1.695   0.218   3.935 -0.1654  0.1693  0.5295
 2499TIP3    H128912   1.743   0.289   3.894  0.3743 -0.3108  0.3129
 2499TIP3    H228913   1.619   0.259   3.975  0.6671  1.0056  1.2615
 2500TIP3   OH228914   3.181   6.203   5.380  0.4047 -0.5336 -0.1638
 2500TIP3    H128915   3.243   6.147   5.332 -0.5572  0.0568 -2.1504
 2500TIP3    H228916   3.138   6.254   5.312 -0.3349  1.0251  1.4483
 2501TIP3   OH228917   2.651   5.371  13.611  0.2611  0.3328  0.3329
 2501TIP3    H128918   2.594   5.415  13.674 -0.6798 -1.1598  0.5454
 2501TIP3    H228919   2.701   5.309  13.663  1.2284  0.7889 -0.0387
 2502TIP3   OH228920   0.178   4.268   4.245 -0.3556  0.1953  0.4796
 2502TIP3    H128921   0.150   4.333   4.310 -0.4032 -1.2209  1.9036
 2502TIP3    H228922   0.100   4.255   4.190 -0.1655  1.7576 -0.2056
 2503TIP3   OH228923   0.198   0.073  17.152  0.2588  0.2214 -0.2908
 2503TIP3    H128924   0.271   0.075  17.214  0.0800  0.4270 -0.0864
 2503TIP3    H228925   0.216  -0.002  17.096  0.6321  0.2791 -0.2456
 2504TIP3   OH228926   3.207   3.317   5.972  0.8255  0.5625 -0.3501
 2504TIP3    H128927   3.299   3.330   5.996  0.3021 -0.8879  2.6327
 2504TIP3    H228928   3.180   3.401   5.936  3.4039  0.9087 -1.6351
 2505TIP3   OH228929   5.975   6.472  13.133  0.0685  0.5059  0.1973
 2505TIP3    H128930   6.028   6.410  13.083 -0.3262  0.3217  0.0042
 2505TIP3    H228931   6.015   6.557  13.115 -0.4360  0.5141 -0.9180
 2506TIP3   OH228932   1.671   6.553   4.005 -0.2433 -0.1496  0.3154
 2506TIP3    H128933   1.611   6.611   3.959  0.9962  1.2787  0.4312
 2506TIP3    H228934   1.703   6.606   4.078  0.6684 -1.0943  0.6057
 2507TIP3   OH228935   6.140   5.955  15.045  0.3167  0.0974 -0.2769
 2507TIP3    H128936   6.083   5.983  15.116  1.1619  0.2111  0.3642
 2507TIP3    H228937   6.189   6.034  15.022  0.8246 -0.2052 -0.2451
 2508TIP3   OH228938   0.559   4.191  16.877 -0.3969 -0.4642 -0.2410
 2508TIP3    H128939   0.508   4.246  16.935 -0.4141 -0.0351 -0.6625
 2508TIP3    H228940   0.495   4.129  16.841 -0.1162 -1.6883  1.3231
 2509TIP3   OH228941   1.398   5.835   1.704 -0.3608  0.4533 -0.6129
 2509TIP3    H128942   1.350   5.866   1.781 -0.7962 -0.1164 -0.6437
 2509TIP3    H228943   1.487   5.867   1.716 -0.6476  1.1495 -0.3308
 2510TIP3   OH228944   1.252   0.637  14.445 -0.1989  0.3413  0.2432
 2510TIP3    H128945   1.167   0.596  14.427 -0.7042  0.6796  1.7199
 2510TIP3    H228946   1.247   0.723  14.404  0.5052 -0.7046 -2.0698
 2511TIP3   OH228947   5.746   5.035   1.731 -0.1099  0.3205  0.0402
 2511TIP3    H128948   5.746   4.968   1.662  1.6399  0.5558 -0.2066
 2511TIP3    H228949   5.726   4.987   1.811 -3.3296  0.2194 -0.7682
 2512TIP3   OH228950   6.558   3.287  13.983 -0.4674 -0.2813  0.4924
 2512TIP3    H128951   6.573   3.204  13.939 -1.7357  0.7042 -1.8813
 2512TIP3    H228952   6.591   3.353  13.922  0.1034  1.0054  2.1382
 2513TIP3   OH228953   6.193   0.523  13.814  0.6637 -0.3735  0.0959
 2513TIP3    H128954   6.174   0.617  13.816  0.6713 -0.3489 -0.5868
 2513TIP3    H228955   6.184   0.494  13.904  1.6905  0.4919  0.4857
 2514TIP3   OH228956   3.256   3.072   0.902  0.2674 -0.7569  0.3390
 2514TIP3    H128957   3.181   3.019   0.930 -0.7026  1.4391  2.1280
 2514TIP3    H228958   3.217   3.150   0.863  1.6164 -0.0384  0.3818
 2515TIP3   OH228959   1.144   0.558  11.214  0.0070  0.4676  0.5376
 2515TIP3    H128960   1.115   0.525  11.129 -0.0488 -0.9684  1.0906
 2515TIP3    H228961   1.230   0.597  11.197 -0.8087  1.8611 -0.5101
 2516TIP3   OH228962   0.311   1.437   0.963  0.6173 -0.2676  0.1386
 2516TIP3    H128963   0.392   1.487   0.950 -0.9963  2.4932  0.3054
 2516TIP3    H228964   0.244   1.489   0.918 -1.3863 -1.4968  1.6637
 2517TIP3   OH228965   6.024   3.804  16.398 -0.1368  0.3950  0.9665
 2517TIP3    H128966   6.033   3.897  16.415  0.9202  0.9105 -2.1468
 2517TIP3    H228967   6.109   3.777  16.365 -1.6245 -0.7325 -2.1597
 2518TIP3   OH228968   3.652   6.362  16.895 -0.5029 -0.0696 -0.0670
 2518TIP3    H128969   3.653   6.410  16.978  0.2131  0.3710 -0.3239
 2518TIP3    H228970   3.559   6.359  16.870 -0.8586 -1.2737  1.3509
 2519TIP3   OH228971   3.961   5.740  15.555  0.3372  0.0329 -0.1531
 2519TIP3    H128972   4.028   5.689  15.601  1.3155  0.1822 -1.3696
 2519TIP3    H228973   3.980   5.726  15.462 -0.6377  0.9788 -0.5087
 2520TIP3   OH228974   6.495   4.089  15.225 -0.1969  0.2233  0.7450
 2520TIP3    H128975   6.476   4.034  15.301 -0.2824  0.7688  1.1191
 2520TIP3    H228976   6.463   4.038  15.150  1.2003 -0.9515  0.9283
 2521TIP3   OH228977   2.308   6.778   6.068 -0.0404 -0.0935  0.3204
 2521TIP3    H128978   2.258   6.776   6.149 -0.1785 -0.4157  0.2275
 2521TIP3    H228979   2.361   6.699   6.071  0.3845  0.1905  0.3667
 2522TIP3   OH228980   5.332   2.909   4.334  0.3498  0.1858  0.1164
 2522TIP3    H128981   5.280   2.970   4.282 -1.1110 -2.5596 -1.7178
 2522TIP3    H228982   5.342   2.832   4.278  2.3136 -1.2165  2.3131
 2523TIP3   OH228983   6.246   3.102   5.278  0.1201  1.0209  0.1230
 2523TIP3    H128984   6.167   3.070   5.235  0.8697 -0.6836 -0.0473
 2523TIP3    H228985   6.215   3.167   5.341 -1.4184  0.3123  0.1217
 2524TIP3   OH228986   5.789   2.206  12.902 -0.2768  0.2195 -0.6731
 2524TIP3    H128987   5.716   2.264  12.880 -1.0364 -0.9653 -1.2669
 2524TIP3    H228988   5.867   2.259  12.884 -0.9689  1.4397 -0.1653
 2525TIP3   OH228989   5.530   6.428  10.861 -0.2016  0.8209 -0.2604
 2525TIP3    H128990   5.613   6.458  10.823  0.2029  0.2604  0.1678
 2525TIP3    H228991   5.495   6.366  10.796 -0.9321  2.0498 -1.0466
 2526TIP3   OH228992   4.949   6.543   5.152 -0.0396  0.1093 -0.0375
 2526TIP3    H128993   4.906   6.619   5.114  0.7786  0.4798 -0.2328
 2526TIP3    H228994   4.976   6.490   5.077 -2.3651 -1.3629  0.1411
 2527TIP3   OH228995   1.922   5.919   5.286  0.0092  0.0888  0.7802
 2527TIP3    H128996   1.951   5.833   5.316  1.9712  0.3706 -0.2294
 2527TIP3    H228997   1.948   5.923   5.194 -0.0144  1.7610  0.8243
 2528TIP3   OH228998   1.321   1.766  15.052 -0.1134 -0.0973 -0.4924
 2528TIP3    H128999   1.262   1.841  15.048  0.7407  0.6009  0.0651
 2528TIP3    H229000   1.401   1.795  15.010  0.0817 -0.8308 -0.6411
 2529TIP3   OH229001   0.993   0.021  12.673  0.2483  0.5101 -0.7299
 2529TIP3    H129002   0.960  -0.032  12.746  1.6762  1.2062  0.4523
 2529TIP3    H229003   0.918   0.074  12.647 -0.4703 -0.2354 -0.2099
 2530TIP3   OH229004   2.112   3.190  14.773  0.1001  0.6325  0.0006
 2530TIP3    H129005   2.128   3.275  14.814 -0.4798 -0.1338  1.8600
 2530TIP3    H229006   2.039   3.205  14.714  0.2700  1.5206  0.0135
 2531TIP3   OH229007   5.708   0.604   2.311  0.2781 -0.2884 -0.3393
 2531TIP3    H129008   5.674   0.577   2.225  1.0276 -1.9226 -0.1454
 2531TIP3    H229009   5.666   0.544   2.373  0.2436  0.4655  0.3793
 2532TIP3   OH229010   5.471   0.610   1.535  0.4559  0.2208 -0.2779
 2532TIP3    H129011   5.399   0.601   1.472  0.5481 -0.3317 -0.3032
 2532TIP3    H229012   5.476   0.704   1.552  0.2879  0.3523 -0.9333
 2533TIP3   OH229013   6.163   2.275   2.925  0.2131  0.3931  0.3097
 2533TIP3    H129014   6.194   2.186   2.910  0.6808  0.6245 -0.1319
 2533TIP3    H229015   6.133   2.305   2.840 -1.0232  0.2534  0.6976
 2534TIP3   OH229016   5.258   4.161  12.537 -0.3327  0.0074 -0.0268
 2534TIP3    H129017   5.289   4.236  12.485 -0.2268  1.4884  2.1004
 2534TIP3    H229018   5.217   4.201  12.614 -1.0809 -2.1194  0.7150
 2535TIP3   OH229019   3.641   5.487  17.201 -0.0190 -0.4168 -0.0461
 2535TIP3    H129020   3.675   5.403  17.233  3.0074  0.8607  0.2352
 2535TIP3    H229021   3.617   5.535  17.281  2.3585  0.6417  0.0577
 2536TIP3   OH229022   6.740   4.265   4.442 -0.0485 -0.4070  0.4990
 2536TIP3    H129023   6.785   4.198   4.493  0.3306 -0.5207  0.0155
 2536TIP3    H229024   6.676   4.302   4.503  2.4707  1.5744  2.0484
 2537TIP3   OH229025   1.133   3.421   0.080  0.1944  0.1192  0.3007
 2537TIP3    H129026   1.061   3.483   0.064  0.6581  0.8186  0.9181
 2537TIP3    H229027   1.155   3.387  -0.007  0.9453  1.9445 -0.2426
 2538TIP3   OH229028   0.372   1.430   3.669 -0.3526 -0.4930  0.9732
 2538TIP3    H129029   0.451   1.377   3.659  0.4399  0.9179 -0.4933
 2538TIP3    H229030   0.405   1.519   3.687 -1.6206 -0.1033  1.4274
 2539TIP3   OH229031   0.854   3.344  13.899  0.6101  0.3630 -0.5119
 2539TIP3    H129032   0.893   3.313  13.981 -2.6880  0.7819  1.3131
 2539TIP3    H229033   0.796   3.272  13.872 -0.2139  1.2487 -1.1355
 2540TIP3   OH229034   3.780   6.665   5.375  0.3456  0.0185 -0.1636
 2540TIP3    H129035   3.758   6.748   5.416  3.0599  0.3858  0.6328
 2540TIP3    H229036   3.870   6.647   5.402  0.4968 -2.2041 -1.9323
 2541TIP3   OH229037   6.726   4.834  12.985 -0.3187  0.3120  0.0036
 2541TIP3    H129038   6.769   4.765  13.035 -0.4363 -0.0168 -0.3540
 2541TIP3    H229039   6.635   4.805  12.976 -0.0287 -0.1580 -1.3824
 2542TIP3   OH229040   6.734   0.813  15.262  0.3869  0.1142  0.5110
 2542TIP3    H129041   6.664   0.796  15.198  0.4494  1.2225  0.1345
 2542TIP3    H229042   6.717   0.902  15.293  2.5825  1.0370 -0.8291
 2543TIP3   OH229043   0.566   2.722  16.856 -0.0741  0.1596 -0.2963
 2543TIP3    H129044   0.527   2.764  16.780 -0.6909 -0.1637 -0.1537
 2543TIP3    H229045   0.657   2.754  16.856  0.3188 -0.9132 -1.9362
 2544TIP3   OH229046   5.949   4.210  12.083 -0.2026 -0.0055  0.3565
 2544TIP3    H129047   5.927   4.135  12.027  0.6494 -0.6693  0.8933
 2544TIP3    H229048   5.933   4.179  12.172 -0.4984  0.6810  0.5419
 2545TIP3   OH229049   0.132   0.576   3.450  0.0505  0.0620 -0.0414
 2545TIP3    H129050   0.133   0.486   3.416  1.6547 -0.1084  0.4075
 2545TIP3    H229051   0.156   0.567   3.542 -1.9316  0.7646  0.5804
 2546TIP3   OH229052   3.328   6.339  11.826 -0.3393 -0.2106 -0.4314
 2546TIP3    H129053   3.271   6.380  11.891  0.0331  2.3302 -1.6617
 2546TIP3    H229054   3.364   6.263  11.871 -3.3292 -0.9123  0.9470
 2547TIP3   OH229055   0.007   3.708   2.509  0.0558 -0.1537 -0.3624
 2547TIP3    H129056   0.090   3.696   2.556 -0.2449  1.3884  0.6108
 2547TIP3    H229057   0.027   3.774   2.443 -0.6101  0.9144  0.4832
 2548TIP3   OH229058   1.241   0.654  12.522 -0.4135  0.0228 -0.0745
 2548TIP3    H129059   1.285   0.652  12.608 -0.7859 -1.5230  0.1102
 2548TIP3    H229060   1.273   0.575  12.478 -0.2483  0.8020 -1.3548
 2549TIP3   OH229061   5.175   5.491   3.849  0.4227  0.5275  0.1484
 2549TIP3    H129062   5.222   5.574   3.834 -0.3117  0.8464 -0.3923
 2549TIP3    H229063   5.103   5.493   3.787 -1.8315  1.2205  2.6967
 2550TIP3   OH229064   4.271   4.985  15.931  0.1569 -0.5817  0.0186
 2550TIP3    H129065   4.195   4.970  15.875  0.8055  0.3149 -1.1213
 2550TIP3    H229066   4.239   4.971  16.020 -1.0487 -1.3571 -0.5303
 2551TIP3   OH229067   5.992   3.223  13.512 -0.3317 -0.1921  0.5262
 2551TIP3    H129068   5.911   3.178  13.488 -0.1410 -0.9036  1.1922
 2551TIP3    H229069   6.042   3.157  13.561 -0.4714  1.0343  2.3867
 2552TIP3   OH229070   3.038   1.557  14.934  0.3260  0.0216 -0.0135
 2552TIP3    H129071   3.111   1.522  14.985 -0.8118  0.1337  1.7074
 2552TIP3    H229072   3.039   1.651  14.950 -0.6508 -0.0718  0.6018
 2553TIP3   OH229073   6.773   0.265   3.563  0.2396 -0.4962 -0.3370
 2553TIP3    H129074   6.746   0.336   3.621 -1.0714  0.5973 -2.2563
 2553TIP3    H229075   6.864   0.285   3.541  0.2255 -0.0252  0.0146
 2554TIP3   OH229076   4.516   4.982   1.457 -0.4540  0.4698 -0.3442
 2554TIP3    H129077   4.536   5.022   1.372  2.1366 -2.3273 -1.1437
 2554TIP3    H229078   4.519   5.054   1.519  1.7832  1.8881 -2.0339
 2555TIP3   OH229079   4.994   4.415  14.208  0.2848 -0.3729 -0.2572
 2555TIP3    H129080   4.991   4.351  14.279 -0.1789  0.6561  0.6589
 2555TIP3    H229081   5.079   4.457  14.217 -0.3237  0.7094  0.5437
 2556TIP3   OH229082   4.730   0.715   4.839 -0.6627  0.6468 -0.0986
 2556TIP3    H129083   4.744   0.739   4.747  1.7625  1.6572  0.4985
 2556TIP3    H229084   4.741   0.797   4.887 -2.2778  0.1974  1.0926
 2557TIP3   OH229085   6.782   0.254   2.047 -0.2052  0.1971  0.3442
 2557TIP3    H129086   6.852   0.193   2.024  0.4062  0.5689  1.1800
 2557TIP3    H229087   6.803   0.281   2.136 -0.3974  1.7207 -0.0660
 2558TIP3   OH229088   5.887   2.122  16.651  0.1452  0.0490  0.2269
 2558TIP3    H129089   5.919   2.202  16.692 -0.1457  1.3344 -1.9971
 2558TIP3    H229090   5.861   2.066  16.725  4.6719  0.0983  2.0130
 2559TIP3   OH229091   4.623   0.583  11.817  0.6629  0.2210  0.5797
 2559TIP3    H129092   4.594   0.539  11.897  1.1768  0.8501  1.1316
 2559TIP3    H229093   4.709   0.544  11.798  1.2426  1.1472  1.2237
 2560TIP3   OH229094   0.236   6.030  13.885  0.3744  0.0000 -0.1609
 2560TIP3    H129095   0.229   5.939  13.854  0.6707  0.1772 -0.7747
 2560TIP3    H229096   0.214   6.082  13.808 -1.2493  0.4341  0.5947
 2561TIP3   OH229097   6.245   3.792  13.175  0.2103  0.3718 -0.2203
 2561TIP3    H129098   6.193   3.712  13.175  0.1152  0.4003  2.5618
 2561TIP3    H229099   6.334   3.762  13.154 -0.1907 -0.1683 -1.2070
 2562TIP3   OH229100   2.810   3.165  12.695 -0.4298 -0.3439  0.3269
 2562TIP3    H129101   2.887   3.107  12.693 -1.9008 -2.3354 -0.4016
 2562TIP3    H229102   2.808   3.200  12.784  1.5555  0.0664  0.2323
 2563TIP3   OH229103   5.039   3.952  11.015 -0.4113 -0.1944  0.1267
 2563TIP3    H129104   5.076   4.000  10.941 -0.1545 -1.7337 -0.7697
 2563TIP3    H229105   5.044   3.860  10.989 -1.4168 -0.6789  1.5681
 2564TIP3   OH229106   2.100   0.632  14.871 -0.0659 -0.1351  0.5296
 2564TIP3    H129107   2.086   0.717  14.913 -0.3567  0.3727 -0.5704
 2564TIP3    H229108   2.012   0.604  14.845  0.2590  0.2870 -1.1153
 2565TIP3   OH229109   1.913   5.560  15.470  0.0974  0.4522 -0.3725
 2565TIP3    H129110   1.914   5.464  15.477  1.5651  0.5830  1.4708
 2565TIP3    H229111   1.956   5.578  15.387 -0.4757 -0.4857 -0.8898
 2566TIP3   OH229112   0.401   2.727  15.405 -0.2607  0.3742  0.4886
 2566TIP3    H129113   0.484   2.734  15.452 -0.2309  3.6326  0.1077
 2566TIP3    H229114   0.400   2.638  15.371  0.8801 -1.2643  4.4669
 2567TIP3   OH229115   1.724   5.039  16.700  0.1252 -0.6509 -0.4723
 2567TIP3    H129116   1.658   4.997  16.755  0.2784  0.9002  0.8880
 2567TIP3    H229117   1.685   5.037  16.612 -0.2282 -2.8743 -0.3160
 2568TIP3   OH229118   5.089   0.060  14.287 -0.1573 -0.0970 -0.0455
 2568TIP3    H129119   5.049   0.134  14.240  0.0689  0.7525  1.0671
 2568TIP3    H229120   5.181   0.084  14.295  0.1115 -0.9578 -0.5331
 2569TIP3   OH229121   0.392   3.008   6.078  0.1591  0.8954 -0.4750
 2569TIP3    H129122   0.380   3.082   6.017 -3.1705  0.7498 -0.1197
 2569TIP3    H229123   0.330   3.026   6.148  1.7175 -0.5797  1.3165
 2570TIP3   OH229124   0.899   4.317   2.395  0.4604  0.4778  0.2182
 2570TIP3    H129125   0.823   4.333   2.339 -0.8266 -1.2417  1.4073
 2570TIP3    H229126   0.971   4.303   2.334  0.3144  4.1486 -0.9251
 2571TIP3   OH229127   1.996   6.173   3.062 -0.2548  0.2072  0.3463
 2571TIP3    H129128   1.910   6.133   3.073 -0.9645  2.2381  2.4110
 2571TIP3    H229129   2.054   6.121   3.118  0.0652 -1.6211 -1.6101
 2572TIP3   OH229130   5.855   2.708   2.419  0.0037 -0.3823  0.2794
 2572TIP3    H129131   5.911   2.740   2.349 -1.3666  0.3826 -0.5058
 2572TIP3    H229132   5.842   2.783   2.476 -0.0521 -0.6007  0.5537
 2573TIP3   OH229133   6.086   1.684   4.088 -0.3007  0.5324 -0.0302
 2573TIP3    H129134   5.996   1.713   4.075  0.5230  2.6324 -1.1765
 2573TIP3    H229135   6.131   1.760   4.124  1.0264 -0.5091  0.5544
 2574TIP3   OH229136   4.660   2.625  13.237  0.8459 -0.5174  0.1212
 2574TIP3    H129137   4.638   2.590  13.324 -0.4402 -0.7978 -0.3046
 2574TIP3    H229138   4.637   2.718  13.242  2.0832 -0.2127  0.5069
 2575TIP3   OH229139   4.758   4.050  16.072 -0.1297  0.4309 -0.0216
 2575TIP3    H129140   4.668   4.047  16.041 -0.1032  1.1561 -0.1794
 2575TIP3    H229141   4.811   4.049  15.992 -0.0253  1.0005  0.0400
 2576TIP3   OH229142   1.579   6.599  11.297 -0.3737 -0.0162  0.3306
 2576TIP3    H129143   1.538   6.584  11.382 -1.9036  2.3160  0.0524
 2576TIP3    H229144   1.565   6.518  11.249 -0.9281 -0.7612  1.7192
 2577TIP3   OH229145   4.482   1.456  14.051 -0.5147  0.3482 -0.2809
 2577TIP3    H129146   4.551   1.516  14.021  0.5568 -0.8348 -0.2427
 2577TIP3    H229147   4.494   1.378  13.997 -0.6772 -0.5538  0.9710
 2578TIP3   OH229148   3.489   2.709  12.460 -0.3954  0.1299  0.3481
 2578TIP3    H129149   3.487   2.614  12.445 -1.4273  0.2793 -0.5245
 2578TIP3    H229150   3.477   2.747  12.374 -0.6615  1.0472  0.7874
 2579TIP3   OH229151   5.133   1.220  14.531 -0.5149 -0.1881  0.1701
 2579TIP3    H129152   5.101   1.242  14.618 -0.4697 -1.0449  0.4088
 2579TIP3    H229153   5.165   1.130  14.539  1.7415  0.5569 -0.1207
 2580TIP3   OH229154   2.656   6.459   4.778 -0.0707 -0.2784  0.1822
 2580TIP3    H129155   2.621   6.534   4.728  0.7086 -0.3614 -0.5027
 2580TIP3    H229156   2.688   6.497   4.859 -0.3906  0.0244  0.1656
 2581TIP3   OH229157   5.849   1.469   4.338 -1.0136 -0.1086  0.3602
 2581TIP3    H129158   5.797   1.391   4.318  0.6720 -0.8075 -1.4239
 2581TIP3    H229159   5.873   1.504   4.253  0.8352  0.5926  1.1449
 2582TIP3   OH229160   4.438   4.786   2.091 -0.5058  0.0178 -0.6908
 2582TIP3    H129161   4.356   4.767   2.045 -0.7998 -0.6680  0.0934
 2582TIP3    H229162   4.419   4.865   2.142  0.3850  1.8663 -3.1254
 2583TIP3   OH229163   0.003   6.076  13.204  0.3587 -0.1519  0.3158
 2583TIP3    H129164  -0.092   6.092  13.210  0.0750 -0.9891 -1.7227
 2583TIP3    H229165   0.042   6.158  13.234 -1.0046  0.1750  1.2587
 2584TIP3   OH229166   0.797   5.621  13.811  0.1007  0.0015 -0.3117
 2584TIP3    H129167   0.787   5.660  13.897  0.0772 -2.4038  0.8148
 2584TIP3    H229168   0.868   5.670  13.770  1.2400  0.0778  1.7196
 2585TIP3   OH229169   4.565   1.637  13.398 -0.8732 -0.3294  0.6280
 2585TIP3    H129170   4.478   1.624  13.361 -0.7904  0.5930  0.0847
 2585TIP3    H229171   4.556   1.613  13.490 -1.3722 -1.5095  0.2781
 2586TIP3   OH229172   3.932   4.060  15.206  0.0125  0.0343  0.2614
 2586TIP3    H129173   3.922   4.092  15.116 -1.1267 -2.0110 -0.3643
 2586TIP3    H229174   4.022   4.082  15.230 -0.1187  1.9161 -0.8282
 2587TIP3   OH229175   3.642   0.337   1.004 -0.0251  0.2413  0.4709
 2587TIP3    H129176   3.700   0.376   0.939 -0.9346  1.1820  0.2032
 2587TIP3    H229177   3.662   0.384   1.085  0.0628  0.0977  0.5326
 2588TIP3   OH229178   1.360   0.635  11.073 -0.3010 -0.2514 -0.1401
 2588TIP3    H129179   1.374   0.544  11.047 -0.0414 -0.3618  0.3687
 2588TIP3    H229180   1.378   0.686  10.994 -0.5303 -0.6508 -0.4499
 2589TIP3   OH229181   5.151   4.426   5.346 -0.0100  0.0243  0.5077
 2589TIP3    H129182   5.234   4.453   5.386 -0.4272  1.7023  0.2476
 2589TIP3    H229183   5.127   4.347   5.394  0.8798  0.4851  1.7415
 2590TIP3   OH229184   1.985   1.494   1.275 -0.0790 -0.0628  0.1655
 2590TIP3    H129185   1.913   1.557   1.271 -1.0185 -1.1660 -0.3271
 2590TIP3    H229186   1.955   1.419   1.224  1.5744 -0.3795 -0.3511
 2591TIP3   OH229187   2.072   2.265   2.914 -0.2083  0.7944  0.1156
 2591TIP3    H129188   2.027   2.331   2.967 -0.5764  1.2062 -0.7155
 2591TIP3    H229189   2.142   2.232   2.971 -1.5749  0.1211  1.4449
 2592TIP3   OH229190   3.133   0.169   3.511  0.3838  0.5163 -0.2376
 2592TIP3    H129191   3.157   0.079   3.489  0.5542  0.7456 -1.0126
 2592TIP3    H229192   3.085   0.201   3.434 -2.0008  0.2257  1.0767
 2593TIP3   OH229193   5.767   1.851   1.395 -0.4313  0.3430  0.4901
 2593TIP3    H129194   5.708   1.848   1.320  1.6050 -0.3940 -1.1183
 2593TIP3    H229195   5.781   1.759   1.418  3.5626  0.2445 -1.9701
 2594TIP3   OH229196   5.686   3.288   5.564  0.0973  0.0854  0.2471
 2594TIP3    H129197   5.636   3.207   5.554  0.3307 -0.0573  0.2478
 2594TIP3    H229198   5.726   3.280   5.651 -0.3100  0.4376  0.4727
 2595TIP3   OH229199   5.649   2.606   3.309 -0.0928 -0.2207  0.6395
 2595TIP3    H129200   5.597   2.527   3.298  0.1555 -0.1779 -1.0555
 2595TIP3    H229201   5.589   2.678   3.287  0.1534 -0.0485  0.5252
 2596TIP3   OH229202   6.495   1.269  13.807 -0.7231 -0.3007 -0.6113
 2596TIP3    H129203   6.414   1.284  13.758 -0.5565  0.4892 -0.6546
 2596TIP3    H229204   6.531   1.357  13.821 -0.9246 -0.4741  1.2039
 2597TIP3   OH229205   2.693   5.220   6.266  0.1506  0.1323  0.5321
 2597TIP3    H129206   2.711   5.255   6.353  0.4021 -1.3397  1.0870
 2597TIP3    H229207   2.705   5.294   6.207  1.6899  0.7219  1.5606
 2598TIP3   OH229208   5.666   4.602  12.509  0.2888 -0.2920  0.0171
 2598TIP3    H129209   5.616   4.676  12.541  1.3055 -0.4597  2.0469
 2598TIP3    H229210   5.666   4.613  12.413 -1.8197  0.8253  0.1148
 2599TIP3   OH229211   4.953   0.517  13.793 -0.5966 -0.3268  0.2326
 2599TIP3    H129212   5.041   0.553  13.785 -1.3548  1.7025  0.8050
 2599TIP3    H229213   4.959   0.431  13.751  1.5974 -0.1377  0.0913
 2600TIP3   OH229214   3.676   3.595   5.274 -0.6570  0.1448 -0.3221
 2600TIP3    H129215   3.719   3.521   5.230 -1.5118 -1.2805  1.1478
 2600TIP3    H229216   3.731   3.670   5.253 -0.2402 -0.7471 -2.5740
 2601TIP3   OH229217   3.972   4.725  17.121 -0.0485 -0.5348 -0.3286
 2601TIP3    H129218   4.057   4.727  17.078 -0.7872 -0.0067 -1.8060
 2601TIP3    H229219   3.950   4.632  17.126  1.3560 -0.8061  1.6328
 2602TIP3   OH229220   4.106   2.045  11.326 -0.3691  0.0936  0.4917
 2602TIP3    H129221   4.190   2.071  11.362 -0.5398  0.6437  0.5049
 2602TIP3    H229222   4.107   1.950  11.326  0.0782  0.1030  0.8949
 2603TIP3   OH229223   0.565   3.552  15.269  0.1547 -0.1593  0.1463
 2603TIP3    H129224   0.475   3.524  15.253  0.0525 -0.2489  0.8463
 2603TIP3    H229225   0.595   3.495  15.340  0.7500 -0.1053 -0.0638
 2604TIP3   OH229226   2.113   3.555   2.602  0.2749 -0.2597 -0.9529
 2604TIP3    H129227   2.152   3.558   2.514  0.9638  1.2128 -0.6120
 2604TIP3    H229228   2.153   3.629   2.648  0.3933 -1.4075  0.8052
 2605TIP3   OH229229   1.862   5.266   6.149 -0.3423 -0.1839  0.3680
 2605TIP3    H129230   1.883   5.273   6.055  1.4404  0.8646  0.8202
 2605TIP3    H229231   1.907   5.340   6.189  2.3179 -2.8401  2.6184
 2606TIP3   OH229232   6.054   2.135  11.682 -0.3016 -0.4777  0.2091
 2606TIP3    H129233   6.021   2.145  11.771  0.6951 -1.4199  0.7013
 2606TIP3    H229234   6.088   2.222  11.659 -0.1975 -0.3342  0.8950
 2607TIP3   OH229235   1.038   1.073   3.122  0.2630  0.1764 -0.2352
 2607TIP3    H129236   1.014   1.003   3.184  1.7067 -0.7970 -0.7465
 2607TIP3    H229237   0.966   1.075   3.059  0.7237 -1.6240 -0.8491
 2608TIP3   OH229238   0.428   4.989  12.050 -0.4386  0.1328  0.1056
 2608TIP3    H129239   0.376   5.067  12.072 -1.9622 -1.0138  0.6847
 2608TIP3    H229240   0.404   4.925  12.117 -0.8248 -1.5261 -1.5863
 2609TIP3   OH229241   0.806   6.037   2.338 -0.2095  0.0637 -0.5648
 2609TIP3    H129242   0.849   6.017   2.422 -1.1901 -0.7356 -0.2542
 2609TIP3    H229243   0.858   6.109   2.302  0.1060  0.5536  0.8223
 2610TIP3   OH229244   2.675   1.040  17.208 -0.1875  0.7068 -0.3467
 2610TIP3    H129245   2.628   0.973  17.160  0.2200  0.6157 -0.6170
 2610TIP3    H229246   2.608   1.081  17.264 -0.4674  0.1955 -0.3059
 2611TIP3   OH229247   5.108   5.344   0.079 -0.2204 -0.1833 -0.0328
 2611TIP3    H129248   5.108   5.355   0.174  0.7878  1.8559 -0.2350
 2611TIP3    H229249   5.113   5.433   0.045 -1.1118 -0.8703 -2.0126
 2612TIP3   OH229250   0.485   3.121  17.209  0.1428 -0.0722  0.0104
 2612TIP3    H129251   0.498   3.078  17.124 -0.9569 -0.7842  0.1866
 2612TIP3    H229252   0.506   3.054  17.274  2.2785  0.8773  0.3219
 2613TIP3   OH229253   3.339   1.330   1.480  0.2989  0.1818 -0.1477
 2613TIP3    H129254   3.410   1.377   1.523  1.1735 -1.1343 -0.1262
 2613TIP3    H229255   3.375   1.304   1.396  0.4708 -2.0642  0.5884
 2614TIP3   OH229256   5.799   5.580  14.368  0.3149 -0.3459 -0.0767
 2614TIP3    H129257   5.803   5.632  14.288 -0.7786 -2.6633 -1.6717
 2614TIP3    H229258   5.881   5.600  14.414 -0.1482  2.8506 -0.5616
 2615TIP3   OH229259   0.074   6.744   3.717 -0.3755  0.0652  0.0325
 2615TIP3    H129260   0.141   6.736   3.649 -2.5948  2.9704 -2.6895
 2615TIP3    H229261  -0.003   6.777   3.670 -2.8142 -0.3436  3.5522
 2616TIP3   OH229262   4.319   0.911  13.340 -0.5200 -0.2458  0.2474
 2616TIP3    H129263   4.307   0.863  13.422 -2.0298  0.7472  0.6190
 2616TIP3    H229264   4.235   0.905  13.295 -0.5475  1.4941  0.0145
 2617TIP3   OH229265   5.913   5.847  11.447 -0.5954 -0.1844 -0.5674
 2617TIP3    H129266   5.881   5.759  11.465 -1.9141  0.1764 -1.1291
 2617TIP3    H229267   5.944   5.843  11.357  2.9201 -1.0838  0.5803
 2618TIP3   OH229268   5.488   5.614   5.264 -0.2179 -0.2935 -0.1289
 2618TIP3    H129269   5.583   5.621   5.272 -0.2394 -1.3023  1.1464
 2618TIP3    H229270   5.461   5.696   5.223  1.2681 -0.2680 -1.0959
 2619TIP3   OH229271   2.159   2.616   3.418  0.0206  0.5221 -0.3492
 2619TIP3    H129272   2.077   2.567   3.430  1.1541 -1.2380  0.3239
 2619TIP3    H229273   2.193   2.586   3.334  0.1874  0.9573 -0.4410
 2620TIP3   OH229274   4.742   3.414   3.020  0.2997  0.0888  0.3828
 2620TIP3    H129275   4.684   3.477   3.064 -0.6651 -1.7239  1.8077
 2620TIP3    H229276   4.830   3.447   3.036  0.0065 -0.7180  4.1471
 2621TIP3   OH229277   0.522   0.083  12.471 -0.7126  0.2642  0.1625
 2621TIP3    H129278   0.591   0.017  12.464 -0.2802  0.7190  0.1305
 2621TIP3    H229279   0.556   0.158  12.422 -0.8469  0.8107  0.9046
 2622TIP3   OH229280   4.802   6.018   0.149  0.2413 -0.3352  0.0880
 2622TIP3    H129281   4.713   5.983   0.148  0.4424 -0.9976  2.0609
 2622TIP3    H229282   4.821   6.039   0.058 -1.6208 -0.9786 -0.4733
 2623TIP3   OH229283   1.826   2.119   5.241 -0.0533  0.0009 -0.9998
 2623TIP3    H129284   1.744   2.074   5.260  0.4398 -0.9992 -1.1900
 2623TIP3    H229285   1.845   2.170   5.319 -0.5809 -0.1852 -0.7502
 2624TIP3   OH229286   1.890   1.538   4.219  0.4205  0.8623 -0.4544
 2624TIP3    H129287   1.830   1.559   4.147  0.2546 -0.0296 -0.5816
 2624TIP3    H229288   1.903   1.621   4.265  1.0616  1.5773 -1.9082
 2625TIP3   OH229289   3.336   0.019   3.942 -0.6395 -0.3444  0.3814
 2625TIP3    H129290   3.357  -0.060   3.893 -0.9254  0.1092 -0.4939
 2625TIP3    H229291   3.347   0.090   3.878  0.9009  0.4580  1.4966
 2626TIP3   OH229292   2.694   2.690   6.537  0.4178  0.2596 -0.6302
 2626TIP3    H129293   2.755   2.683   6.464 -0.5911 -0.3035 -1.4386
 2626TIP3    H229294   2.720   2.620   6.597  0.8095  0.2696 -0.7910
 2627TIP3   OH229295   5.628   4.162  13.110  0.1060 -0.0466 -0.5055
 2627TIP3    H129296   5.702   4.115  13.072 -0.1171 -0.0223 -0.9644
 2627TIP3    H229297   5.564   4.094  13.130  0.0018  0.0033 -0.6741
 2628TIP3   OH229298   6.092   4.348   6.331 -0.0875 -0.0660  0.2424
 2628TIP3    H129299   6.003   4.338   6.296 -1.0110 -0.0602  2.4875
 2628TIP3    H229300   6.131   4.261   6.322 -0.5300 -0.2164 -0.2323
 2629TIP3   OH229301   4.989   3.324  16.758 -0.7165 -0.6206 -0.2883
 2629TIP3    H129302   5.070   3.371  16.778 -0.9738  0.0081 -0.7087
 2629TIP3    H229303   5.017   3.234  16.738 -0.1400 -0.4386 -0.2996
 2630TIP3   OH229304   3.269   2.140  12.495  0.5908 -0.4150 -0.5347
 2630TIP3    H129305   3.357   2.126  12.461  0.3864 -0.3200 -1.1147
 2630TIP3    H229306   3.278   2.132  12.590  1.2206 -0.4053 -0.5924
 2631TIP3   OH229307   3.318   5.233   5.633 -0.1183  0.0253 -0.0824
 2631TIP3    H129308   3.228   5.204   5.616 -0.1961  0.2894 -0.1261
 2631TIP3    H229309   3.335   5.205   5.724  0.4894 -1.8666 -0.7401
 2632TIP3   OH229310   6.408   3.481   4.221 -0.1549  0.2810 -0.2184
 2632TIP3    H129311   6.317   3.509   4.236  0.6858  2.3870  1.0646
 2632TIP3    H229312   6.408   3.388   4.246 -2.4190 -0.3396 -2.2618
 2633TIP3   OH229313   1.969   0.866  14.669 -0.9622 -0.0322  0.7636
 2633TIP3    H129314   2.060   0.846  14.649 -1.3714 -0.2539 -0.9278
 2633TIP3    H229315   1.963   0.859  14.765  0.8012  0.0668  0.8887
 2634TIP3   OH229316   6.631   1.978  14.991  0.0932  0.1525  0.1191
 2634TIP3    H129317   6.625   1.898  14.939  2.4209  0.5809 -0.8685
 2634TIP3    H229318   6.541   1.992  15.022 -1.0881 -0.9303 -2.5494
 2635TIP3   OH229319   2.705   6.487   0.065 -0.1296  0.0923  0.0686
 2635TIP3    H129320   2.795   6.455   0.067  0.3318  1.2405 -1.2119
 2635TIP3    H229321   2.711   6.573   0.024 -1.8744 -0.0176 -0.4747
 2636TIP3   OH229322   6.158   4.862   5.992 -0.4397  0.0194 -0.5023
 2636TIP3    H129323   6.179   4.867   5.899 -0.0380  2.6318 -0.3096
 2636TIP3    H229324   6.242   4.867   6.037 -0.7771  1.1214  0.0358
 2637TIP3   OH229325   6.370   1.998  15.098 -0.0490  0.4566 -0.3394
 2637TIP3    H129326   6.339   2.056  15.168 -0.7575  0.1331 -0.3712
 2637TIP3    H229327   6.353   1.910  15.132 -0.7029  0.3046 -1.0537
 2638TIP3   OH229328   1.190   1.045   1.050  0.5264 -0.3105 -0.6075
 2638TIP3    H129329   1.132   0.971   1.029  0.6562 -0.1111 -1.6881
 2638TIP3    H229330   1.203   1.039   1.145 -1.3351 -0.3164 -0.3241
 2639TIP3   OH229331   2.047   4.182   3.479  0.4274 -0.5561 -0.1877
 2639TIP3    H129332   2.101   4.229   3.415  0.4728 -1.1751 -0.6050
 2639TIP3    H229333   1.998   4.119   3.427 -0.6871 -0.0153  0.2000
 2640TIP3   OH229334   6.070   1.887  15.951 -0.5535 -0.0130 -0.0613
 2640TIP3    H129335   6.122   1.818  15.990  0.0190 -0.3478 -1.3922
 2640TIP3    H229336   6.128   1.928  15.887 -1.6212  0.2192 -0.8977
 2641TIP3   OH229337   5.799   0.793   0.250 -0.2760  0.5701 -0.2924
 2641TIP3    H129338   5.884   0.785   0.294 -0.3260  2.5549  0.1874
 2641TIP3    H229339   5.821   0.818   0.160 -0.3664  1.3317 -0.1013
 2642TIP3   OH229340   2.927   5.111  16.265  0.2672  0.3241 -0.3973
 2642TIP3    H129341   2.897   5.170  16.196  0.4151 -1.7748 -2.3043
 2642TIP3    H229342   3.003   5.155  16.303 -0.3048  1.8768 -1.0203
 2643TIP3   OH229343   3.487   4.821   6.718 -0.1846  0.0282 -0.4270
 2643TIP3    H129344   3.549   4.806   6.790 -1.1037  0.4979  0.4832
 2643TIP3    H229345   3.506   4.910   6.688  0.4613 -0.3100 -1.0326
 2644TIP3   OH229346   5.889   4.927   5.383 -0.0502  0.1430  0.3251
 2644TIP3    H129347   5.850   4.964   5.304 -0.7545 -0.6849  0.2774
 2644TIP3    H229348   5.839   4.846   5.399  0.4065  0.0525  1.3329
 2645TIP3   OH229349   3.524   0.399  15.508  0.3101 -0.3340  0.1001
 2645TIP3    H129350   3.475   0.481  15.501  1.7627  0.6187  0.7784
 2645TIP3    H229351   3.474   0.337  15.456 -2.4427  0.1878  2.0398
 2646TIP3   OH229352   6.523   0.108   3.155 -0.1710 -0.0814 -0.1988
 2646TIP3    H129353   6.565   0.191   3.178 -1.1041  0.4359 -0.3670
 2646TIP3    H229354   6.547   0.049   3.227  2.0072 -0.1981 -0.9676
 2647TIP3   OH229355   1.497   2.606   5.404  0.0783  0.1605 -0.4255
 2647TIP3    H129356   1.566   2.661   5.366  0.2803  0.0136 -0.2777
 2647TIP3    H229357   1.514   2.519   5.368 -0.4971  0.2860 -0.9889
 2648TIP3   OH229358   2.935   0.691  11.832  0.1570  0.2693  0.4390
 2648TIP3    H129359   2.941   0.638  11.912  0.8166  1.0917  0.9421
 2648TIP3    H229360   2.923   0.780  11.863  1.9951  0.8080 -0.3565
 2649TIP3   OH229361   3.234   3.410  13.274  0.0557 -0.2435 -0.5234
 2649TIP3    H129362   3.183   3.379  13.348  2.5069  0.7025  1.6501
 2649TIP3    H229363   3.170   3.448  13.214 -2.0297 -1.5708  0.7990
 2650TIP3   OH229364   5.176   2.157   1.400  0.3605 -0.2594 -0.4512
 2650TIP3    H129365   5.249   2.219   1.405  0.7426 -0.7541  0.1147
 2650TIP3    H229366   5.204   2.091   1.336 -0.6344  0.9082 -2.1489
 2651TIP3   OH229367   5.265   0.535   2.387 -0.0242  0.6375  0.1816
 2651TIP3    H129368   5.180   0.514   2.425 -0.2466  0.1201 -0.5720
 2651TIP3    H229369   5.264   0.630   2.376  0.4920  0.9243  2.4771
 2652TIP3   OH229370   3.274   5.269   1.183 -0.2548  0.1070 -0.6930
 2652TIP3    H129371   3.296   5.176   1.193  1.7761  0.5711 -0.4628
 2652TIP3    H229372   3.203   5.271   1.119 -1.0000 -1.6643  0.0438
 2653TIP3   OH229373   5.325   6.381  13.139 -0.4093  0.0606  0.3099
 2653TIP3    H129374   5.366   6.422  13.062 -0.9967  1.0073  0.4921
 2653TIP3    H229375   5.312   6.290  13.114 -0.2012  0.2671 -0.5582
 2654TIP3   OH229376   3.123   6.022   1.027 -0.0296 -0.1683 -0.4960
 2654TIP3    H129377   3.180   6.072   1.085 -0.7977 -0.7246  0.7722
 2654TIP3    H229378   3.041   6.071   1.026 -0.6363 -1.1185  0.3964
 2655TIP3   OH229379   6.184   1.988  13.715 -0.0044  0.1051  0.3963
 2655TIP3    H129380   6.118   2.039  13.667  0.2615  1.2065  1.1744
 2655TIP3    H229381   6.222   1.930  13.649 -0.3566  0.8898 -0.5120
 2656TIP3   OH229382   0.372   1.669  11.607  0.0361  0.2913  0.3186
 2656TIP3    H129383   0.373   1.673  11.702 -0.7836 -0.6038  0.3694
 2656TIP3    H229384   0.279   1.671  11.584  0.1443 -1.6960 -0.3589
 2657TIP3   OH229385   5.438   3.124   4.801 -0.2428 -0.3895  0.3004
 2657TIP3    H129386   5.375   3.072   4.851 -1.4119 -0.0228 -0.7614
 2657TIP3    H229387   5.450   3.076   4.719 -0.5431  0.4540 -0.2566
 2658TIP3   OH229388   5.299   3.623  15.192  0.0261 -0.4291 -1.2160
 2658TIP3    H129389   5.204   3.634  15.185  0.0213 -0.6545 -1.5062
 2658TIP3    H229390   5.333   3.645  15.105  0.4515  1.7290 -0.5329
 2659TIP3   OH229391   0.219   4.496   4.610  0.3424 -0.0233 -0.2869
 2659TIP3    H129392   0.290   4.498   4.674 -1.1430  0.3274  1.3911
 2659TIP3    H229393   0.151   4.551   4.648 -1.4565 -1.6380 -1.0958
 2660TIP3   OH229394   5.533   0.083  16.785 -0.0678 -0.4626 -0.4639
 2660TIP3    H129395   5.489   0.168  16.785  0.5661 -0.1010 -2.6655
 2660TIP3    H229396   5.468   0.022  16.820 -1.2720  0.5598 -0.8854
 2661TIP3   OH229397   4.371   3.978   2.264  0.1817 -0.0910 -0.3473
 2661TIP3    H129398   4.383   3.945   2.354  0.6759  1.3031  0.1086
 2661TIP3    H229399   4.289   4.026   2.266 -0.5760 -1.3185 -1.0371
 2662TIP3   OH229400   2.332   4.365   4.908 -0.8282 -0.5840  0.8936
 2662TIP3    H129401   2.255   4.314   4.881 -0.8884 -0.9030  1.6302
 2662TIP3    H229402   2.303   4.456   4.902 -0.5407 -0.5970 -0.9613
 2663TIP3   OH229403   3.080   1.412   5.009 -0.1405 -0.0641  0.6330
 2663TIP3    H129404   3.077   1.355   4.932  1.4595 -1.6673  1.7179
 2663TIP3    H229405   3.054   1.498   4.976 -1.2721 -1.1261 -1.3178
 2664TIP3   OH229406   1.298   1.829   2.301 -0.3062  0.9517 -0.5841
 2664TIP3    H129407   1.216   1.792   2.270  0.4195 -1.7677  0.6164
 2664TIP3    H229408   1.272   1.908   2.350 -2.4127 -0.9039  1.3973
 2665TIP3   OH229409   1.345   2.281   2.535 -0.6524  0.2953 -0.6225
 2665TIP3    H129410   1.325   2.367   2.499 -1.8930  0.3240  0.0840
 2665TIP3    H229411   1.364   2.298   2.627 -0.8008 -0.1656 -0.5046
 2666TIP3   OH229412   5.455   3.894  12.708  0.5722  0.0513 -0.5097
 2666TIP3    H129413   5.541   3.907  12.747  0.4724 -1.8275  0.3636
 2666TIP3    H229414   5.472   3.888  12.614  1.3351  0.1399 -0.3807
 2667TIP3   OH229415   4.955   6.261   1.825  0.4745 -0.0500 -0.1749
 2667TIP3    H129416   4.967   6.200   1.751 -1.5742 -0.1047 -0.4920
 2667TIP3    H229417   4.962   6.206   1.903  0.1035 -0.4391 -0.4143
 2668TIP3   OH229418   4.630   5.048   4.047  0.6490 -0.0568  0.2033
 2668TIP3    H129419   4.539   5.034   4.070  0.3152  0.0661 -1.0103
 2668TIP3    H229420   4.627   5.093   3.963  1.8211  0.3620  0.3722
 2669TIP3   OH229421   0.834   6.281   3.580  0.2268  0.3105 -0.3226
 2669TIP3    H129422   0.836   6.294   3.675  0.4556  1.0711 -0.4292
 2669TIP3    H229423   0.806   6.190   3.569  1.0610 -0.0503  0.4925
 2670TIP3   OH229424   4.230   3.188  11.342 -0.2997 -0.2180  0.3760
 2670TIP3    H129425   4.264   3.247  11.410  0.8901  1.3548 -1.5255
 2670TIP3    H229426   4.299   3.124  11.328  0.8105  1.3548 -1.5595
 2671TIP3   OH229427   3.266   5.114   0.350  0.0639  0.1753  0.3337
 2671TIP3    H129428   3.252   5.084   0.261  0.1002  1.8865 -0.2758
 2671TIP3    H229429   3.361   5.117   0.360  0.0637  0.4689  0.2549
 2672TIP3   OH229430   1.901   6.544   1.528  0.8638  0.0374  0.1076
 2672TIP3    H129431   1.977   6.587   1.568  0.7842  0.3145 -0.0341
 2672TIP3    H229432   1.872   6.606   1.461  1.2771 -0.6221 -0.6861
 2673TIP3   OH229433   4.750   3.913  15.049 -0.6476  0.0836  0.0933
 2673TIP3    H129434   4.810   3.847  15.085  0.3902  0.8253 -0.2662
 2673TIP3    H229435   4.701   3.945  15.125  1.3789  1.4723  0.8457
 2674TIP3   OH229436   5.969   0.677   3.484  0.5512 -0.3557 -0.1496
 2674TIP3    H129437   5.895   0.658   3.541  0.8361  0.8325  0.6352
 2674TIP3    H229438   5.959   0.616   3.411 -0.3024 -1.2968  0.7303
 2675TIP3   OH229439   2.029   3.287  11.115  0.2534 -0.0911  0.2983
 2675TIP3    H129440   1.937   3.269  11.136 -0.4437  2.8762  0.0249
 2675TIP3    H229441   2.078   3.250  11.188 -1.1292 -1.9710  0.2963
 2676TIP3   OH229442   3.917   3.799  15.444 -0.2859  0.1311 -0.2865
 2676TIP3    H129443   3.946   3.774  15.532  0.3896 -2.1244 -1.1269
 2676TIP3    H229444   3.994   3.786  15.389 -0.8720  0.9801 -1.3248
 2677TIP3   OH229445   5.738   3.793   2.572 -0.2660 -0.2136 -0.0484
 2677TIP3    H129446   5.689   3.726   2.525  0.4152 -1.4560  0.9784
 2677TIP3    H229447   5.789   3.838   2.504 -2.3267  0.6995 -1.0394
 2678TIP3   OH229448   3.837   6.478  13.133  0.1340 -0.0278 -0.3090
 2678TIP3    H129449   3.875   6.415  13.072  1.1518  1.4508 -1.2354
 2678TIP3    H229450   3.812   6.552  13.078 -1.6361  0.1378  0.6756
 2679TIP3   OH229451   2.521   1.935   1.679 -0.0575 -0.4959 -0.3628
 2679TIP3    H129452   2.548   1.918   1.769 -0.0962  1.1751 -0.0352
 2679TIP3    H229453   2.598   1.972   1.637  0.0509 -1.5328 -1.1120
 2680TIP3   OH229454   3.905   1.164   0.489  0.2263 -0.1844 -0.2854
 2680TIP3    H129455   3.909   1.223   0.414 -1.0058 -2.2032 -2.0023
 2680TIP3    H229456   3.931   1.079   0.454  0.6894 -0.9376  1.8402
 2681TIP3   OH229457   3.216   3.566  14.887 -0.0197 -0.4004  0.0228
 2681TIP3    H129458   3.277   3.537  14.820  0.4709  1.6677 -0.4661
 2681TIP3    H229459   3.145   3.503  14.885  0.6886 -1.1490 -1.4578
 2682TIP3   OH229460   2.061   2.947  17.078 -0.0750  0.5901 -0.0384
 2682TIP3    H129461   2.001   2.892  17.129  0.8791 -0.8163 -0.3995
 2682TIP3    H229462   2.004   3.004  17.027 -1.1264 -0.9711 -0.6482
 2683TIP3   OH229463   6.106   3.395  11.930 -0.1092  0.3975  0.5242
 2683TIP3    H129464   6.016   3.414  11.955  0.0285  2.6086 -0.5573
 2683TIP3    H229465   6.099   3.357  11.842  0.0013  0.2640  0.5729
 2684TIP3   OH229466   3.171   6.510  16.964 -0.2708  0.0945 -0.1662
 2684TIP3    H129467   3.097   6.452  16.947 -1.7075  1.7516  0.2465
 2684TIP3    H229468   3.140   6.597  16.940  2.0126  0.6510 -1.2659
 2685TIP3   OH229469   6.072   4.305  17.185 -0.4095  0.4048 -0.1219
 2685TIP3    H129470   6.164   4.296  17.212 -0.6563  1.2327  1.0033
 2685TIP3    H229471   6.076   4.320  17.090  0.7043  2.1962  0.1996
 2686TIP3   OH229472   1.082   4.195   1.441 -0.2802 -0.1128  0.3733
 2686TIP3    H129473   1.039   4.167   1.522 -0.7344  0.7656  0.4376
 2686TIP3    H229474   1.135   4.270   1.468  0.5297 -0.5802  0.0991
 2687TIP3   OH229475   6.436   6.343  16.960 -0.0695  0.5668 -0.0543
 2687TIP3    H129476   6.383   6.340  16.881  2.4187 -2.1460 -1.7557
 2687TIP3    H229477   6.503   6.410  16.942 -0.0901  0.6495  0.1714
 2688TIP3   OH229478   4.629   0.460  15.900 -0.1489  0.3993  0.1968
 2688TIP3    H129479   4.574   0.391  15.937  0.2208  0.5118  0.9747
 2688TIP3    H229480   4.627   0.530  15.965  0.1248  0.7996 -0.2181
 2689TIP3   OH229481   4.900   1.054   1.717 -0.3187 -0.1424  0.1979
 2689TIP3    H129482   4.830   1.055   1.782 -0.4202 -0.5323  0.0973
 2689TIP3    H229483   4.960   1.124   1.744 -0.7074  0.1374  0.3280
 2690TIP3   OH229484   3.291   2.352  11.192 -0.0083  0.6065 -0.2109
 2690TIP3    H129485   3.373   2.373  11.148 -1.2703  2.5963 -1.7052
 2690TIP3    H229486   3.299   2.393  11.278  1.6348 -1.5450  0.7052
 2691TIP3   OH229487   0.881   6.234  15.097 -0.3396  0.3098 -0.0830
 2691TIP3    H129488   0.872   6.249  15.191 -0.2762 -1.0923  0.1472
 2691TIP3    H229489   0.800   6.190  15.072  0.3526 -0.8079 -0.3706
 2692TIP3   OH229490   2.429   3.533  14.070 -0.0712 -0.1355 -0.1601
 2692TIP3    H129491   2.350   3.489  14.040 -0.4136 -0.5729  1.3092
 2692TIP3    H229492   2.430   3.616  14.024 -0.0592 -1.1601 -2.0829
 2693TIP3   OH229493   0.218   4.899   1.275 -0.7256 -0.2241  0.5016
 2693TIP3    H129494   0.292   4.923   1.219 -0.8802  0.4204  0.5697
 2693TIP3    H229495   0.170   4.980   1.287  0.3597  0.0556  3.1295
 2694TIP3   OH229496   5.725   1.331   0.877  0.5453 -0.3300  0.1817
 2694TIP3    H129497   5.761   1.247   0.849  0.5226  0.1066 -1.1717
 2694TIP3    H229498   5.631   1.323   0.863  0.5152 -0.1592  0.2815
 2695TIP3   OH229499   2.032   5.543   2.259  0.1545 -0.0497  0.0045
 2695TIP3    H129500   1.981   5.559   2.180 -0.2640 -2.6712 -0.3176
 2695TIP3    H229501   2.105   5.605   2.255 -0.4216  0.5116 -1.9229
 2696TIP3   OH229502   1.882   0.552  13.368  0.5246  0.3260 -0.0511
 2696TIP3    H129503   1.815   0.616  13.342 -1.2220 -1.4696 -0.1250
 2696TIP3    H229504   1.957   0.571  13.311 -0.6487  1.0977 -1.3901
 2697TIP3   OH229505   0.048   6.072  11.076  0.2925  0.1259  0.4190
 2697TIP3    H129506   0.102   6.079  10.997  0.4344 -0.3683  0.4726
 2697TIP3    H229507   0.061   5.983  11.106  1.9767  0.9424  2.2406
 2698TIP3   OH229508   1.990   5.301   2.377 -0.5714  0.5055 -0.1398
 2698TIP3    H129509   1.907   5.268   2.343 -0.3494  0.5517 -0.7235
 2698TIP3    H229510   2.014   5.373   2.319 -0.3614  0.8057  0.3117
 2699TIP3   OH229511   2.471   2.397   2.166  0.3162  0.5990  0.5260
 2699TIP3    H129512   2.498   2.306   2.168  0.3807  0.6190  0.5857
 2699TIP3    H229513   2.495   2.431   2.253 -0.2756  0.5089  0.7280
 2700TIP3   OH229514   0.577   4.453  15.687 -0.3677  0.2331 -0.0141
 2700TIP3    H129515   0.515   4.381  15.672  1.8578 -1.4418 -1.5696
 2700TIP3    H229516   0.573   4.468  15.782 -1.5761 -1.3005  0.2130
 2701TIP3   OH229517   0.373   5.323   5.408  0.7838 -0.4165 -0.2761
 2701TIP3    H129518   0.377   5.361   5.320  2.5369  0.3463  0.1069
 2701TIP3    H229519   0.463   5.297   5.427  0.2866 -1.2471  1.0120
 2702TIP3   OH229520   0.950   3.349  14.589  0.1187 -0.6001 -0.2704
 2702TIP3    H129521   0.932   3.401  14.511 -1.0328 -2.2250 -1.1212
 2702TIP3    H229522   0.961   3.414  14.659 -1.1460  0.7955 -1.3198
 2703TIP3   OH229523   0.933   3.205   1.700 -0.0301 -0.4044 -0.3222
 2703TIP3    H129524   0.957   3.221   1.791 -0.5661 -0.6373 -0.1426
 2703TIP3    H229525   1.004   3.245   1.650 -0.2428  0.6193  0.1751
 2704TIP3   OH229526   5.382   0.520   5.311  0.3542  0.1925 -0.3422
 2704TIP3    H129527   5.339   0.453   5.258 -1.3998  0.7193  0.4010
 2704TIP3    H229528   5.417   0.582   5.247 -1.8580  0.8905 -0.9192
 2705TIP3   OH229529   0.453   3.314  11.685 -0.5408 -0.0609  0.7430
 2705TIP3    H129530   0.413   3.368  11.617 -1.0344 -2.6178 -1.0986
 2705TIP3    H229531   0.534   3.359  11.707 -0.1667  0.5951 -1.8624
 2706TIP3   OH229532   5.538   3.449   5.115 -0.3008 -0.5678  0.4816
 2706TIP3    H129533   5.589   3.442   5.196  0.1574  0.5616  0.3038
 2706TIP3    H229534   5.468   3.384   5.125 -0.8847  0.2946  2.2390
 2707TIP3   OH229535   2.663   5.916  13.276  0.3349 -0.4138  0.0694
 2707TIP3    H129536   2.602   5.981  13.241 -0.3447 -0.2510  1.5048
 2707TIP3    H229537   2.691   5.865  13.200 -1.1747 -0.1415 -0.6805
 2708TIP3   OH229538   2.897   4.673   6.093 -0.0076  0.4806 -0.2028
 2708TIP3    H129539   2.886   4.617   6.170 -0.5616  0.2432 -0.4456
 2708TIP3    H229540   2.937   4.615   6.028 -1.0511  0.2012 -0.6234
 2709TIP3   OH229541   6.542   3.766  13.793  0.4501 -0.3499  0.8940
 2709TIP3    H129542   6.558   3.825  13.720  1.9874 -1.1779  0.5528
 2709TIP3    H229543   6.448   3.748  13.789 -0.2336  2.6930  1.5063
 2710TIP3   OH229544   6.663   2.289   2.135  0.9721 -0.5092  0.2153
 2710TIP3    H129545   6.616   2.206   2.129 -2.2802  1.0661  2.2970
 2710TIP3    H229546   6.745   2.267   2.179  0.6282 -2.7460 -0.1863
 2711TIP3   OH229547   0.735   1.392   1.630 -0.4833 -0.2256  0.1881
 2711TIP3    H129548   0.778   1.474   1.654 -2.5948  0.3528  2.1659
 2711TIP3    H229549   0.805   1.338   1.594  0.9846  2.3477 -0.9522
 2712TIP3   OH229550   4.796   0.388  16.912  0.0870  0.2296 -0.3499
 2712TIP3    H129551   4.722   0.420  16.860  0.0791  0.4925 -0.1749
 2712TIP3    H229552   4.767   0.398  17.002  1.1574  2.3768 -0.2071
 2713TIP3   OH229553   1.222   4.316   3.158 -0.7444 -0.2920  0.6966
 2713TIP3    H129554   1.235   4.290   3.250 -0.9400  1.0416  1.1151
 2713TIP3    H229555   1.202   4.409   3.163 -0.2566 -0.1073 -0.7590
 2714TIP3   OH229556   6.408   4.243   5.765 -0.2454  0.0630 -0.4352
 2714TIP3    H129557   6.447   4.222   5.850 -1.7173 -0.5079  0.1178
 2714TIP3    H229558   6.472   4.213   5.701  0.9380  0.6105  0.4749
 2715TIP3   OH229559   1.501   2.592  13.831 -0.3781 -0.9136  0.2119
 2715TIP3    H129560   1.448   2.638  13.766 -1.2903 -2.6675 -0.3302
 2715TIP3    H229561   1.589   2.628  13.820 -1.2731  1.4794  0.5987
 2716TIP3   OH229562   4.258   1.167   5.444  0.2846  0.5598  0.4787
 2716TIP3    H129563   4.259   1.178   5.349  1.8356  1.5127  0.6004
 2716TIP3    H229564   4.188   1.104   5.459 -0.4552  0.9392 -1.2361
 2717TIP3   OH229565   6.480   0.409   3.913 -0.2819 -0.3946 -0.3148
 2717TIP3    H129566   6.514   0.387   4.000  0.5711  1.9291 -0.0367
 2717TIP3    H229567   6.558   0.409   3.857 -0.8057 -1.7204 -1.0669
 2718TIP3   OH229568   0.430   5.209  13.386  0.0340 -0.1709  0.0350
 2718TIP3    H129569   0.457   5.246  13.470  0.5851 -0.1955 -0.1337
 2718TIP3    H229570   0.437   5.281  13.324  1.4432 -0.6529 -0.3639
 2719TIP3   OH229571   1.018   3.912   3.250  1.0254 -0.0384 -0.3806
 2719TIP3    H129572   1.003   3.998   3.288  0.8855 -1.5922  3.2341
 2719TIP3    H229573   1.113   3.908   3.235  0.9634  0.9150 -1.0595
 2720TIP3   OH229574   2.632   4.881   5.235  0.4076 -0.4578 -0.2862
 2720TIP3    H129575   2.613   4.835   5.317 -0.1974  1.9156  0.9455
 2720TIP3    H229576   2.727   4.890   5.234  0.5342 -1.8377 -0.5853
 2721TIP3   OH229577   0.489   6.024   1.485  0.3745 -0.4512  0.3164
 2721TIP3    H129578   0.425   6.043   1.416 -0.1209  0.6939  1.0806
 2721TIP3    H229579   0.568   5.999   1.439 -0.2791 -0.7491 -0.6564
 2722TIP3   OH229580   5.872   2.705  12.077  0.3718 -0.2452  0.3375
 2722TIP3    H129581   5.854   2.783  12.024  1.6532 -1.1158 -1.4422
 2722TIP3    H229582   5.798   2.647  12.060 -0.5983  0.5713  1.6871
 2723TIP3   OH229583   4.291   1.535   5.206 -0.2695  0.3366  0.2510
 2723TIP3    H129584   4.305   1.552   5.299 -1.2856  0.5070  0.3761
 2723TIP3    H229585   4.216   1.475   5.203 -1.0751  1.3567 -0.5154
 2724TIP3   OH229586   2.684   1.806  12.679  0.1221 -0.0381 -0.2354
 2724TIP3    H129587   2.685   1.726  12.626 -0.1507  0.1302 -0.4956
 2724TIP3    H229588   2.596   1.808  12.718  0.6205 -0.6353  0.9524
 2725TIP3   OH229589   6.200   1.391  10.553  0.2674  0.1570  0.2004
 2725TIP3    H129590   6.240   1.434  10.478  2.6799 -2.8745 -0.3664
 2725TIP3    H229591   6.152   1.318  10.516 -1.8062  0.9132  1.3230
 2726TIP3   OH229592   4.965   5.556  14.641  0.4626  0.4971 -0.7606
 2726TIP3    H129593   4.964   5.487  14.707  0.0772  1.2673  0.0409
 2726TIP3    H229594   4.979   5.510  14.558  0.5239 -0.5072 -0.1945
 2727TIP3   OH229595   5.925   6.041  11.968  0.0840 -0.4544  0.5192
 2727TIP3    H129596   5.932   6.036  11.873  0.4759 -0.7858  0.5666
 2727TIP3    H229597   5.853   6.103  11.983 -0.0568 -0.4912  0.0102
 2728TIP3   OH229598   5.743   0.648  11.658  0.4521 -0.6081 -0.8340
 2728TIP3    H129599   5.667   0.600  11.624 -0.9802  1.7832 -1.1149
 2728TIP3    H229600   5.741   0.631  11.752  0.6244 -1.9637 -1.0543
 2729TIP3   OH229601   0.426   4.746  12.825  0.2812 -0.2643 -0.2876
 2729TIP3    H129602   0.435   4.756  12.920  0.9083  0.8293 -0.4531
 2729TIP3    H229603   0.332   4.745  12.809  0.1773  1.7221  0.1333
 2730TIP3   OH229604   0.015   4.733   6.088  0.7266  0.0572  0.1474
 2730TIP3    H129605   0.093   4.718   6.035  1.6494 -1.5380  1.8681
 2730TIP3    H229606   0.049   4.748   6.177 -0.8425  0.9097  0.6242
 2731TIP3   OH229607   3.847   4.935  16.836 -0.6111  0.6482 -0.0070
 2731TIP3    H129608   3.778   4.892  16.888 -1.0717  1.1189 -0.2291
 2731TIP3    H229609   3.840   4.895  16.750 -0.2680  0.3294  0.1109
 2732TIP3   OH229610   0.695   5.903  11.771  0.6208 -0.2483 -0.1117
 2732TIP3    H129611   0.674   5.830  11.712  1.4781  0.0732 -0.8208
 2732TIP3    H229612   0.631   5.970  11.748 -0.0252 -0.6803  0.3878
 2733TIP3   OH229613   1.175   3.987  11.311 -0.4169 -0.5410  0.1525
 2733TIP3    H129614   1.131   4.058  11.263  1.8791  0.3190 -0.7864
 2733TIP3    H229615   1.177   4.017  11.402 -0.8697 -0.1215  0.0281
 2734TIP3   OH229616   4.136   4.492   0.927 -0.1344 -0.1320 -0.1422
 2734TIP3    H129617   4.051   4.536   0.931  0.4129  0.8442  1.0671
 2734TIP3    H229618   4.193   4.545   0.983  0.6721 -2.1102  0.9521
 2735TIP3   OH229619   3.059   5.536  14.351  0.5900 -0.2992 -0.2357
 2735TIP3    H129620   3.017   5.573  14.274  1.0702  1.6786  0.4337
 2735TIP3    H229621   3.151   5.525  14.325  0.0791 -2.9271 -1.0895
 2736TIP3   OH229622   2.283   1.220   4.441  0.0245 -0.0409 -0.5058
 2736TIP3    H129623   2.356   1.184   4.390  1.0074  1.0521  0.0978
 2736TIP3    H229624   2.234   1.274   4.379  0.3692  0.1090 -0.6495
 2737TIP3   OH229625   2.200   0.682  15.429 -0.1927 -0.0877 -0.0004
 2737TIP3    H129626   2.132   0.652  15.370  2.1570 -1.5738 -2.0761
 2737TIP3    H229627   2.199   0.619  15.502 -0.6737 -0.4322 -0.3078
 2738TIP3   OH229628   3.400   4.455   5.356 -0.0897 -0.2999  0.1695
 2738TIP3    H129629   3.401   4.543   5.319 -0.5292 -0.5326 -0.4037
 2738TIP3    H229630   3.466   4.407   5.306 -0.4309 -0.5185 -0.0678
 2739TIP3   OH229631   5.534   0.558   5.062 -0.1419  0.6735 -0.0420
 2739TIP3    H129632   5.617   0.600   5.084  0.0385  0.0602  0.4947
 2739TIP3    H229633   5.508   0.596   4.978  0.9574  0.4681 -0.4836
 2740TIP3   OH229634   4.437   3.763  14.107  0.2995 -0.2036  0.1188
 2740TIP3    H129635   4.453   3.669  14.108  0.5529 -0.1614 -0.0557
 2740TIP3    H229636   4.473   3.793  14.024 -0.7947 -0.1271 -0.3349
 2741TIP3   OH229637   3.355   5.249   1.599  0.7152  0.2960 -0.3010
 2741TIP3    H129638   3.345   5.343   1.617 -1.2927 -0.0676  0.6717
 2741TIP3    H229639   3.363   5.209   1.685  3.0243 -0.3050 -0.7730
 2742TIP3   OH229640   4.568   5.174  12.248 -0.1627 -0.9049  0.6625
 2742TIP3    H129641   4.537   5.216  12.167  0.7677  1.4226  1.4545
 2742TIP3    H229642   4.531   5.228  12.318  2.5826 -0.2784  1.6894
 2743TIP3   OH229643   4.012   0.219  15.269  0.0141 -0.3207 -0.1797
 2743TIP3    H129644   4.027   0.125  15.274  2.6665  0.1096  0.5784
 2743TIP3    H229645   3.979   0.234  15.180  0.8013 -1.7798 -0.7275
 2744TIP3   OH229646   6.721   5.801  12.177  0.2499 -0.7380  0.0748
 2744TIP3    H129647   6.705   5.890  12.145  0.3559 -0.2384  1.4213
 2744TIP3    H229648   6.677   5.745  12.112 -1.5274  0.3719  0.2709
 2745TIP3   OH229649   0.967   2.037  16.716 -0.4076  0.7349  0.3048
 2745TIP3    H129650   0.873   2.050  16.728  0.3271  3.8761  3.7145
 2745TIP3    H229651   0.999   2.008  16.801  1.8155  0.2477 -0.6523
 2746TIP3   OH229652   2.514   3.461  15.982  0.2489  0.2593 -0.2060
 2746TIP3    H129653   2.489   3.499  15.897 -1.3846  0.6017  0.4097
 2746TIP3    H229654   2.439   3.408  16.008  0.9632 -0.2833  0.7778
 2747TIP3   OH229655   6.332   2.198  12.533 -0.2709  0.2259 -0.0242
 2747TIP3    H129656   6.366   2.202  12.622  0.8162 -1.0427 -0.3660
 2747TIP3    H229657   6.300   2.109  12.523 -1.4936  0.7086 -0.5181
 2748TIP3   OH229658   2.480   5.950   1.185  0.8129  0.5614  0.0818
 2748TIP3    H129659   2.435   5.922   1.264  1.0722 -0.6183 -0.1785
 2748TIP3    H229660   2.417   6.007   1.141 -0.1560 -0.4695  0.0894
 2749TIP3   OH229661   5.801   3.205   5.293 -0.3116  0.3093  0.3523
 2749TIP3    H129662   5.806   3.274   5.228 -2.3114  0.2008  0.0433
 2749TIP3    H229663   5.792   3.252   5.377 -1.5091  0.4437  0.1588
 2750TIP3   OH229664   2.134   6.615   5.686  0.0910 -0.5441 -0.2251
 2750TIP3    H129665   2.153   6.560   5.762  1.4484 -1.1474 -0.9803
 2750TIP3    H229666   2.150   6.704   5.716  0.2118 -0.7460  0.3241
 2751TIP3   OH229667   4.030   6.383   1.976 -0.2528  0.1941  0.1231
 2751TIP3    H129668   4.090   6.432   2.032  0.6170  1.1516 -1.6150
 2751TIP3    H229669   3.966   6.447   1.947 -1.5711 -0.6184  1.1709
 2752TIP3   OH229670   5.203   2.990   0.955 -0.3477  0.4675 -0.6466
 2752TIP3    H129671   5.143   3.040   1.011  1.2899  1.3029  0.3968
 2752TIP3    H229672   5.225   2.912   1.007  0.8619  1.0460 -0.2776
 2753TIP3   OH229673   2.195   0.891  15.243 -0.0855 -0.5775  0.2105
 2753TIP3    H129674   2.207   0.819  15.305 -2.0937 -0.8779  0.2778
 2753TIP3    H229675   2.156   0.961  15.295  0.0707 -0.1327 -0.2725
 2754TIP3   OH229676   0.389   4.711  13.778 -0.5369 -0.0427 -0.3142
 2754TIP3    H129677   0.334   4.787  13.758 -1.5205 -0.7961 -0.5350
 2754TIP3    H229678   0.331   4.651  13.826  0.5626 -0.1527  0.9054
 2755TIP3   OH229679   4.701   1.512  12.289  0.2508  0.4310  0.0072
 2755TIP3    H129680   4.625   1.497  12.345 -1.2343  1.9409 -1.5370
 2755TIP3    H229681   4.719   1.606  12.297  0.0948  0.6462 -1.8978
 2756TIP3   OH229682   6.419   2.091  17.202  0.0250  0.2919 -0.0887
 2756TIP3    H129683   6.442   2.161  17.262  0.4154 -0.4468  0.6427
 2756TIP3    H229684   6.475   2.018  17.228 -1.1933 -0.6641 -0.0589
 2757TIP3   OH229685   1.729   3.594   1.015  0.1495  0.1589  0.2712
 2757TIP3    H129686   1.676   3.532   0.964 -0.9338  0.4224  1.0456
 2757TIP3    H229687   1.740   3.552   1.100  0.4698  0.4874  0.3957
 2758TIP3   OH229688   1.217   0.687   3.235  0.2085  0.3223  0.0977
 2758TIP3    H129689   1.265   0.648   3.162 -0.0208 -0.8971  0.5904
 2758TIP3    H229690   1.213   0.618   3.300 -2.1421  0.4383  0.1024
 2759TIP3   OH229691   6.082   5.987  14.091  0.0163 -0.2932 -0.5009
 2759TIP3    H129692   6.000   6.003  14.139  0.9213 -0.1562  1.0356
 2759TIP3    H229693   6.150   5.991  14.158  1.1378 -1.9541 -1.5028
 2760TIP3   OH229694   3.619   3.341  11.813  0.3313 -0.2363 -0.1841
 2760TIP3    H129695   3.663   3.322  11.730  0.3675 -0.9335 -0.0066
 2760TIP3    H229696   3.536   3.382  11.787 -0.3235 -1.7868 -0.6183
 2761TIP3   OH229697   0.832   0.427  12.604 -0.4686 -0.4672 -0.3534
 2761TIP3    H129698   0.910   0.409  12.551 -2.0630 -0.0857 -2.9237
 2761TIP3    H229699   0.857   0.501  12.659  1.5144 -1.4139  0.0607
 2762TIP3   OH229700   1.291   3.470  12.064 -0.1590 -0.1799  0.9027
 2762TIP3    H129701   1.298   3.539  12.129 -0.0763 -1.0882  1.8707
 2762TIP3    H229702   1.322   3.391  12.109  0.1316 -0.7723 -0.3052
 2763TIP3   OH229703   3.164   6.598  10.259  0.0268 -0.3935 -0.1395
 2763TIP3    H129704   3.123   6.679  10.291  0.7909  0.6626 -1.7559
 2763TIP3    H229705   3.092   6.535  10.254 -0.7945  0.5106  0.1370
 2764TIP3   OH229706   5.290   4.615   5.101 -0.0445  0.5034 -0.4951
 2764TIP3    H129707   5.317   4.562   5.175 -0.1316  0.3236 -0.5901
 2764TIP3    H229708   5.235   4.557   5.048  0.3699  0.4935 -0.9228
 2765TIP3   OH229709   2.893   4.158   1.409 -0.1813 -0.3310 -0.3920
 2765TIP3    H129710   2.973   4.108   1.418 -0.3224 -0.7232 -1.2423
 2765TIP3    H229711   2.836   4.126   1.478  0.2824 -0.2717  0.0166
 2766TIP3   OH229712   1.165   3.504  13.343 -0.0218  1.3789  0.6860
 2766TIP3    H129713   1.222   3.577  13.369  1.0715  0.4397  0.9484
 2766TIP3    H229714   1.143   3.523  13.252  0.0347  2.1800  0.8359
 2767TIP3   OH229715   2.984   5.759  16.938  0.1095  0.0673  0.7252
 2767TIP3    H129716   2.899   5.747  16.896 -0.5760 -0.2110  2.1778
 2767TIP3    H229717   3.035   5.682  16.912  0.2919  0.7447 -1.0003
 2768TIP3   OH229718   2.813   4.087   6.186 -0.0930  0.0512  0.0319
 2768TIP3    H129719   2.826   4.119   6.275 -1.4261 -0.1951  0.3327
 2768TIP3    H229720   2.817   3.992   6.193 -0.8123  0.0070 -0.0521
 2769TIP3   OH229721   6.053   4.382   0.512 -0.2400 -0.3572  0.5558
 2769TIP3    H129722   6.137   4.384   0.465 -0.1366  1.0144  0.7767
 2769TIP3    H229723   5.999   4.447   0.467  0.1133  1.5509  2.7637
 2770TIP3   OH229724   2.524   4.752  11.987  0.2296  0.4668  0.0727
 2770TIP3    H129725   2.506   4.674  11.936 -1.1640  0.8469 -0.0131
 2770TIP3    H229726   2.610   4.782  11.957  1.3982 -1.7971  1.0698
 2771TIP3   OH229727   3.348   4.918   4.272  0.4870  0.0959 -0.0296
 2771TIP3    H129728   3.264   4.875   4.258 -0.7557  3.3481 -3.6630
 2771TIP3    H229729   3.413   4.852   4.248 -1.1351 -1.3530 -0.5768
 2772TIP3   OH229730   4.154   0.230   4.763  0.0261  0.2318 -1.0485
 2772TIP3    H129731   4.237   0.265   4.795  0.0771 -1.6892  1.0668
 2772TIP3    H229732   4.092   0.302   4.771  1.0750  1.1191 -0.8399
 2773TIP3   OH229733   6.690   5.287  16.596  0.2854  0.1532 -0.1035
 2773TIP3    H129734   6.780   5.319  16.606  0.9061 -1.3603 -0.8262
 2773TIP3    H229735   6.674   5.291  16.502 -0.1030 -0.4044 -0.0569
 2774TIP3   OH229736   1.960   3.244  10.499 -0.4797 -0.1815 -0.3445
 2774TIP3    H129737   1.919   3.182  10.560 -1.0474  0.8249  0.3097
 2774TIP3    H229738   1.890   3.306  10.478 -0.3574 -0.6619 -2.2197
 2775TIP3   OH229739   2.734   0.527   3.915  0.4616  0.3963  0.6357
 2775TIP3    H129740   2.668   0.477   3.964  0.6220 -0.4475  0.0043
 2775TIP3    H229741   2.693   0.545   3.830  0.3925  1.3827  0.8717
 2776TIP3   OH229742   0.587   3.886  13.339  0.2705  0.2140 -0.5319
 2776TIP3    H129743   0.597   3.978  13.315 -2.7551  0.3195 -1.5712
 2776TIP3    H229744   0.593   3.885  13.434  1.5950  1.2714 -0.5774
 2777TIP3   OH229745   5.165   4.445   1.740 -0.2407 -0.0986  0.3959
 2777TIP3    H129746   5.153   4.515   1.675 -1.7616  0.0169  0.7700
 2777TIP3    H229747   5.257   4.448   1.763 -0.1983  1.4729  0.0381
 2778TIP3   OH229748   0.922   3.852   3.992 -0.3516 -0.2091  0.5687
 2778TIP3    H129749   0.920   3.782   3.927  0.9509 -0.1772  0.4760
 2778TIP3    H229750   0.999   3.834   4.045  1.1777  2.2501 -0.7105
 2779TIP3   OH229751   4.903   5.579   0.957 -0.1980 -0.2609 -0.4610
 2779TIP3    H129752   4.848   5.635   1.010 -1.0966  0.5140 -2.1800
 2779TIP3    H229753   4.902   5.494   1.002  0.7051  0.8996  1.8302
 2780TIP3   OH229754   0.894   5.124   6.881 -0.0546  0.3348  0.1569
 2780TIP3    H129755   0.848   5.204   6.907  0.2484  0.5343  0.0905
 2780TIP3    H229756   0.986   5.142   6.902  0.2967  0.7688 -1.6583
 2781TIP3   OH229757   2.132   2.874  11.905  0.2116  0.4262  0.1173
 2781TIP3    H129758   2.053   2.924  11.886  0.4452  1.0825  0.8205
 2781TIP3    H229759   2.166   2.849  11.819 -0.5535  0.4529 -0.2002
 2782TIP3   OH229760   1.962   2.600   6.630  0.6386  0.1102  0.1488
 2782TIP3    H129761   2.044   2.630   6.593  1.4963 -0.8214  1.2615
 2782TIP3    H229762   1.901   2.598   6.556  0.7399  3.7625 -0.1325
 2783TIP3   OH229763   6.325   6.291  11.486  0.5004  0.3769  0.1499
 2783TIP3    H129764   6.415   6.321  11.477  0.1424  1.1562 -0.8545
 2783TIP3    H229765   6.311   6.233  11.412 -0.5714  2.1315 -1.0530
 2784TIP3   OH229766   3.923   0.615   1.114 -0.5765  0.1726 -0.5960
 2784TIP3    H129767   3.943   0.579   1.200 -0.9798  0.4360 -0.3935
 2784TIP3    H229768   3.968   0.557   1.053  0.7319  0.6965 -0.1481
 2785TIP3   OH229769   5.395   2.386   5.361  0.3811  0.0804  0.1542
 2785TIP3    H129770   5.328   2.363   5.296 -0.2121 -0.0848  0.8174
 2785TIP3    H229771   5.476   2.392   5.310 -0.1975  0.6780 -0.7284
 2786TIP3   OH229772   0.445   3.843  17.222 -0.4067  0.3826 -0.6217
 2786TIP3    H129773   0.414   3.926  17.259  1.1917  0.3493  0.8668
 2786TIP3    H229774   0.406   3.776  17.278 -0.3291  0.1988 -0.7863
 2787TIP3   OH229775   3.611   4.913  12.895  0.1215 -0.6957  0.3880
 2787TIP3    H129776   3.545   4.958  12.948  0.2119 -0.6173  0.4332
 2787TIP3    H229777   3.671   4.874  12.959  0.7602  0.1811  0.3405
 2788TIP3   OH229778   1.158   3.985  10.647  0.1635  0.0433  0.0364
 2788TIP3    H129779   1.185   3.912  10.591  0.0149  0.0395 -0.0299
 2788TIP3    H229780   1.216   4.057  10.622  1.0088 -0.3514  0.8393
 2789TIP3   OH229781   4.216   2.194  15.649 -0.0572  0.1452 -0.2903
 2789TIP3    H129782   4.295   2.182  15.701  1.2810  0.3732 -2.2251
 2789TIP3    H229783   4.194   2.106  15.618  0.4861  0.3447 -1.2468
 2790TIP3   OH229784   0.081   6.121  11.407 -0.7668 -0.8963 -0.1627
 2790TIP3    H129785   0.146   6.172  11.359  0.6684 -2.5044  0.0226
 2790TIP3    H229786   0.031   6.186  11.457  1.5968  0.2546  0.7678
 2791TIP3   OH229787   6.310   2.351  10.691  0.8169 -0.3204  0.4660
 2791TIP3    H129788   6.255   2.277  10.667  0.9633 -0.4613  0.5672
 2791TIP3    H229789   6.283   2.421  10.632 -1.5512  0.5328  2.4808
 2792TIP3   OH229790   1.174   1.768  11.583  0.1580  0.3439 -0.4961
 2792TIP3    H129791   1.221   1.806  11.657  1.7911 -0.8612 -0.8978
 2792TIP3    H229792   1.231   1.698  11.552 -1.1968 -0.1170 -1.9763
 2793TIP3   OH229793   0.046   4.443  16.452  0.4845  0.4007  0.0447
 2793TIP3    H129794  -0.024   4.420  16.391 -0.0032  0.8103  0.4421
 2793TIP3    H229795   0.098   4.364  16.460  1.8992  1.0119 -2.6849
 2794TIP3   OH229796   2.316   1.777   2.760 -0.0595 -0.3213  0.1296
 2794TIP3    H129797   2.364   1.819   2.689 -1.4536  0.8168 -0.1727
 2794TIP3    H229798   2.380   1.767   2.830  0.3758  2.0631  0.0964
 2795TIP3   OH229799   1.248   6.252   0.497  0.2584 -0.0269  0.0828
 2795TIP3    H129800   1.247   6.223   0.406  2.0027 -0.7118  0.2667
 2795TIP3    H229801   1.341   6.258   0.520 -0.1607 -0.6324  2.0637
 2796TIP3   OH229802   6.265   5.722   1.224 -0.6776  0.1500  0.4678
 2796TIP3    H129803   6.235   5.757   1.140  0.9144  0.5168  0.0403
 2796TIP3    H229804   6.325   5.789   1.258 -0.3704 -0.5551  1.3244
 2797TIP3   OH229805   4.530   1.497  14.486  0.1822 -0.8094 -0.0116
 2797TIP3    H129806   4.560   1.572  14.435 -1.2702 -0.3035 -0.1277
 2797TIP3    H229807   4.573   1.422  14.444  0.2466 -0.2332 -1.0035
 2798TIP3   OH229808   1.429   1.379  15.164  0.7548 -0.6075 -0.1321
 2798TIP3    H129809   1.444   1.293  15.203 -0.9293 -0.2369  1.4304
 2798TIP3    H229810   1.462   1.372  15.075  4.3845 -1.6151  1.2315
 2799TIP3   OH229811   2.748   3.427   6.925  0.3605 -0.3573  0.4890
 2799TIP3    H129812   2.799   3.485   6.982  1.1904  0.8701 -1.4659
 2799TIP3    H229813   2.811   3.396   6.859 -0.5983 -1.7031  0.1763
 2800TIP3   OH229814   3.676   4.864   0.643 -0.6882 -0.0398  0.1383
 2800TIP3    H129815   3.641   4.903   0.563  0.3671 -2.2848 -1.5015
 2800TIP3    H229816   3.605   4.809   0.676 -1.5704  1.8548  1.4985
 2801TIP3   OH229817   4.281   3.201  13.050 -0.1010 -0.4373  0.3698
 2801TIP3    H129818   4.201   3.206  13.102  0.2156  2.0297  0.6536
 2801TIP3    H229819   4.352   3.216  13.112  0.2914  2.3286 -0.6547
 2802TIP3   OH229820   1.378   5.088   3.840 -0.1118  0.5670 -0.7924
 2802TIP3    H129821   1.304   5.044   3.798 -0.9126  1.7384 -0.6305
 2802TIP3    H229822   1.343   5.120   3.923 -0.1421  3.3682 -1.8435
 2803TIP3   OH229823   2.775   4.543   2.810 -0.2972 -0.3182 -0.3339
 2803TIP3    H129824   2.859   4.584   2.790  0.1709 -1.2825 -0.4080
 2803TIP3    H229825   2.766   4.551   2.905 -0.3087  0.1429 -0.3758
 2804TIP3   OH229826   4.671   6.504   0.973  0.1352 -0.1426 -0.2142
 2804TIP3    H129827   4.576   6.503   0.971  0.0726 -2.6637  1.7383
 2804TIP3    H229828   4.693   6.554   1.051  0.4075 -0.1089 -0.3107
 2805TIP3   OH229829   3.702   0.950  11.617  0.7375  0.8159  0.2909
 2805TIP3    H129830   3.663   0.911  11.695 -0.3115  0.3052 -0.4706
 2805TIP3    H229831   3.746   1.029  11.649  0.2273  0.6673  1.3834
 2806TIP3   OH229832   4.689   6.486   1.498  0.0689  0.6042  0.1158
 2806TIP3    H129833   4.695   6.481   1.593 -1.5674  1.0371  0.2446
 2806TIP3    H229834   4.599   6.512   1.480  0.8101  2.1698 -1.4992
 2807TIP3   OH229835   1.630   0.285  13.149  0.3038  0.0198  0.3325
 2807TIP3    H129836   1.722   0.293  13.172  0.4105 -0.1374 -0.0363
 2807TIP3    H229837   1.605   0.198  13.178  0.3615 -0.0669  0.1234
 2808TIP3   OH229838   6.092   6.496   5.009 -0.1541  0.2903 -0.1271
 2808TIP3    H129839   6.052   6.527   4.929 -0.2782  1.5496  0.4186
 2808TIP3    H229840   6.056   6.408   5.022 -2.9056  1.4719  0.4728
 2809TIP3   OH229841   0.078   2.619   5.697  0.5309  0.2141  0.0564
 2809TIP3    H129842   0.003   2.678   5.699  1.0038  0.8004  1.1009
 2809TIP3    H229843   0.098   2.604   5.789  0.9108 -0.9452 -0.2170
 2810TIP3   OH229844   2.114   1.193   3.470  0.2608 -0.2373 -0.3959
 2810TIP3    H129845   2.096   1.211   3.563 -0.0136  0.0109 -0.4973
 2810TIP3    H229846   2.057   1.119   3.449 -0.0427  0.0299 -0.5027
 2811TIP3   OH229847   2.403   6.625  11.737 -0.1384 -0.1856 -0.2301
 2811TIP3    H129848   2.318   6.668  11.730  0.2377  0.4170 -1.3311
 2811TIP3    H229849   2.430   6.611  11.646  1.5791  0.9607  0.0785
 2812TIP3   OH229850   1.432   3.036  10.801  0.0887  0.2036  0.2798
 2812TIP3    H129851   1.495   3.072  10.863 -0.7685  2.3045 -0.0362
 2812TIP3    H229852   1.478   3.034  10.718  0.0640  0.8003  0.2523
 2813TIP3   OH229853   5.754   6.469  16.564 -0.2337  0.3778 -0.0681
 2813TIP3    H129854   5.720   6.427  16.643 -0.6158  1.0075  0.1067
 2813TIP3    H229855   5.712   6.556  16.563  0.2619  0.6151 -0.6156
 2814TIP3   OH229856   0.003   4.998  11.516 -0.0343 -0.3743 -0.4123
 2814TIP3    H129857  -0.088   5.007  11.545  0.5686  1.3154  1.1033
 2814TIP3    H229858   0.052   4.982  11.597  1.0314 -1.1143 -1.1952
 2815TIP3   OH229859   4.096   1.660   6.321 -0.1659  0.3081 -0.5139
 2815TIP3    H129860   4.000   1.658   6.317 -0.2787 -0.2830  1.8140
 2815TIP3    H229861   4.123   1.574   6.289 -0.4504  0.1267 -0.2696
 2816TIP3   OH229862   5.035   0.053  11.598 -0.0487  0.2007 -0.9282
 2816TIP3    H129863   5.091   0.068  11.674  0.2125  1.1974 -1.3161
 2816TIP3    H229864   4.954   0.100  11.618 -0.3466 -0.3497 -0.8382
 2817TIP3   OH229865   2.637   1.128   3.189 -0.8047 -0.5035 -0.3857
 2817TIP3    H129866   2.680   1.099   3.108  1.9502 -3.5077  1.9973
 2817TIP3    H229867   2.554   1.080   3.190 -0.3970 -1.2376 -0.9601
 2818TIP3   OH229868   0.283   5.864  14.987  0.1449 -0.0724  0.0990
 2818TIP3    H129869   0.221   5.921  15.032  0.6808 -0.3346  1.1843
 2818TIP3    H229870   0.327   5.922  14.924  0.9295  0.7984  1.4273
 2819TIP3   OH229871   3.310   1.167   4.746 -0.4014 -0.9220 -0.4808
 2819TIP3    H129872   3.225   1.211   4.750 -1.3295 -2.6965 -0.1541
 2819TIP3    H229873   3.339   1.178   4.655 -1.0564 -0.4680 -0.6391
 2820TIP3   OH229874   2.524   2.595  16.741 -0.4882 -0.1279  0.2565
 2820TIP3    H129875   2.446   2.549  16.772 -0.1177 -1.8826 -1.3480
 2820TIP3    H229876   2.491   2.658  16.678 -0.8193  0.6343  1.1817
 2821TIP3   OH229877   1.011   0.008   1.678  0.2991  0.1495 -0.4181
 2821TIP3    H129878   1.000  -0.065   1.617 -1.1714  0.8176 -0.9655
 2821TIP3    H229879   1.078   0.063   1.637 -0.1947  0.2513 -1.0933
 2822TIP3   OH229880   0.928   2.958  16.486 -0.0405  0.0359 -0.3025
 2822TIP3    H129881   0.842   2.979  16.520  0.2292  0.6090  0.0366
 2822TIP3    H229882   0.912   2.921  16.399 -0.7989 -2.4403  0.8439
 2823TIP3   OH229883   5.716   5.937   4.948 -0.2533  0.4528 -0.4332
 2823TIP3    H129884   5.719   5.843   4.928  1.3887  0.5012 -0.5033
 2823TIP3    H229885   5.673   5.942   5.033  0.2862 -0.4339 -0.0999
 2824TIP3   OH229886   3.417   2.803  10.584  0.1003  0.3562  0.2537
 2824TIP3    H129887   3.487   2.820  10.646 -1.2445 -1.3193  2.3072
 2824TIP3    H229888   3.381   2.890  10.563  0.2562  0.9046  2.2042
 2825TIP3   OH229889   5.490   2.035  14.834  0.2895  0.8078  0.0822
 2825TIP3    H129890   5.495   2.099  14.906  0.9795  0.6999  0.1314
 2825TIP3    H229891   5.572   1.986  14.840 -1.1186 -1.5141  1.3818
 2826TIP3   OH229892   6.184   4.052  15.593  0.3155 -0.2471  0.4443
 2826TIP3    H129893   6.172   4.066  15.499  0.6976 -0.2640  0.3907
 2826TIP3    H229894   6.195   3.958  15.602  1.3647 -0.1419  0.3692
 2827TIP3   OH229895   4.879   2.818   5.669 -0.9399  0.4746 -0.6074
 2827TIP3    H129896   4.827   2.870   5.729  0.7982  2.9986 -1.2046
 2827TIP3    H229897   4.820   2.800   5.595 -1.5866  1.5485 -0.3584
 2828TIP3   OH229898   5.335   3.443   4.535 -0.3872 -0.2993 -0.1125
 2828TIP3    H129899   5.295   3.484   4.612 -0.7573  0.1021 -0.5142
 2828TIP3    H229900   5.421   3.485   4.528  0.2040 -1.3412  0.8956
 2829TIP3   OH229901   1.601   2.985   1.281  0.7533  0.3467  0.3777
 2829TIP3    H129902   1.617   2.900   1.242 -0.5611  1.3030 -2.3947
 2829TIP3    H229903   1.524   2.972   1.337  0.4038 -0.2430 -0.2351
 2830TIP3   OH229904   3.406   1.322  12.424  0.3969  0.4039 -0.1147
 2830TIP3    H129905   3.468   1.373  12.477 -0.1580  0.3431  0.5912
 2830TIP3    H229906   3.355   1.388  12.377  1.0639  0.4525 -0.7783
 2831TIP3   OH229907   2.795   0.087   2.822  0.3225  0.8121  0.1378
 2831TIP3    H129908   2.749   0.163   2.859 -2.0595  0.5681 -2.1379
 2831TIP3    H229909   2.800   0.025   2.894  0.4747  2.3511  1.4739
 2832TIP3   OH229910   6.136   5.552  16.596  0.4872  0.1504 -0.6734
 2832TIP3    H129911   6.137   5.644  16.622  1.7737  0.3421 -1.3499
 2832TIP3    H229912   6.228   5.527  16.591  0.1641 -1.0874 -0.8451
 2833TIP3   OH229913   5.114   0.865   1.293 -0.3417  1.0527 -0.6589
 2833TIP3    H129914   5.093   0.925   1.364 -0.5062  1.1014 -0.7478
 2833TIP3    H229915   5.033   0.859   1.242 -0.4644  0.4091 -0.3959
 2834TIP3   OH229916   4.210   1.268   4.125  0.5375  0.3588  0.2155
 2834TIP3    H129917   4.302   1.243   4.132  0.7121  1.6310  3.0372
 2834TIP3    H229918   4.163   1.199   4.171  0.2047  0.5612  0.1820
 2835TIP3   OH229919   4.553   1.683  11.027  0.3714 -0.3908 -0.3759
 2835TIP3    H129920   4.628   1.704  11.082  0.2191  0.2727 -0.4210
 2835TIP3    H229921   4.478   1.685  11.086  0.2853 -0.2736 -0.4908
 2836TIP3   OH229922   0.972   3.145   5.301  0.1323  0.2030  0.5485
 2836TIP3    H129923   0.907   3.202   5.260 -1.4217 -0.6251  1.8334
 2836TIP3    H229924   0.925   3.064   5.319  1.8209 -0.7976  0.5098
 2837TIP3   OH229925   1.308   3.871   5.076  0.4602  0.1870  0.9291
 2837TIP3    H129926   1.268   3.825   5.150  1.1273  0.6760  1.5946
 2837TIP3    H229927   1.400   3.877   5.099  0.8373 -0.5176 -0.3942
 2838TIP3   OH229928   0.893   5.956   0.594  0.0398 -0.3893 -0.1598
 2838TIP3    H129929   0.940   6.039   0.602  0.7518 -0.8648  0.8800
 2838TIP3    H229930   0.919   5.921   0.509  0.6285 -0.0640 -0.1149
 2839TIP3   OH229931   2.588   2.021  12.446 -0.0184  0.1667  0.1222
 2839TIP3    H129932   2.505   1.976  12.430  0.2110 -0.6189  1.0681
 2839TIP3    H229933   2.642   2.002  12.370 -0.5134  0.2355 -0.2460
 2840TIP3   OH229934   5.257   5.274  15.606  0.4158  0.0481  0.0995
 2840TIP3    H129935   5.188   5.341  15.609  0.0124 -0.1833 -2.8689
 2840TIP3    H229936   5.210   5.192  15.623  0.5359  0.2524  1.4615
 2841TIP3   OH229937   0.550   0.975   5.664 -0.3195 -0.1052  0.0398
 2841TIP3    H129938   0.502   1.057   5.652 -0.0515 -0.1379 -1.4142
 2841TIP3    H229939   0.634   1.001   5.700 -1.2281  0.0003  2.1116
 2842TIP3   OH229940   0.701   0.199  16.321  0.6366  0.0796 -0.0199
 2842TIP3    H129941   0.690   0.134  16.390 -0.4006 -0.1923 -0.4409
 2842TIP3    H229942   0.790   0.184  16.289  1.8447  1.4573  2.5119
 2843TIP3   OH229943   2.982   2.390  16.799  0.1372 -0.3795 -0.2221
 2843TIP3    H129944   3.049   2.455  16.815 -0.1347 -0.1018 -0.2071
 2843TIP3    H229945   2.974   2.385  16.704  1.0277 -1.2840 -0.2531
 2844TIP3   OH229946   2.133   0.782  12.041 -0.1581 -0.3374  0.5529
 2844TIP3    H129947   2.087   0.862  12.067 -0.8661 -1.0358  1.4787
 2844TIP3    H229948   2.073   0.711  12.065  0.9244 -1.1989  0.7222
 2845TIP3   OH229949   5.781   2.380  11.143 -0.2435 -0.2861 -0.1669
 2845TIP3    H129950   5.761   2.293  11.108  0.5289  0.0785 -1.5069
 2845TIP3    H229951   5.696   2.423  11.150 -0.6177 -1.1132  0.4065
 2846TIP3   OH229952   5.913   5.278  16.065  0.2379  0.0100  0.6118
 2846TIP3    H129953   5.826   5.300  16.031  0.4826  0.4296  0.2576
 2846TIP3    H229954   5.973   5.304  15.995  0.6907  0.1908  1.0699
 2847TIP3   OH229955   2.441   3.263   4.533 -0.2859  0.3602 -0.1242
 2847TIP3    H129956   2.528   3.223   4.533 -0.9274 -1.0941 -2.4407
 2847TIP3    H229957   2.453   3.348   4.491 -0.6068 -1.4256 -4.0447
 2848TIP3   OH229958   0.779   0.181  12.039 -0.4751 -0.3965 -0.5721
 2848TIP3    H129959   0.746   0.257  12.089  1.3870  1.2137 -1.7266
 2848TIP3    H229960   0.720   0.174  11.964 -1.0563 -0.5111 -0.1073
 2849TIP3   OH229961   5.156   1.963  14.862  0.3590 -0.5147 -0.3507
 2849TIP3    H129962   5.084   1.980  14.922 -0.6941 -2.6330 -0.9708
 2849TIP3    H229963   5.183   2.049  14.830 -1.4141  0.3348  0.4423
 2850TIP3   OH229964   0.379   2.869   5.765  0.2813  0.1683 -0.1082
 2850TIP3    H129965   0.416   2.934   5.704  0.4174 -0.5420 -0.7955
 2850TIP3    H229966   0.314   2.918   5.816  0.7056  0.9510 -0.3006
 2851TIP3   OH229967   1.187   5.488   3.630  0.1179 -0.5354  0.3635
 2851TIP3    H129968   1.271   5.520   3.665 -0.4297 -0.3724  1.5500
 2851TIP3    H229969   1.180   5.528   3.544  1.0425 -0.1663  0.4541
 2852TIP3   OH229970   5.020   3.185  11.817  0.1568  0.3660 -0.6476
 2852TIP3    H129971   5.076   3.107  11.814  0.4213  0.5742 -1.2311
 2852TIP3    H229972   5.066   3.249  11.763  0.9433  1.5828  1.3802
 2853TIP3   OH229973   2.681   0.333   0.855  0.0307  0.5406  0.2098
 2853TIP3    H129974   2.722   0.323   0.769 -1.9067  0.1103 -0.6788
 2853TIP3    H229975   2.731   0.274   0.912  0.4575 -0.1900 -0.9158
 2854TIP3   OH229976   3.370   6.007  16.543 -0.1391 -0.5074 -0.0325
 2854TIP3    H129977   3.426   5.975  16.614 -1.1982 -0.3614  0.8754
 2854TIP3    H229978   3.344   5.928  16.495 -0.7403 -0.7752  0.7279
 2855TIP3   OH229979   1.397   5.920   4.188 -0.0018  0.4494  0.0553
 2855TIP3    H129980   1.401   6.011   4.219 -1.3033  0.1360  1.2091
 2855TIP3    H229981   1.476   5.879   4.224 -0.3512  0.6650  1.1068
 2856TIP3   OH229982   4.392   4.093  11.638  0.4593 -0.1293  0.0011
 2856TIP3    H129983   4.477   4.136  11.644 -0.0211  0.8025  0.1754
 2856TIP3    H229984   4.408   4.003  11.668  1.5660 -0.2258 -0.8471
 2857TIP3   OH229985   0.057   2.442  12.582 -0.1335 -0.2505  0.5590
 2857TIP3    H129986   0.101   2.381  12.642 -1.3028 -1.4964  0.1780
 2857TIP3    H229987   0.095   2.422  12.496 -0.5041 -0.4293  0.4365
 2858TIP3   OH229988   0.050   0.760  11.293  0.1831 -0.2770  0.4882
 2858TIP3    H129989  -0.015   0.830  11.303 -0.8429 -1.4457  2.1809
 2858TIP3    H229990   0.030   0.721  11.207  1.0968  1.8023 -0.7032
 2859TIP3   OH229991   2.360   4.683   4.150 -0.0279  0.0300  0.2508
 2859TIP3    H129992   2.332   4.775   4.149  0.3920  0.1560 -0.2136
 2859TIP3    H229993   2.284   4.634   4.120 -0.5482  0.1419  1.3532
 2860TIP3   OH229994   3.119   4.984  16.035 -0.3945 -0.4844  0.2659
 2860TIP3    H129995   3.054   4.936  16.086  0.4378 -1.9922 -0.0455
 2860TIP3    H229996   3.144   4.923  15.965 -1.2439  1.3898 -1.7508
 2861TIP3   OH229997   0.557   2.762   5.377  0.0905 -0.2559  0.5233
 2861TIP3    H129998   0.503   2.840   5.364  0.9926  0.5462  1.4595
 2861TIP3    H229999   0.574   2.760   5.471  0.5077 -1.2985  0.4317
 2862TIP3   OH230000   1.107   0.133   0.709  0.6115 -0.2193 -0.5328
 2862TIP3    H130001   1.145   0.081   0.779  0.8209 -0.7601 -1.0378
 2862TIP3    H230002   1.078   0.214   0.751 -0.9233 -1.2930  0.4953
 2863TIP3   OH230003   5.299   5.608   3.369 -0.9043  0.1365  0.2261
 2863TIP3    H130004   5.362   5.641   3.305 -0.8291 -2.8145 -1.3387
 2863TIP3    H230005   5.352   5.575   3.441 -0.8800  1.3487  0.7744
 2864TIP3   OH230006   0.566   6.590   0.232 -0.5672  0.5468  0.0534
 2864TIP3    H130007   0.518   6.632   0.160  0.6763 -0.3071 -1.3114
 2864TIP3    H230008   0.502   6.533   0.274 -1.3014  1.0451 -0.3798
 2865TIP3   OH230009   5.026   2.206  13.724  0.1064  0.0151 -0.0025
 2865TIP3    H130010   4.950   2.202  13.666 -0.1726 -0.2467  0.3727
 2865TIP3    H230011   4.993   2.174  13.808  0.2092  1.4489  0.5972
 2866TIP3   OH230012   0.447   1.623  15.867 -0.3476 -0.6880  0.2127
 2866TIP3    H130013   0.535   1.615  15.829  0.2667 -0.7537  1.6193
 2866TIP3    H230014   0.395   1.560  15.818  0.3775 -0.6110 -0.6753
 2867TIP3   OH230015   0.318   5.212  15.396  0.5035 -0.4971  0.2049
 2867TIP3    H130016   0.384   5.184  15.459  0.8005 -0.0951  0.0779
 2867TIP3    H230017   0.236   5.213  15.445  0.0634 -3.7389 -0.3332
 2868TIP3   OH230018   3.368   2.348  16.595 -0.7017  0.4492  0.9590
 2868TIP3    H130019   3.405   2.436  16.593  0.8166 -0.1819  0.6156
 2868TIP3    H230020   3.331   2.335  16.508 -0.1662  0.4372  0.7313
 2869TIP3   OH230021   3.697   5.581   0.402 -0.4217 -0.0415 -0.2920
 2869TIP3    H130022   3.702   5.657   0.344  1.1491 -0.4338 -0.6786
 2869TIP3    H230023   3.737   5.611   0.484  0.5810 -0.5712 -0.5819
 2870TIP3   OH230024   5.708   1.487  13.306  0.5258 -0.0474 -0.4533
 2870TIP3    H130025   5.718   1.392  13.303 -0.4506 -0.1266 -1.7489
 2870TIP3    H230026   5.778   1.521  13.251 -0.4973 -0.1386 -1.8327
 2871TIP3   OH230027   3.151   4.265   5.949  0.5479 -0.0177  0.0642
 2871TIP3    H130028   3.071   4.285   5.901  0.7932 -1.9936 -1.2228
 2871TIP3    H230029   3.221   4.303   5.896  0.5208  1.3841  0.9990
 2872TIP3   OH230030   3.649   0.575  17.066  0.0357  0.1027 -0.1111
 2872TIP3    H130031   3.595   0.640  17.111 -0.5607 -0.5238  0.0953
 2872TIP3    H230032   3.599   0.551  16.988 -0.5007 -1.2512  0.6184
 2873TIP3   OH230033   0.586   2.452   3.878  0.0188  0.1238 -0.1382
 2873TIP3    H130034   0.501   2.488   3.851 -0.0854 -0.7124 -0.9604
 2873TIP3    H230035   0.587   2.460   3.973 -0.7145  0.7196 -0.1750
 2874TIP3   OH230036   2.398   2.183   3.619  0.5063  0.6828  0.0656
 2874TIP3    H130037   2.477   2.217   3.577  0.6137  0.4637  0.0912
 2874TIP3    H230038   2.340   2.160   3.547  1.1635 -0.8317  0.0086
 2875TIP3   OH230039   0.746   1.063  11.876  0.2765 -0.1516  0.2939
 2875TIP3    H130040   0.684   1.091  11.943  2.3896  0.9561  1.8358
 2875TIP3    H230041   0.832   1.085  11.912  1.5292 -0.8862 -2.1525
 2876TIP3   OH230042   3.291   3.736  13.088 -0.2940  0.4081 -0.5475
 2876TIP3    H130043   3.271   3.691  13.006  0.6116 -0.0645 -0.5185
 2876TIP3    H230044   3.209   3.776  13.114 -1.4868 -2.3963  0.1603
 2877TIP3   OH230045   6.642   4.333  16.269 -0.7501  0.5329  0.7532
 2877TIP3    H130046   6.575   4.306  16.331 -0.2632 -2.4830  0.0540
 2877TIP3    H230047   6.628   4.277  16.192  1.0728  1.4732 -0.3083
 2878TIP3   OH230048   3.356   2.715   2.759 -0.9207 -0.0986  0.4578
 2878TIP3    H130049   3.284   2.725   2.821 -1.0735 -0.2110  0.3005
 2878TIP3    H230050   3.320   2.660   2.689 -0.4450 -0.8235  0.7674
 2879TIP3   OH230051   0.783   3.129   4.136 -0.7110 -0.7892 -0.3829
 2879TIP3    H130052   0.702   3.177   4.149 -0.2453 -0.2180  0.4894
 2879TIP3    H230053   0.783   3.106   4.043 -1.1922  0.4502 -0.7053
 2880TIP3   OH230054   4.345   0.264   1.382 -0.3360  0.3128  0.0230
 2880TIP3    H130055   4.432   0.275   1.342 -0.3250 -0.3358 -0.1341
 2880TIP3    H230056   4.284   0.274   1.308 -0.2871 -1.5042 -0.2788
 2881TIP3   OH230057   4.426   4.250  12.730 -0.4546  0.1103  0.1831
 2881TIP3    H130058   4.458   4.180  12.673  0.1971  1.5797 -1.2604
 2881TIP3    H230059   4.331   4.250  12.716 -0.6363 -1.3818  1.2388
 2882TIP3   OH230060   2.185   3.856  13.723 -0.0660 -0.9774  0.8695
 2882TIP3    H130061   2.091   3.866  13.709 -0.2363 -1.5594  1.5972
 2882TIP3    H230062   2.220   3.945  13.714 -0.8167 -0.6084  1.5158
 2883TIP3   OH230063   2.329   3.184   5.486 -0.4553 -0.0847 -0.0434
 2883TIP3    H130064   2.391   3.256   5.474  0.7916 -0.5048  3.4991
 2883TIP3    H230065   2.265   3.218   5.548 -2.0102 -0.7760 -1.2227
 2884TIP3   OH230066   0.318   2.617   3.842 -0.5685 -0.3457 -0.0405
 2884TIP3    H130067   0.349   2.688   3.786  0.4107  0.0233  0.9525
 2884TIP3    H230068   0.262   2.660   3.907 -3.7562 -1.0888 -2.2117
 2885TIP3   OH230069   1.217   2.996   4.301 -0.1261 -0.5380 -0.2959
 2885TIP3    H130070   1.301   2.951   4.287  0.6509  1.0415 -0.7731
 2885TIP3    H230071   1.211   3.005   4.396  0.3125 -0.5074 -0.2680
 2886TIP3   OH230072   4.004   3.127   0.082 -0.4043  0.2440  0.4669
 2886TIP3    H130073   4.039   3.048   0.041 -1.1766  0.0501  0.1704
 2886TIP3    H230074   4.021   3.116   0.175 -0.9030 -0.4842  0.4750
 2887TIP3   OH230075   0.423   5.642  12.745  0.3690 -0.1642  0.7085
 2887TIP3    H130076   0.439   5.687  12.828 -2.1704 -1.0684  1.7562
 2887TIP3    H230077   0.350   5.582  12.765 -1.4618  0.8491 -2.5899
 2888TIP3   OH230078   4.866   1.668   3.763  0.4787  0.8591  0.5170
 2888TIP3    H130079   4.779   1.634   3.741  0.7268 -0.1852  1.1534
 2888TIP3    H230080   4.900   1.702   3.680 -0.2532  0.6583  0.1275
 2889TIP3   OH230081   0.469   1.856  16.044  0.6280  0.0762  0.0575
 2889TIP3    H130082   0.525   1.918  15.997  0.3997 -0.1108 -0.4693
 2889TIP3    H230083   0.450   1.788  15.979  1.6726 -1.0567  0.8979
 2890TIP3   OH230084   6.540   2.383   2.430 -0.1151 -0.1593 -0.6411
 2890TIP3    H130085   6.520   2.465   2.475 -3.2608 -0.5401 -1.2466
 2890TIP3    H230086   6.620   2.402   2.381 -1.8552  3.2413 -2.3750
 2891TIP3   OH230087   5.385   1.768   5.294  0.5699  0.2085 -0.0128
 2891TIP3    H130088   5.478   1.790   5.296  0.7372 -0.5768  1.8910
 2891TIP3    H230089   5.381   1.681   5.254  0.4322  1.1739 -2.1539
 2892TIP3   OH230090   6.169   0.936   4.140  0.3188  0.3018 -0.5699
 2892TIP3    H130091   6.173   0.961   4.048  0.6950 -0.3129 -0.7248
 2892TIP3    H230092   6.170   0.840   4.139  0.5198  0.2921  0.0789
 2893TIP3   OH230093   3.579   2.256  11.454  0.6332  0.3379  0.4581
 2893TIP3    H130094   3.572   2.347  11.425 -0.2549  0.7354  1.8572
 2893TIP3    H230095   3.655   2.222  11.406  2.1934  2.3801  1.3520
 2894TIP3   OH230096   4.863   1.647  15.756  0.5035  0.2808 -0.2008
 2894TIP3    H130097   4.858   1.626  15.663 -1.4932 -2.1166  0.4012
 2894TIP3    H230098   4.774   1.674  15.780  0.7402 -0.1549  1.2393
 2895TIP3   OH230099   2.087   0.624   3.971 -0.1079 -0.0491  0.1823
 2895TIP3    H130100   2.037   0.542   3.980 -1.0004  0.6505  1.8481
 2895TIP3    H230101   2.054   0.679   4.042  0.3602  1.8227 -1.0410
 2896TIP3   OH230102   6.195   3.394  14.986 -0.7768  0.0973 -0.3824
 2896TIP3    H130103   6.151   3.351  15.060  0.0650 -0.7236 -0.3561
 2896TIP3    H230104   6.268   3.337  14.965 -0.1947  1.0490 -0.9608
 2897TIP3   OH230105   3.992   6.208  14.853  0.0550  0.1735  0.3360
 2897TIP3    H130106   4.066   6.156  14.822 -0.8435 -1.2368  0.5108
 2897TIP3    H230107   3.993   6.197  14.948  0.9324  1.9639  0.5629
 2898TIP3   OH230108   4.566   6.192   3.106  0.4594  0.4716 -0.2439
 2898TIP3    H130109   4.610   6.107   3.106 -0.7502 -0.2505  2.9445
 2898TIP3    H230110   4.492   6.181   3.046 -1.4499 -1.8081  2.3622
 2899TIP3   OH230111   1.305   2.000   5.056  0.4135  0.0698  0.3579
 2899TIP3    H130112   1.337   2.088   5.038  0.2205 -0.2342 -1.6833
 2899TIP3    H230113   1.217   1.999   5.019  0.2919 -0.8854  0.6619
 2900TIP3   OH230114   0.854   4.300  12.816  0.3965  0.6237 -0.3836
 2900TIP3    H130115   0.899   4.248  12.750  1.1376  0.3736  0.3078
 2900TIP3    H230116   0.923   4.333  12.873 -0.3821 -1.0708  1.6158
 2901TIP3   OH230117   6.419   5.364  12.349  0.7460 -0.4313 -0.4997
 2901TIP3    H130118   6.332   5.327  12.365  1.5914 -3.5560 -2.5766
 2901TIP3    H230119   6.473   5.333  12.421  1.0025 -1.6946 -1.2250
 2902TIP3   OH230120   3.207   6.210   3.354  0.3817 -0.0928 -0.1593
 2902TIP3    H130121   3.123   6.234   3.393 -0.0081  0.5289 -1.3527
 2902TIP3    H230122   3.272   6.239   3.419 -0.3420 -1.2963  1.1255
 2903TIP3   OH230123   5.590   4.691  13.857 -0.3001 -0.0837  0.6134
 2903TIP3    H130124   5.641   4.758  13.902  0.3509 -0.1962  0.0469
 2903TIP3    H230125   5.612   4.609  13.901  1.0714 -0.3369 -0.5058
 2904TIP3   OH230126   2.472   1.377  12.389  0.3491 -0.0665  0.1037
 2904TIP3    H130127   2.457   1.456  12.337  1.7969  0.2071  0.0868
 2904TIP3    H230128   2.458   1.305  12.327  0.2057  0.2025 -0.1803
 2905TIP3   OH230129   4.569   3.275   0.292  0.2309  0.0832  0.1363
 2905TIP3    H130130   4.635   3.265   0.361  0.5967  1.1930 -0.0426
 2905TIP3    H230131   4.617   3.262   0.210 -0.1122 -0.7772  0.0695
 2906TIP3   OH230132   6.611   4.590   0.172  0.5657  0.5061 -0.1852
 2906TIP3    H130133   6.673   4.648   0.218 -0.0533  1.0082  0.0150
 2906TIP3    H230134   6.529   4.601   0.219 -0.4894  2.2108 -2.3728
 2907TIP3   OH230135   6.049   1.771   3.493  0.0722  0.3858 -0.1742
 2907TIP3    H130136   6.051   1.798   3.585  0.2948  0.5916 -0.2413
 2907TIP3    H230137   6.131   1.724   3.480 -0.8524 -1.3876  0.2674
 2908TIP3   OH230138   6.333   0.138  16.827 -0.0082  0.2864  0.5467
 2908TIP3    H130139   6.355   0.062  16.774  0.6169  0.5044  0.4915
 2908TIP3    H230140   6.416   0.164  16.868  0.1410  1.9304 -0.7208
 2909TIP3   OH230141   0.696   3.545   5.216 -0.6530 -0.0377  0.4651
 2909TIP3    H130142   0.712   3.599   5.139 -1.1301  1.3930  1.3394
 2909TIP3    H230143   0.780   3.545   5.262 -0.5231 -0.4292  0.2288
 2910TIP3   OH230144   1.660   5.984   4.478  0.1658  0.0714 -0.2247
 2910TIP3    H130145   1.610   5.910   4.444  0.8523 -0.8248  0.6903
 2910TIP3    H230146   1.621   6.002   4.563  0.4178  0.3533 -0.1705
 2911TIP3   OH230147   0.312   4.677   3.715 -0.0784  0.2680 -0.5715
 2911TIP3    H130148   0.390   4.725   3.743  0.4487 -0.3402 -1.0032
 2911TIP3    H230149   0.316   4.678   3.620 -0.6825  0.3607 -0.5976
 2912TIP3   OH230150   0.873   6.312   2.260  0.1720  0.1518  0.1971
 2912TIP3    H130151   0.839   6.334   2.174  0.0007 -0.1084  0.1967
 2912TIP3    H230152   0.834   6.376   2.319  1.5527  1.3351 -0.1543
 2913TIP3   OH230153   4.880   6.415   2.300  0.1756 -0.0042  0.5658
 2913TIP3    H130154   4.834   6.365   2.368 -1.2925  1.2010  0.5001
 2913TIP3    H230155   4.848   6.504   2.310 -0.0547  0.2104 -1.6999
 2914TIP3   OH230156   3.402   0.285  17.071  0.1073 -0.3925  0.6946
 2914TIP3    H130157   3.367   0.288  16.982 -1.5325 -1.0784  1.2925
 2914TIP3    H230158   3.491   0.252  17.060  0.0655 -0.0869 -0.7264
 2915TIP3   OH230159   3.434   1.428  15.325 -0.4391  0.4152 -0.8632
 2915TIP3    H130160   3.480   1.419  15.408  0.1704  2.1768 -1.0105
 2915TIP3    H230161   3.485   1.375  15.263  0.2859  0.8053 -0.5964
 2916TIP3   OH230162   2.454   5.322  14.027 -0.3361 -0.7977 -0.2177
 2916TIP3    H130163   2.522   5.367  14.077  1.1269 -0.6820 -2.2703
 2916TIP3    H230164   2.482   5.230  14.025 -0.3434 -0.7889 -0.8836
 2917TIP3   OH230165   2.192   5.043  11.964  0.3552 -0.5749  0.3100
 2917TIP3    H130166   2.117   4.986  11.982  0.8301 -0.9293  1.2313
 2917TIP3    H230167   2.242   5.042  12.046  1.7875 -1.0029 -0.5673
 2918TIP3   OH230168   4.419   4.623   0.597 -0.4361 -0.5121 -0.0749
 2918TIP3    H130169   4.328   4.595   0.585 -0.7047  0.1476  0.4213
 2918TIP3    H230170   4.441   4.599   0.686 -0.0259 -0.9340 -0.2883
 2919TIP3   OH230171   2.291   2.084   3.879 -0.1661 -0.2338 -0.4683
 2919TIP3    H130172   2.207   2.040   3.863  1.4683 -4.8435  2.4558
 2919TIP3    H230173   2.345   2.061   3.803 -1.2909  2.3271 -2.1108
 2920TIP3   OH230174   4.159   6.242   3.943  0.4153  1.0854 -0.1673
 2920TIP3    H130175   4.116   6.196   4.015 -1.8635 -1.1705 -2.7800
 2920TIP3    H230176   4.093   6.304   3.912  0.0608 -0.3053 -2.3348
 2921TIP3   OH230177   1.836   1.787   1.864  0.0001  0.2045 -0.1365
 2921TIP3    H130178   1.862   1.714   1.807 -0.2373  0.3680 -0.4509
 2921TIP3    H230179   1.772   1.836   1.813 -0.2356  0.3352  0.2832
 2922TIP3   OH230180   0.999   3.129   5.605 -0.1217 -0.2093 -0.1747
 2922TIP3    H130181   1.035   3.141   5.518  1.6395 -4.2002 -0.1459
 2922TIP3    H230182   1.076   3.118   5.662 -1.2479 -1.0096  1.2586
 2923TIP3   OH230183   5.608   0.910  11.261  0.0772  0.0642 -0.1901
 2923TIP3    H130184   5.572   0.884  11.346 -1.0189  1.5438 -0.1776
 2923TIP3    H230185   5.703   0.903  11.271 -0.1523 -3.2993 -0.0069
 2924TIP3   OH230186   2.742   4.634  16.305 -0.1213  0.0962 -0.3679
 2924TIP3    H130187   2.702   4.595  16.383 -0.4236 -1.9544 -1.5265
 2924TIP3    H230188   2.685   4.607  16.233  0.4627  1.5293 -1.3738
 2925TIP3   OH230189   0.002   0.460   1.848 -0.1967 -0.5839  0.1770
 2925TIP3    H130190   0.093   0.442   1.824  0.0572  1.1081 -0.1731
 2925TIP3    H230191  -0.003   0.438   1.941  0.5953 -0.5986  0.2168
 2926TIP3   OH230192   3.351   3.570  15.134 -0.2126  0.2230  0.4727
 2926TIP3    H130193   3.315   3.600  15.218  1.6970  0.2612  1.3026
 2926TIP3    H230194   3.274   3.541  15.085 -1.2063 -1.7391  3.0177
 2927TIP3   OH230195   0.836   0.628   2.383 -0.0011  0.9434 -0.3428
 2927TIP3    H130196   0.891   0.705   2.367  0.3109  0.2398 -2.8495
 2927TIP3    H230197   0.747   0.657   2.362 -0.1806  1.1725  0.6781
 2928TIP3   OH230198   3.870   0.940   5.029  0.0246 -0.4182 -0.0988
 2928TIP3    H130199   3.857   1.032   5.005 -1.8704 -0.6276 -0.0061
 2928TIP3    H230200   3.926   0.904   4.961  0.1749  0.6300 -0.5313
 2929TIP3   OH230201   0.786   1.336  12.911 -0.4398  0.2419 -0.6949
 2929TIP3    H130202   0.853   1.401  12.931 -0.6332  0.8507 -1.9653
 2929TIP3    H230203   0.707   1.370  12.952 -0.2951  0.2167 -0.3865
 2930TIP3   OH230204   0.119   4.020   5.017  0.0793 -0.3014  0.5765
 2930TIP3    H130205   0.156   3.990   5.099  2.3011 -0.8492 -0.5958
 2930TIP3    H230206   0.194   4.029   4.958 -1.4463  0.1691 -1.3587
 2931TIP3   OH230207   1.593   4.758   6.140 -0.1551 -0.0831  0.3097
 2931TIP3    H130208   1.515   4.813   6.133 -0.8727 -0.8473  1.9264
 2931TIP3    H230209   1.587   4.720   6.227  3.0855  1.3695  1.2159
 2932TIP3   OH230210   3.781   1.655  12.481 -0.0654  0.0650  0.0863
 2932TIP3    H130211   3.753   1.637  12.391 -0.6942  0.5992  0.1721
 2932TIP3    H230212   3.720   1.722  12.512  0.1041 -0.1717  0.9356
 2933TIP3   OH230213   4.024   6.366  12.623 -0.6215  0.3811  0.0932
 2933TIP3    H130214   4.031   6.461  12.627 -1.0048  0.5053 -1.8659
 2933TIP3    H230215   4.115   6.335  12.625 -0.5021  0.7679  0.8824
 2934TIP3   OH230216   3.542   5.890  13.803  0.6444  0.2959 -0.1121
 2934TIP3    H130217   3.600   5.902  13.727 -1.0703 -0.3357 -1.5493
 2934TIP3    H230218   3.454   5.894  13.766 -0.2198  0.2325  1.9104
 2935TIP3   OH230219   1.522   5.857   5.829 -0.8038  0.3797  0.1363
 2935TIP3    H130220   1.611   5.893   5.834  0.0183 -1.6911  0.7529
 2935TIP3    H230221   1.517   5.820   5.741 -0.7249 -0.3573  0.4435
 2936TIP3   OH230222   4.625   5.424  14.745 -0.1291 -0.0485 -0.1819
 2936TIP3    H130223   4.592   5.464  14.825  0.8135 -0.4792  0.4278
 2936TIP3    H230224   4.595   5.483  14.675 -0.6312  0.5306  0.5123
 2937TIP3   OH230225   6.605   2.731   2.140 -0.0855  0.0989  0.2589
 2937TIP3    H130226   6.575   2.723   2.230 -1.6040 -0.4547 -0.2715
 2937TIP3    H230227   6.612   2.640   2.109  1.1521  0.2583  0.0409
 2938TIP3   OH230228   1.439   2.654   1.424 -0.1117 -0.1498  0.1833
 2938TIP3    H130229   1.434   2.749   1.435 -1.7467 -0.3021  0.9248
 2938TIP3    H230230   1.405   2.619   1.506  0.0851 -1.3785 -0.2533
 2939TIP3   OH230231   6.014   4.211  12.990 -0.8794  0.0109 -0.1281
 2939TIP3    H130232   5.944   4.147  12.976 -0.3459 -1.0388  1.7961
 2939TIP3    H230233   6.094   4.158  12.995 -0.2812  0.9453  0.3141
 2940TIP3   OH230234   4.669   1.746   5.436  0.0305  0.4550 -0.1795
 2940TIP3    H130235   4.665   1.672   5.375 -0.6988  1.3795 -1.2907
 2940TIP3    H230236   4.710   1.816   5.384 -1.4700  1.5453  0.0804
 2941TIP3   OH230237   2.098   3.289  15.138 -0.5219 -0.3376  0.4168
 2941TIP3    H130238   2.179   3.266  15.094 -0.9052  1.3230 -1.2102
 2941TIP3    H230239   2.042   3.211  15.130  0.3011 -0.8997  0.1364
 2942TIP3   OH230240   4.261   2.563  12.940  0.3980 -0.1711  0.1255
 2942TIP3    H130241   4.196   2.567  12.870 -2.4404  0.7947  2.7510
 2942TIP3    H230242   4.312   2.644  12.929  2.4936 -1.7967 -3.0678
 2943TIP3   OH230243   3.457   1.805   3.361 -0.2399 -0.8307  0.3855
 2943TIP3    H130244   3.422   1.734   3.308  0.0825 -0.2657 -0.5896
 2943TIP3    H230245   3.526   1.844   3.307 -0.8513  0.6239  0.6453
 2944TIP3   OH230246   3.001   2.883   3.209  0.1787  0.6893 -0.1728
 2944TIP3    H130247   3.097   2.879   3.207  0.1073 -0.9505 -2.1120
 2944TIP3    H230248   2.981   2.976   3.223  2.0387  0.8355  1.7165
 2945TIP3   OH230249   3.473   2.022   3.527 -0.1489 -0.2084  0.1126
 2945TIP3    H130250   3.565   2.022   3.553  0.9675  1.0447 -3.4144
 2945TIP3    H230251   3.466   1.949   3.465 -1.1368  0.5836 -0.7264
 2946TIP3   OH230252   6.738   4.732  15.052  0.0051  0.1980 -0.6530
 2946TIP3    H130253   6.793   4.709  15.127 -0.8147 -1.6576 -0.5842
 2946TIP3    H230254   6.747   4.827  15.044  0.7759  0.3161  1.2574
 2947TIP3   OH230255   2.145   5.214  13.846  0.4255 -0.0819  0.0012
 2947TIP3    H130256   2.208   5.171  13.903  1.6734  0.6436 -0.8051
 2947TIP3    H230257   2.193   5.228  13.764 -0.1576  2.2362  0.0300
 2948TIP3   OH230258   1.736   4.699  15.923 -0.1965  0.1422 -0.6280
 2948TIP3    H130259   1.805   4.651  15.968  0.2476  0.8379 -0.5657
 2948TIP3    H230260   1.726   4.780  15.973 -2.0857 -0.5908  0.2582
 2949TIP3   OH230261   1.342   4.035  17.197  0.9126  0.0815  0.1394
 2949TIP3    H130262   1.297   4.048  17.114  2.1559  1.0229 -0.3956
 2949TIP3    H230263   1.432   4.063  17.181  1.0375  0.8050  1.9605
 2950TIP3   OH230264   2.333   4.090  15.969  0.1138  0.4034  0.0231
 2950TIP3    H130265   2.282   4.053  16.042  3.4707  0.6689  2.6449
 2950TIP3    H230266   2.337   4.184  15.988  1.8372  0.3343  0.0709
 2951TIP3   OH230267   3.269   0.145   4.183  0.5002  0.2010  0.1495
 2951TIP3    H130268   3.296   0.108   4.099  2.1059 -0.0553  0.7710
 2951TIP3    H230269   3.336   0.117   4.245 -0.5284  0.6064  1.4821
 2952TIP3   OH230270   5.648   5.224   4.891 -0.6765  0.0037  0.7919
 2952TIP3    H130271   5.647   5.210   4.797  1.5643 -1.6601  0.9748
 2952TIP3    H230272   5.693   5.307   4.903  2.4548 -1.6076  0.5399
 2953TIP3   OH230273   3.242   3.968  16.155  0.9422 -0.4844  0.6348
 2953TIP3    H130274   3.272   4.017  16.078  1.7084 -1.0391  0.5737
 2953TIP3    H230275   3.284   3.882  16.147 -1.6717 -1.7433 -0.1109
 2954TIP3   OH230276   6.469   3.497  12.366 -0.2131  0.0945 -0.3305
 2954TIP3    H130277   6.392   3.447  12.392 -0.1194  0.6447  1.0558
 2954TIP3    H230278   6.542   3.437  12.379 -0.3740 -0.4131 -1.6046
 2955TIP3   OH230279   4.615   5.195  12.909 -0.1412 -0.2405 -0.5767
 2955TIP3    H130280   4.541   5.145  12.947 -1.0214  1.5164  0.0794
 2955TIP3    H230281   4.687   5.179  12.970 -0.4768 -0.5664 -0.2540
 2956TIP3   OH230282   2.321   2.573  16.307 -0.3020  0.0307 -0.2816
 2956TIP3    H130283   2.280   2.582  16.393  1.9302 -5.6234  1.6048
 2956TIP3    H230284   2.255   2.529  16.254  0.3456 -1.8817  0.4246
 2957TIP3   OH230285   0.003   2.302  15.102  0.2429 -0.1705  0.3251
 2957TIP3    H130286  -0.050   2.357  15.159  1.1256 -0.3259  1.3151
 2957TIP3    H230287   0.042   2.237  15.161  1.6123  0.0091 -0.3621
 2958TIP3   OH230288   6.506   1.309  14.877  0.2438  0.1975  0.0904
 2958TIP3    H130289   6.478   1.381  14.821 -1.2077  0.8674  1.6187
 2958TIP3    H230290   6.593   1.285  14.846 -0.3635  0.8437 -2.1440
 2959TIP3   OH230291   0.917   1.227   2.698 -0.3648  0.4892  0.6430
 2959TIP3    H130292   0.886   1.316   2.717 -0.8462  0.8637 -1.7689
 2959TIP3    H230293   1.004   1.240   2.661 -1.0355  0.0674 -1.0941
 2960TIP3   OH230294   1.434   0.988   0.909 -0.3176  0.4567 -0.4332
 2960TIP3    H130295   1.368   0.976   0.977  0.3972  0.8244  0.3207
 2960TIP3    H230296   1.385   1.025   0.835 -1.1284 -0.1233 -0.1922
 2961TIP3   OH230297   5.654   2.786   1.395  0.1654 -0.2821  0.2231
 2961TIP3    H130298   5.685   2.831   1.473  0.5062  2.6897 -1.5467
 2961TIP3    H230299   5.559   2.795   1.398  0.2885  1.7175 -0.7186
 2962TIP3   OH230300   5.276   5.119   5.837  0.0730 -0.0614  0.1066
 2962TIP3    H130301   5.284   5.039   5.785 -0.9126 -0.8269  1.1157
 2962TIP3    H230302   5.357   5.166   5.820  0.6835 -1.2896 -0.4806
 2963TIP3   OH230303   0.115   2.121  13.318  0.1812  0.2484  0.9916
 2963TIP3    H130304   0.030   2.086  13.345  0.4411 -0.2224  1.2011
 2963TIP3    H230305   0.174   2.101  13.391  1.1788 -2.1849 -0.4211
 2964TIP3   OH230306   3.402   5.401   0.456 -0.1663 -0.2503  0.0498
 2964TIP3    H130307   3.339   5.331   0.439  0.0616 -0.4825  0.1617
 2964TIP3    H230308   3.458   5.366   0.525  0.8711 -0.5309 -0.9348
 2965TIP3   OH230309   5.560   6.140  11.323  0.5431 -0.2634 -0.9408
 2965TIP3    H130310   5.473   6.157  11.286  0.2750 -0.6270 -0.4884
 2965TIP3    H230311   5.599   6.076  11.264  0.8389  0.5326 -1.6185
 2966TIP3   OH230312   2.834   2.297  13.365 -0.1398 -0.4038 -0.2287
 2966TIP3    H130313   2.752   2.250  13.349 -1.3401  0.7282  2.2596
 2966TIP3    H230314   2.841   2.357  13.290 -1.9038 -0.1322 -0.2157
 2967TIP3   OH230315   5.998   0.923   4.511  0.4793  0.3544  0.5411
 2967TIP3    H130316   5.946   0.973   4.449  1.5758 -0.6409 -1.2102
 2967TIP3    H230317   6.086   0.921   4.473  0.6599 -2.1549  1.0051
 2968TIP3   OH230318   5.626   2.928  10.761 -0.2317  0.2364  0.2944
 2968TIP3    H130319   5.627   2.835  10.739 -1.8251  0.3939 -0.5591
 2968TIP3    H230320   5.550   2.937  10.819 -0.2460  1.0551  0.1470
 2969TIP3   OH230321   2.547   0.559   4.473 -0.0023 -0.6572 -0.1706
 2969TIP3    H130322   2.544   0.606   4.556 -0.3650  0.8641 -1.0224
 2969TIP3    H230323   2.640   0.545   4.455  0.1059 -0.1857  0.0394
 2970TIP3   OH230324   3.892   6.648  11.297 -0.7375  0.3597 -0.7577
 2970TIP3    H130325   3.860   6.732  11.329  1.0944  0.9614 -0.4567
 2970TIP3    H230326   3.868   6.647  11.205  0.0514  1.6419 -0.9911
 2971TIP3   OH230327   5.033   5.461   2.337  0.2479  0.3134  0.2363
 2971TIP3    H130328   5.123   5.458   2.302  0.1905 -0.4675  0.1490
 2971TIP3    H230329   4.993   5.380   2.306  0.1199 -0.2899  1.9391
 2972TIP3   OH230330   3.582   1.642  14.456 -0.0866 -0.0449  0.3494
 2972TIP3    H130331   3.584   1.548  14.477  0.6628  0.0819  0.8813
 2972TIP3    H230332   3.520   1.649  14.383 -0.6587 -0.8628  0.7479
 2973TIP3   OH230333   2.006   0.552   5.103 -0.0410 -0.2581 -0.0730
 2973TIP3    H130334   2.095   0.519   5.099  0.0394 -0.4122  2.3886
 2973TIP3    H230335   1.951   0.478   5.077  0.4714 -0.5165 -0.4244
 2974TIP3   OH230336   1.250   4.208  10.519 -0.2220  0.3527  0.6570
 2974TIP3    H130337   1.315   4.268  10.481 -0.8549 -0.7692 -2.3762
 2974TIP3    H230338   1.167   4.253  10.508 -0.7296 -1.0457 -1.8371
 2975TIP3   OH230339   4.688   5.769  14.117 -0.4347 -0.2755  0.6798
 2975TIP3    H130340   4.700   5.797  14.027 -1.9618 -1.2263  0.1672
 2975TIP3    H230341   4.759   5.707  14.132  0.7625  1.0616  0.6565
 2976TIP3   OH230342   1.247   1.264  12.206  0.4222 -0.5787 -0.9445
 2976TIP3    H130343   1.279   1.336  12.260 -1.1823  0.3529 -1.2056
 2976TIP3    H230344   1.325   1.213  12.184  1.5397  0.9521 -0.5580
 2977TIP3   OH230345   0.754   2.907  13.496  0.0575 -0.3293  0.0531
 2977TIP3    H130346   0.757   2.987  13.548 -0.2158 -0.0886 -0.2974
 2977TIP3    H230347   0.846   2.883  13.484  0.1568  0.1312 -0.1392
 2978TIP3   OH230348   0.616   6.382   4.983  0.1221  0.0660  0.4100
 2978TIP3    H130349   0.528   6.374   4.946  0.1253 -0.0369  0.4241
 2978TIP3    H230350   0.607   6.447   5.053 -1.0784 -3.6885  3.9221
 2979TIP3   OH230351   5.541   3.670   5.528 -0.3661 -0.6544 -0.1774
 2979TIP3    H130352   5.621   3.647   5.481 -0.1935 -1.4757  0.4992
 2979TIP3    H230353   5.557   3.759   5.560  0.4742 -0.9988  0.3670
 2980TIP3   OH230354   0.492   5.610   6.764 -0.2735  0.0513  0.7392
 2980TIP3    H130355   0.559   5.670   6.794 -0.3885  0.7407 -0.3587
 2980TIP3    H230356   0.521   5.583   6.677 -0.2133 -1.5030  1.2313
 2981TIP3   OH230357   4.647   0.216   3.978 -0.0011 -0.1337 -0.8192
 2981TIP3    H130358   4.682   0.137   4.020  0.4212 -0.1022 -1.1092
 2981TIP3    H230359   4.610   0.185   3.896  1.9738  0.2517 -1.8857
 2982TIP3   OH230360   2.288   1.137  17.006  0.3344 -0.3948 -0.4040
 2982TIP3    H130361   2.237   1.137  16.925 -1.9566 -3.1630  0.9684
 2982TIP3    H230362   2.322   1.227  17.012 -0.3569  0.1906 -3.8273
 2983TIP3   OH230363   1.859   3.344  13.012  0.0025 -0.4666 -0.0771
 2983TIP3    H130364   1.930   3.297  13.055  1.0745  0.3786 -0.8796
 2983TIP3    H230365   1.824   3.402  13.080  1.0862  0.2008 -0.0695
 2984TIP3   OH230366   3.587   2.050   4.473  0.3740 -0.4981 -0.3472
 2984TIP3    H130367   3.579   1.965   4.430 -1.9030 -0.7707  0.5449
 2984TIP3    H230368   3.570   2.114   4.403 -0.6287 -0.8524 -0.4261
 2985TIP3   OH230369   5.542   4.940   4.414  0.1982 -0.4051 -0.1698
 2985TIP3    H130370   5.513   4.878   4.348  0.1627  0.2048 -0.7270
 2985TIP3    H230371   5.615   4.896   4.458 -0.7105 -1.3993  0.3600
 2986TIP3   OH230372   1.077   4.543  15.930 -0.6746 -0.5553  0.3516
 2986TIP3    H130373   1.027   4.593  15.994 -1.6292 -4.5140  2.8490
 2986TIP3    H230374   1.015   4.524  15.859 -0.6167  0.7967 -0.0653
 2987TIP3   OH230375   2.958   1.863  14.724 -0.0759 -0.0725 -0.7065
 2987TIP3    H130376   2.974   1.888  14.633  0.0365 -0.7770 -0.8853
 2987TIP3    H230377   2.988   1.938  14.775  3.5962 -1.2128 -1.0437
 2988TIP3   OH230378   1.514   6.747   5.107  0.2219  0.2713  0.1584
 2988TIP3    H130379   1.474   6.753   5.193 -0.0609 -0.6796  0.0995
 2988TIP3    H230380   1.572   6.671   5.112 -1.1355 -0.8881 -1.0055
 2989TIP3   OH230381   4.037   3.580   5.002 -0.0655 -0.3686 -0.1313
 2989TIP3    H130382   4.104   3.649   5.001 -1.1527  0.7922  2.4982
 2989TIP3    H230383   3.992   3.590   4.918  0.8301  1.1183 -0.4633
 2990TIP3   OH230384   4.590   4.878  13.230  0.2531  0.2819 -0.4420
 2990TIP3    H130385   4.629   4.965  13.223  0.3633  0.3717  0.9783
 2990TIP3    H230386   4.555   4.860  13.143  2.8195  0.5100 -1.5553
 2991TIP3   OH230387   1.119   1.063  16.186  0.3870 -0.2025 -0.7024
 2991TIP3    H130388   1.162   1.148  16.179  0.5740 -0.1322  1.0804
 2991TIP3    H230389   1.182   1.001  16.148  1.2744  0.1540  0.1690
 2992TIP3   OH230390   2.868   5.328   1.123  0.5024  0.1464  0.0440
 2992TIP3    H130391   2.789   5.372   1.154  0.4961  1.1011 -1.2452
 2992TIP3    H230392   2.861   5.239   1.155 -1.7731 -0.1660 -1.1834
 2993TIP3   OH230393   2.189   3.754  16.625 -0.2465  0.2128  0.0669
 2993TIP3    H130394   2.182   3.841  16.666  1.2114 -0.7379  2.4079
 2993TIP3    H230395   2.100   3.719  16.628 -1.0978  2.0242 -1.9449
 2994TIP3   OH230396   4.625   0.534   3.897 -0.7585 -0.6523  0.0899
 2994TIP3    H130397   4.623   0.460   3.958 -1.0173  0.4333  1.3950
 2994TIP3    H230398   4.543   0.526   3.848 -0.4747 -1.6142 -0.2528
 2995TIP3   OH230399   5.335   1.032  12.996  0.3373  0.0873 -0.3843
 2995TIP3    H130400   5.352   0.951  13.044  0.0292 -0.2242 -0.8052
 2995TIP3    H230401   5.389   1.098  13.041  1.6689 -0.6287 -0.9053
 2996TIP3   OH230402   1.355   0.289   3.095 -0.3271 -0.1270 -0.3141
 2996TIP3    H130403   1.438   0.245   3.075 -0.9459 -0.7949 -1.4662
 2996TIP3    H230404   1.370   0.380   3.068 -0.6869 -0.7218 -2.6210
 2997TIP3   OH230405   3.994   1.112  14.020  0.4342 -0.5101  0.0830
 2997TIP3    H130406   4.028   1.123  13.931  0.3839  1.4035  0.2759
 2997TIP3    H230407   3.934   1.186  14.032  0.3655 -0.8088  1.6678
 2998TIP3   OH230408   0.703   0.609   3.638  0.7165  0.1197 -0.4498
 2998TIP3    H130409   0.672   0.695   3.611 -0.6683 -1.0028 -2.5728
 2998TIP3    H230410   0.786   0.598   3.590  0.8693  0.2371 -0.2150
 2999TIP3   OH230411   6.197   2.627  11.132 -0.2533  0.0028 -0.1329
 2999TIP3    H130412   6.222   2.543  11.094  0.4808 -0.2205  0.8295
 2999TIP3    H230413   6.232   2.692  11.071  0.5266 -0.3679 -0.0907
 3000TIP3   OH230414   4.936   5.048  13.158 -0.6590 -0.3118 -0.2485
 3000TIP3    H130415   4.934   4.973  13.099 -1.0172 -0.2106 -0.3680
 3000TIP3    H230416   4.987   5.018  13.233 -2.4970 -1.3596  0.6085
 3001TIP3   OH230417   6.749   2.759  15.554 -0.5667  0.0233 -0.0502
 3001TIP3    H130418   6.687   2.722  15.490 -0.3281 -0.4199 -0.0281
 3001TIP3    H230419   6.834   2.752  15.510 -0.4566  0.0789  0.1589
 3002TIP3   OH230420   2.280   4.671  12.445  0.3512  0.3316  0.5392
 3002TIP3    H130421   2.350   4.724  12.484  1.0364 -0.9329  1.0721
 3002TIP3    H230422   2.268   4.598  12.507 -0.9915  0.1956  0.1267
 3003TIP3   OH230423   1.311   3.106  13.155  1.0449 -0.5355  0.6281
 3003TIP3    H130424   1.301   3.039  13.087  0.2444 -0.6784  0.8867
 3003TIP3    H230425   1.279   3.186  13.115  0.0679 -0.7262  1.0053
 3004TIP3   OH230426   2.289   2.230  11.301  0.7088  0.3247  0.4159
 3004TIP3    H130427   2.352   2.167  11.334  1.3524  0.7475  0.0022
 3004TIP3    H230428   2.270   2.201  11.212 -0.9473 -0.7543  1.0933
 3005TIP3   OH230429   2.750   3.969  13.669 -0.1231  0.0624 -0.0011
 3005TIP3    H130430   2.771   4.062  13.678 -0.1088  0.2728 -1.8376
 3005TIP3    H230431   2.832   3.924  13.688  0.0078  0.4594  0.3696
 3006TIP3   OH230432   1.798   6.579   4.276  0.1056  0.1945  0.2270
 3006TIP3    H130433   1.801   6.502   4.220  0.4581  0.6874 -0.4280
 3006TIP3    H230434   1.855   6.557   4.350  0.6463  0.0507 -0.2326
 3007TIP3   OH230435   1.857   3.895   2.347  0.2191 -0.0881 -0.2204
 3007TIP3    H130436   1.818   3.830   2.288  1.2123 -1.7362  0.8844
 3007TIP3    H230437   1.783   3.939   2.388 -0.5425 -2.9436  1.6135
 3008TIP3   OH230438   1.041   5.622  16.007  0.0370  0.1498  0.4970
 3008TIP3    H130439   1.133   5.644  16.021 -0.0742  0.5105  0.6706
 3008TIP3    H230440   0.995   5.706  16.015 -0.3193 -0.0499  0.5358
 3009TIP3   OH230441   2.213   3.447  13.041 -0.1979 -0.1479 -0.4743
 3009TIP3    H130442   2.159   3.468  13.118  0.4228 -1.2292  0.2657
 3009TIP3    H230443   2.194   3.355  13.023  0.9641 -0.3733 -0.5711
 3010TIP3   OH230444   4.302   4.437  13.346  0.0522  0.8194  0.1404
 3010TIP3    H130445   4.249   4.511  13.317  1.1813  0.9280 -1.7621
 3010TIP3    H230446   4.386   4.475  13.371  0.1049  0.3706  0.6472
 3011TIP3   OH230447   1.194   0.635   6.320 -0.2812 -0.3222 -0.6083
 3011TIP3    H130448   1.161   0.547   6.302  0.0468 -0.2697 -1.5038
 3011TIP3    H230449   1.243   0.659   6.241 -0.7631  0.8493 -0.5705
 3012TIP3   OH230450   3.888   5.573   5.492 -0.4532  0.0341 -0.3011
 3012TIP3    H130451   3.956   5.627   5.533  1.1690 -2.1360 -0.0450
 3012TIP3    H230452   3.879   5.608   5.404  0.2523  0.9905 -0.0065
 3013TIP3   OH230453   6.561   5.869   2.303  0.1086  0.0177 -0.3277
 3013TIP3    H130454   6.624   5.803   2.332  1.0841  0.7744 -0.6854
 3013TIP3    H230455   6.614   5.947   2.286 -0.5787 -0.0577 -3.0230
 3014TIP3   OH230456   0.304   0.349   1.516  0.1167 -0.0780  0.2840
 3014TIP3    H130457   0.218   0.385   1.494 -0.2179  0.2156  1.9864
 3014TIP3    H230458   0.284   0.267   1.562  0.7921 -0.7983 -0.6868
 3015TIP3   OH230459   2.889   3.833   1.458  0.7166  0.2146  0.7419
 3015TIP3    H130460   2.802   3.841   1.498 -0.8590 -1.3640 -2.1581
 3015TIP3    H230461   2.882   3.882   1.376  1.8500 -1.7465 -0.5670
 3016TIP3   OH230462   2.158   0.625  15.923 -0.0907 -0.2025  0.4783
 3016TIP3    H130463   2.168   0.589  16.012 -2.1804  0.4366  1.0006
 3016TIP3    H230464   2.064   0.633  15.911  0.2017  0.4726 -1.5167
 3017TIP3   OH230465   3.590   4.510   4.027  0.1034  0.0491 -0.5540
 3017TIP3    H130466   3.671   4.501   4.078 -0.7864 -0.6398  0.7523
 3017TIP3    H230467   3.611   4.468   3.943  0.9226 -0.6198 -0.0272
 3018TIP3   OH230468   2.108   2.393   4.052 -0.7273 -0.6765 -0.0834
 3018TIP3    H130469   2.044   2.355   3.992 -0.3533  1.0483 -1.6111
 3018TIP3    H230470   2.055   2.440   4.117 -1.0661 -0.9006 -0.1947
 3019TIP3   OH230471   5.991   4.326  12.394 -1.0778  0.2509 -0.1036
 3019TIP3    H130472   5.940   4.246  12.405  0.1889 -0.7763 -1.4581
 3019TIP3    H230473   6.080   4.302  12.419 -0.4095  0.8591 -1.8159
 3020TIP3   OH230474   6.407   5.934  13.031 -0.5263 -0.6003  0.6093
 3020TIP3    H130475   6.492   5.958  12.995 -0.1704 -1.5165  0.8327
 3020TIP3    H230476   6.349   6.006  13.006 -0.1712 -0.9570 -1.3032
 3021TIP3   OH230477   4.573   1.134  12.368 -0.8022 -0.4085  0.1691
 3021TIP3    H130478   4.529   1.185  12.300  0.0600  2.4427  1.6890
 3021TIP3    H230479   4.536   1.166  12.450  0.3958 -1.6197  1.2115
 3022TIP3   OH230480   4.368   2.001  17.077 -0.0390  0.6288 -0.0666
 3022TIP3    H130481   4.307   1.964  17.013  0.5858  1.5556 -1.2194
 3022TIP3    H230482   4.338   1.967  17.162 -1.1586 -0.2346 -0.7929
 3023TIP3   OH230483   5.104   5.378   1.155  0.0667  0.2229 -0.4947
 3023TIP3    H130484   5.119   5.445   1.222  1.3823  0.3844 -0.9251
 3023TIP3    H230485   5.156   5.408   1.080 -1.6584  0.2192 -1.7180
 3024TIP3   OH230486   6.108   0.503   4.006  0.2509 -0.4516  0.0094
 3024TIP3    H130487   6.130   0.488   3.914 -1.1143  1.5938 -0.6918
 3024TIP3    H230488   6.187   0.543   4.043  1.4875 -2.9772  0.2535
 3025TIP3   OH230489   5.421   6.282   4.983  0.1710  0.2085 -0.4717
 3025TIP3    H130490   5.345   6.238   5.022  1.3298 -1.0323  0.4341
 3025TIP3    H230491   5.395   6.373   4.974 -1.7868 -0.3884 -1.0803
 3026TIP3   OH230492   5.312   2.901   2.017  0.0219 -0.2527  0.4709
 3026TIP3    H130493   5.402   2.906   1.984  0.5179  1.5264  1.9964
 3026TIP3    H230494   5.267   2.973   1.973 -0.2535 -0.1985  0.8364
 3027TIP3   OH230495   6.183   2.817  10.917  0.1708 -0.1532  0.2745
 3027TIP3    H130496   6.265   2.866  10.917 -1.1924  2.2053  0.5008
 3027TIP3    H230497   6.180   2.776  10.830  1.8022 -0.6808  0.4478
 3028TIP3   OH230498   6.056   1.350   2.618  0.0307  0.1920 -0.4686
 3028TIP3    H130499   6.151   1.345   2.624  0.0839  2.7618  2.0510
 3028TIP3    H230500   6.025   1.262   2.641  1.7520 -0.6658 -1.3555
 3029TIP3   OH230501   2.416   0.177   0.723 -0.1130 -0.0740 -0.1959
 3029TIP3    H130502   2.476   0.241   0.759  1.9770 -0.4548 -2.8362
 3029TIP3    H230503   2.334   0.225   0.712  0.1316  0.8938  1.9330
 3030TIP3   OH230504   4.485   5.212  14.437  0.0210  0.1618 -0.0847
 3030TIP3    H130505   4.557   5.154  14.412  1.8168  3.0215 -1.7914
 3030TIP3    H230506   4.482   5.278  14.368 -2.4290  1.7000  1.4243
 3031TIP3   OH230507   3.714   2.558  15.290 -0.2177  0.1368 -0.2371
 3031TIP3    H130508   3.763   2.526  15.365 -0.2875  1.1864  0.2530
 3031TIP3    H230509   3.651   2.620  15.326 -0.1917  0.7216 -1.1628
 3032TIP3   OH230510   0.717   0.825  11.747 -0.1521  0.2319 -0.3788
 3032TIP3    H130511   0.765   0.857  11.670 -1.8717  0.7449 -1.2489
 3032TIP3    H230512   0.721   0.897  11.810  0.3954  0.1976 -0.3744
 3033TIP3   OH230513   2.763   5.507   1.879 -0.7893  0.1497 -0.1113
 3033TIP3    H130514   2.751   5.442   1.809 -2.5232  1.4049 -1.0466
 3033TIP3    H230515   2.787   5.456   1.956  0.3311 -1.3471 -1.4198
 3034TIP3   OH230516   4.107   6.272  15.142  1.0638  0.3021 -0.2849
 3034TIP3    H130517   4.163   6.230  15.207  1.7837 -0.9216 -1.6490
 3034TIP3    H230518   4.168   6.302  15.074  0.4601  2.6483  0.1447
 3035TIP3   OH230519   1.171   3.794  13.259 -0.5166  0.2997 -0.0447
 3035TIP3    H130520   1.226   3.839  13.324  0.8435  1.9089 -2.2270
 3035TIP3    H230521   1.082   3.806  13.291  0.1103  1.2448  1.4147
 3036TIP3   OH230522   5.823   5.468   4.954 -0.4271 -0.1153  0.0316
 3036TIP3    H130523   5.854   5.492   5.042 -0.6613 -1.1174  0.3966
 3036TIP3    H230524   5.781   5.548   4.921  0.3230  0.4979  0.5239
 3037TIP3   OH230525   6.197   0.464   1.666  0.1746  0.1958 -0.2564
 3037TIP3    H130526   6.165   0.377   1.642  0.7996 -0.7584  2.2466
 3037TIP3    H230527   6.123   0.522   1.650 -2.4066 -1.7187  3.8182
 3038TIP3   OH230528   3.219   4.897   2.800  0.1806  0.0620  0.2185
 3038TIP3    H130529   3.179   4.811   2.814  1.2312 -0.4052  0.3799
 3038TIP3    H230530   3.305   4.891   2.841 -0.2162  1.6124  1.3343
 3039TIP3   OH230531   0.864   4.175   2.084 -0.0796 -0.6055 -0.5427
 3039TIP3    H130532   0.790   4.222   2.122  1.0552 -0.2079  1.2083
 3039TIP3    H230533   0.882   4.221   2.002 -1.8643 -0.8010 -1.0476
 3040TIP3   OH230534   6.228   5.076  15.655 -0.7871  0.0426  0.5625
 3040TIP3    H130535   6.211   5.009  15.721 -0.3311 -1.1260 -0.4912
 3040TIP3    H230536   6.142   5.096  15.619 -0.5526 -2.5932 -1.6110
 3041TIP3   OH230537   5.976   5.896   3.345  0.3903  0.3226 -0.5746
 3041TIP3    H130538   6.029   5.936   3.414  0.5226  1.0375 -1.0776
 3041TIP3    H230539   6.025   5.913   3.265  0.5250 -0.9953 -0.7861
 3042TIP3   OH230540   2.687   2.931  13.357  0.0042 -0.0147 -0.6070
 3042TIP3    H130541   2.652   2.843  13.340  1.9905 -1.3246  1.6197
 3042TIP3    H230542   2.626   2.969  13.420 -0.6969  0.0735 -1.3408
 3043TIP3   OH230543   1.732   5.975   6.483 -0.6568  0.2825  0.3553
 3043TIP3    H130544   1.653   5.983   6.537 -1.9708  0.0303 -1.4667
 3043TIP3    H230545   1.739   5.882   6.464  1.1418  0.0462  1.9855
 3044TIP3   OH230546   3.851   1.879  15.688 -0.0768  0.3351  0.3701
 3044TIP3    H130547   3.842   1.969  15.718 -0.7779  0.4754 -0.2326
 3044TIP3    H230548   3.769   1.861  15.642  1.0250  0.1829 -1.5680
 3045TIP3   OH230549   1.448   2.415  11.102  0.5487 -0.6411  0.2939
 3045TIP3    H130550   1.461   2.477  11.030  0.4553  1.6432  2.1762
 3045TIP3    H230551   1.531   2.417  11.150  0.3933 -1.6611  0.6050
 3046TIP3   OH230552   5.529   6.571   4.616  0.4260 -0.8280  0.3179
 3046TIP3    H130553   5.473   6.496   4.597 -0.1722 -0.9069  2.2289
 3046TIP3    H230554   5.603   6.534   4.663  1.0562 -0.4596 -0.3909
 3047TIP3   OH230555   1.464   3.273   0.311  1.0978 -0.2148 -0.4178
 3047TIP3    H130556   1.377   3.232   0.307  1.2492 -0.7839  1.3090
 3047TIP3    H230557   1.456   3.352   0.258 -1.3211  1.1929  1.8627
 3048TIP3   OH230558   6.247   2.942   4.099 -0.3995  0.1177  0.5582
 3048TIP3    H130559   6.202   3.011   4.050  0.5024 -1.0213 -1.9528
 3048TIP3    H230560   6.222   2.861   4.055  0.0221 -1.0183  2.3421
 3049TIP3   OH230561   4.045   6.698  14.345 -0.0999  0.4181  0.2746
 3049TIP3    H130562   4.101   6.621  14.356  1.3367  1.6368  1.6257
 3049TIP3    H230563   4.103   6.765  14.309 -0.9709  1.3467  0.5834
 3050TIP3   OH230564   2.022   3.735  16.245  0.1051  0.0747 -0.2306
 3050TIP3    H130565   2.042   3.643  16.260 -2.1223 -0.9598 -3.2326
 3050TIP3    H230566   1.927   3.741  16.254  0.0770  1.8057 -1.4533
 3051TIP3   OH230567   1.307   1.045   4.423 -0.1303  0.6040  0.1038
 3051TIP3    H130568   1.220   1.085   4.420 -0.9809 -1.2447 -0.8444
 3051TIP3    H230569   1.293   0.954   4.397  1.7127 -0.3839  2.3421
 3052TIP3   OH230570   3.184   4.175   2.669  0.1161  0.1293  0.1109
 3052TIP3    H130571   3.131   4.144   2.595  0.4800 -0.9026  0.2674
 3052TIP3    H230572   3.120   4.195   2.737 -0.2361  1.2658 -0.5374
 3053TIP3   OH230573   2.247   3.756  15.754 -0.5930 -0.0410 -0.0329
 3053TIP3    H130574   2.218   3.846  15.770  1.2142  0.8176 -1.3629
 3053TIP3    H230575   2.342   3.759  15.767 -0.3992 -1.5469 -0.9647
 3054TIP3   OH230576   3.469   1.660   0.959  0.0069 -0.0032 -0.4789
 3054TIP3    H130577   3.388   1.699   0.926 -0.0769  0.5084  0.3132
 3054TIP3    H230578   3.510   1.729   1.012  0.2106 -0.7420  0.3566
 3055TIP3   OH230579   5.475   2.207  15.062  0.2509 -0.2585  0.1849
 3055TIP3    H130580   5.513   2.282  15.109 -0.7593  0.2457  0.2246
 3055TIP3    H230581   5.458   2.142  15.131 -0.8645  0.3275  0.4851
 3056TIP3   OH230582   3.438   1.958  13.988 -0.2650  0.2643 -0.1851
 3056TIP3    H130583   3.454   1.950  14.082 -2.0287  0.1549  0.1216
 3056TIP3    H230584   3.343   1.949  13.979 -0.1452  0.6084 -1.9455
 3057TIP3   OH230585   3.359   3.861  15.214  0.5808  0.4001  0.0588
 3057TIP3    H130586   3.344   3.774  15.179 -1.8987  0.3972  1.0119
 3057TIP3    H230587   3.453   3.867  15.226  0.6311 -2.9135  1.9207
 3058TIP3   OH230588   1.445   3.597   5.429  0.3104  0.2089 -0.1716
 3058TIP3    H130589   1.381   3.530   5.454  0.4937 -0.2256 -0.8521
 3058TIP3    H230590   1.529   3.550   5.426  0.7291  0.8571  1.0901
 3059TIP3   OH230591   6.183   4.647   1.873 -0.2016 -0.7096  0.5540
 3059TIP3    H130592   6.093   4.679   1.884  0.3373  0.8704  0.5585
 3059TIP3    H230593   6.217   4.641   1.962  0.4779  1.0682  0.4296
 3060TIP3   OH230594   5.749   0.431  11.357 -0.0086  0.2055  0.5396
 3060TIP3    H130595   5.676   0.420  11.296  0.0836 -1.3680  0.6899
 3060TIP3    H230596   5.772   0.342  11.383  1.9593  0.6933  0.5196
 3061TIP3   OH230597   6.085   4.381   1.506 -0.1155 -0.1549  0.2240
 3061TIP3    H130598   6.042   4.401   1.423  0.2606 -1.8802 -0.4098
 3061TIP3    H230599   6.175   4.414   1.494  0.4679 -2.0128 -0.7715
 3062TIP3   OH230600   3.500   0.808   2.601 -0.5615 -0.4720  0.2444
 3062TIP3    H130601   3.526   0.731   2.652 -0.6538 -1.3821 -1.0467
 3062TIP3    H230602   3.515   0.782   2.510 -1.5026  0.7013 -0.2597
 3063TIP3   OH230603   3.615   5.574  13.793  0.0002 -0.0280  0.3334
 3063TIP3    H130604   3.655   5.489  13.813  0.7798  0.3039  0.1926
 3063TIP3    H230605   3.539   5.552  13.740 -0.6038 -0.7354  1.4643
 3064TIP3   OH230606   2.248   2.614   5.871  0.4478  0.0736 -0.1342
 3064TIP3    H130607   2.168   2.654   5.904  1.2994 -0.1161  2.2158
 3064TIP3    H230608   2.305   2.688   5.850 -0.0818  0.1926 -1.1838
 3065TIP3   OH230609   3.998   6.223   1.029  0.0305 -0.1568 -0.2515
 3065TIP3    H130610   4.073   6.175   1.064  1.3140  1.4806 -0.7059
 3065TIP3    H230611   3.967   6.169   0.956 -1.9646 -3.0249  2.5524
 3066TIP3   OH230612   5.258   6.114   4.377 -0.0093  0.5469  0.2516
 3066TIP3    H130613   5.181   6.117   4.435 -0.1554  0.4845  0.0595
 3066TIP3    H230614   5.273   6.205   4.352 -1.7796  0.2384 -2.0448
 3067TIP3   OH230615   5.029   2.834  16.791 -0.7065  0.5003  0.1265
 3067TIP3    H130616   5.019   2.762  16.728  0.5669 -0.4574  0.9720
 3067TIP3    H230617   4.954   2.826  16.849  0.0493 -0.9317  0.9455
 3068TIP3   OH230618   1.641   3.329   2.185 -0.0152  0.8511 -0.4203
 3068TIP3    H130619   1.549   3.301   2.188  0.1780  0.4004  2.1284
 3068TIP3    H230620   1.673   3.297   2.101 -1.2702 -1.9126  0.1175
 3069TIP3   OH230621   1.751   1.496   4.881 -0.6689 -0.0634 -0.4268
 3069TIP3    H130622   1.786   1.409   4.901  1.7077  0.5372 -1.7294
 3069TIP3    H230623   1.680   1.508   4.943  1.2392 -1.5050  2.1249
 3070TIP3   OH230624   2.914   6.095  12.944  0.0894  0.3537 -0.1767
 3070TIP3    H130625   2.953   6.164  12.998  0.0164  0.9840 -0.9210
 3070TIP3    H230626   2.922   6.127  12.855  0.0199 -0.5959 -0.5271
 3071TIP3   OH230627   0.354   3.672  11.293  0.0521  0.5542  0.3320
 3071TIP3    H130628   0.349   3.724  11.213 -1.2426  1.1503  0.7930
 3071TIP3    H230629   0.271   3.625  11.297  0.8651 -0.9168  0.3738
 3072TIP3   OH230630   2.073   5.291  16.311 -0.8224  0.4885 -0.1410
 3072TIP3    H130631   2.036   5.206  16.335  0.4498  0.0538  0.3364
 3072TIP3    H230632   1.998   5.350  16.306 -1.6585 -0.5587 -0.0040
 3073TIP3   OH230633   5.275   5.522  12.778  0.3317 -0.7072  0.2741
 3073TIP3    H130634   5.239   5.610  12.763 -0.5993 -1.0849  0.2909
 3073TIP3    H230635   5.272   5.480  12.692  3.5831  0.2911 -0.3949
 3074TIP3   OH230636   1.873   2.219  12.323 -0.0296 -0.1892  0.4031
 3074TIP3    H130637   1.944   2.283  12.337  0.1340 -0.3657  0.3819
 3074TIP3    H230638   1.846   2.195  12.412 -0.5387  0.4036  0.4105
 3075TIP3   OH230639   4.419   2.503   1.161 -0.0762 -0.6244 -0.0042
 3075TIP3    H130640   4.386   2.446   1.091  0.3979 -1.3740  0.3825
 3075TIP3    H230641   4.344   2.556   1.186 -0.4433 -0.8718 -0.5643
 3076TIP3   OH230642   5.121   1.855   2.388 -0.1574 -0.5525  0.0419
 3076TIP3    H130643   5.041   1.808   2.407  0.6443 -1.6795  0.6678
 3076TIP3    H230644   5.162   1.870   2.473  1.7152 -2.5295 -0.4592
 3077TIP3   OH230645   2.214   1.191  15.076  0.4233 -0.0346  0.3538
 3077TIP3    H130646   2.182   1.102  15.087  0.4552 -0.2731 -1.3667
 3077TIP3    H230647   2.264   1.189  14.994  0.0860  1.6574  0.0804
 3078TIP3   OH230648   2.262   0.042   5.814  0.1815 -0.2156  0.3161
 3078TIP3    H130649   2.351   0.023   5.784  0.2491 -1.6150  1.3606
 3078TIP3    H230650   2.263   0.021   5.907 -0.4615  2.5096  0.9969
 3079TIP3   OH230651   4.643   3.852   1.746 -0.2061 -0.3980  0.8152
 3079TIP3    H130652   4.649   3.818   1.835 -2.1130 -0.6530  0.8727
 3079TIP3    H230653   4.633   3.946   1.757  1.6363 -0.1763  0.7753
 3080TIP3   OH230654   2.775   1.475  13.570 -0.0199 -0.1830 -0.3302
 3080TIP3    H130655   2.865   1.449  13.551  0.2693  1.5346 -1.3346
 3080TIP3    H230656   2.776   1.499  13.662  0.3755 -0.8838 -0.1462
 3081TIP3   OH230657   4.157   1.516   4.865  0.2137 -0.4004 -0.0555
 3081TIP3    H130658   4.169   1.528   4.770 -0.3760 -1.4188 -0.2664
 3081TIP3    H230659   4.153   1.421   4.877 -1.4046 -0.2444  0.7778
 3082TIP3   OH230660   3.812   5.320   1.930  0.5425  0.4114  0.2052
 3082TIP3    H130661   3.844   5.229   1.930  0.8675  0.5130 -1.5077
 3082TIP3    H230662   3.871   5.366   1.869 -1.5755  1.0714 -1.4019
 3083TIP3   OH230663   0.029   2.337  12.050 -0.0625 -0.6619 -0.3079
 3083TIP3    H130664   0.065   2.407  12.106 -1.9243  1.1210 -1.2557
 3083TIP3    H230665  -0.005   2.272  12.112 -2.0268  1.2407  0.7137
 3084TIP3   OH230666   0.298   5.837   3.860 -0.4068 -0.5320  0.4438
 3084TIP3    H130667   0.237   5.837   3.934 -1.4380  0.1802 -0.3881
 3084TIP3    H230668   0.379   5.800   3.896 -1.1412 -0.9546  1.7128
 3085TIP3   OH230669   2.634   4.483   1.644 -0.0592 -0.1688 -0.1023
 3085TIP3    H130670   2.698   4.470   1.574  1.6967  0.7350  1.2935
 3085TIP3    H230671   2.672   4.439   1.720 -1.8950 -1.0431  0.3486
 3086TIP3   OH230672   2.615   0.664  16.598 -1.1840  0.1961  0.0756
 3086TIP3    H130673   2.583   0.595  16.656 -2.9393 -0.2829 -1.3988
 3086TIP3    H230674   2.537   0.691  16.548  0.2866  0.4825 -2.1429
 3087TIP3   OH230675   1.503   2.704  14.325  0.1116 -0.4247  0.0682
 3087TIP3    H130676   1.554   2.711  14.406  0.7707 -2.5921 -0.1120
 3087TIP3    H230677   1.414   2.685  14.354 -0.0356  0.6307  0.3206
 3088TIP3   OH230678   0.737   1.376  12.437 -0.4245 -0.0608 -0.7422
 3088TIP3    H130679   0.814   1.357  12.491 -0.6832  0.6850 -0.0823
 3088TIP3    H230680   0.772   1.392  12.349  0.0760 -0.6512 -0.6509
 3089TIP3   OH230681   6.233   0.046   2.382  0.2853  0.2005 -0.1527
 3089TIP3    H130682   6.236   0.047   2.286 -1.2760  1.5961 -0.2236
 3089TIP3    H230683   6.291   0.116   2.409 -1.2469  1.5222 -0.1947
 3090TIP3   OH230684   3.411   4.483   3.347  0.7513  0.1073 -0.1260
 3090TIP3    H130685   3.448   4.395   3.344  0.9216  0.1373  1.0183
 3090TIP3    H230686   3.480   4.537   3.385 -0.0042  0.3934  0.8626
 3091TIP3   OH230687   2.817   5.356  11.579  0.3851 -0.6236 -0.3152
 3091TIP3    H130688   2.870   5.402  11.644  0.3448  0.3288 -0.9440
 3091TIP3    H230689   2.785   5.278  11.624  0.8111 -0.2534  0.6313
 3092TIP3   OH230690   5.980   3.886  15.139  0.1543  0.0214  0.4881
 3092TIP3    H130691   6.010   3.968  15.100 -0.1498  0.6644  1.5828
 3092TIP3    H230692   6.052   3.825  15.126  0.6104  0.6257  0.1611
 3093TIP3   OH230693   5.512   2.813   2.944  0.3204 -0.3766 -0.1774
 3093TIP3    H130694   5.513   2.723   2.978 -1.4859 -0.8866 -1.3798
 3093TIP3    H230695   5.540   2.804   2.853  0.0609  0.2771 -0.3219
 3094TIP3   OH230696   4.955   5.123  16.544 -0.2738  0.0225  0.5939
 3094TIP3    H130697   4.907   5.130  16.626 -1.9973 -3.5703  0.0059
 3094TIP3    H230698   4.925   5.198  16.492 -1.7418  0.4267  1.9996
 3095TIP3   OH230699   5.099   2.569   5.247  0.5594  0.0257 -0.0314
 3095TIP3    H130700   5.144   2.641   5.291  1.7629 -0.1476 -0.9282
 3095TIP3    H230701   5.017   2.607   5.217  0.1740  0.4064  1.4873
 3096TIP3   OH230702   3.246   0.255  14.765  0.0152 -0.0073 -0.1301
 3096TIP3    H130703   3.280   0.188  14.824 -0.6826  0.6929  1.1075
 3096TIP3    H230704   3.169   0.215  14.725 -0.4380  0.0688  0.6548
 3097TIP3   OH230705   3.920   0.236  15.011 -0.5465 -0.4781 -0.0968
 3097TIP3    H130706   3.824   0.228  15.009 -0.4783 -1.4343  0.2048
 3097TIP3    H230707   3.945   0.238  14.918 -0.9161  0.5930 -0.1788
 3098TIP3   OH230708   3.647   1.518   4.195  0.0607 -0.2165  0.2708
 3098TIP3    H130709   3.709   1.507   4.122  1.3102  0.5163  1.1981
 3098TIP3    H230710   3.575   1.459   4.175  1.3182 -1.4859 -0.5593
 3099TIP3   OH230711   5.331   4.333   6.363 -0.5707 -0.4541 -0.3989
 3099TIP3    H130712   5.424   4.353   6.369 -0.5158 -0.3922 -1.3285
 3099TIP3    H230713   5.290   4.387   6.430  0.2405 -1.6758  1.1035
 3100TIP3   OH230714   1.105   6.442  12.880  0.1844 -0.2500  0.4201
 3100TIP3    H130715   1.143   6.383  12.945  0.9989  0.9771  1.0935
 3100TIP3    H230716   1.087   6.386  12.804  0.7498 -1.3894  1.1108
 3101TIP3   OH230717   3.905   2.350   4.273  0.0857  0.0515 -0.4952
 3101TIP3    H130718   3.842   2.331   4.203 -1.0529  0.0358  0.5231
 3101TIP3    H230719   3.948   2.431   4.245 -0.7100  0.3076 -0.9817
 3102TIP3   OH230720   3.428   5.779   5.528 -0.3571  0.3318  0.5722
 3102TIP3    H130721   3.333   5.789   5.525 -0.4350 -0.2626  1.0511
 3102TIP3    H230722   3.451   5.742   5.443 -0.5601  0.3790  0.4966
 3103TIP3   OH230723   4.010   0.205  17.148 -0.0655  0.4324 -0.7853
 3103TIP3    H130724   4.087   0.252  17.180 -0.4514 -0.1772  1.0872
 3103TIP3    H230725   4.005   0.229  17.055  0.9765  2.3785 -0.3783
 3104TIP3   OH230726   1.874   5.465   0.315  0.6569 -0.3902  0.1658
 3104TIP3    H130727   1.883   5.539   0.255 -1.7677 -0.1670  0.0360
 3104TIP3    H230728   1.813   5.406   0.271 -1.0754 -0.2852  2.3458
 3105TIP3   OH230729   5.169   6.521   6.194  0.2097 -0.4423 -0.6633
 3105TIP3    H130730   5.186   6.598   6.140  0.5247 -0.4578 -0.5901
 3105TIP3    H230731   5.216   6.539   6.276 -1.0907  0.0240 -0.0180
 3106TIP3   OH230732   1.370   5.615   5.308  0.1647 -0.5461 -0.3312
 3106TIP3    H130733   1.373   5.555   5.382 -1.4741  1.8107  1.7517
 3106TIP3    H230734   1.292   5.590   5.259 -1.8500  1.2761  1.8470
 3107TIP3   OH230735   0.523   0.162  11.505  0.0429  0.1094 -0.3231
 3107TIP3    H130736   0.548   0.078  11.469 -1.0375  0.2490 -1.4358
 3107TIP3    H230737   0.586   0.224  11.467  1.1905 -0.2434  0.9346
 3108TIP3   OH230738   2.785   6.414  15.407  0.5590 -0.1907  0.2750
 3108TIP3    H130739   2.727   6.489  15.390 -0.4883 -0.9007  0.6657
 3108TIP3    H230740   2.873   6.447  15.389  0.2112  1.4528  1.4839
 3109TIP3   OH230741   2.034   3.597  15.087  0.0806 -0.4559  0.0927
 3109TIP3    H130742   2.010   3.513  15.127  0.8176 -1.3934 -1.3924
 3109TIP3    H230743   1.958   3.620  15.035 -0.1010 -0.2196  0.4596
 3110TIP3   OH230744   2.150   6.556  17.226  0.0849 -0.2928 -0.1831
 3110TIP3    H130745   2.093   6.622  17.187 -0.1736 -1.0531 -1.1097
 3110TIP3    H230746   2.238   6.589  17.212 -0.0923  0.7342  0.9743
 3111TIP3   OH230747   3.692   2.210   1.373 -0.1123  0.3629  0.3632
 3111TIP3    H130748   3.641   2.280   1.332  0.2513  0.8218  0.6971
 3111TIP3    H230749   3.782   2.240   1.369 -0.0090  0.1279  0.9439
 3112TIP3   OH230750   5.050   2.613   5.664 -0.3263 -0.7693  0.2886
 3112TIP3    H130751   5.118   2.641   5.725  0.1727  1.1161 -1.0683
 3112TIP3    H230752   4.977   2.674   5.680 -0.2006 -0.2749 -0.9381
 3113TIP3   OH230753   4.452   5.029   3.695 -0.0171 -0.3648 -0.4826
 3113TIP3    H130754   4.419   4.970   3.628  0.4117 -1.0037 -0.1390
 3113TIP3    H230755   4.529   5.070   3.655  0.0224 -0.4723 -0.5185
 3114TIP3   OH230756   6.046   1.464  12.855 -0.7266  0.0940 -0.0238
 3114TIP3    H130757   6.136   1.438  12.874 -0.2863  2.0071  0.6618
 3114TIP3    H230758   6.035   1.444  12.762  0.3558 -0.2884 -0.0835
 3115TIP3   OH230759   0.240   1.330   3.426 -0.7962 -0.1145 -0.2597
 3115TIP3    H130760   0.280   1.402   3.475 -2.1042  0.3678  0.1470
 3115TIP3    H230761   0.172   1.372   3.374 -2.2879 -1.1591  0.7830
 3116TIP3   OH230762   2.008   4.919  12.827  0.2153  0.2735  0.0727
 3116TIP3    H130763   1.986   4.997  12.879  0.7381 -0.3052  1.1752
 3116TIP3    H230764   1.969   4.936  12.741  0.4360  1.8177  0.2576
 3117TIP3   OH230765   2.395   0.238   1.543  0.1641 -0.0010  0.7579
 3117TIP3    H130766   2.433   0.154   1.567 -1.0911 -0.5225  0.9429
 3117TIP3    H230767   2.466   0.301   1.557  0.6269 -0.8117  2.1577
 3118TIP3   OH230768   2.585   1.753   0.146 -0.7613  0.3032  0.5483
 3118TIP3    H130769   2.585   1.659   0.164 -1.6515  0.3577  0.8566
 3118TIP3    H230770   2.606   1.794   0.230  0.5715  0.3434  0.1959
 3119TIP3   OH230771   4.361   1.391   2.204  0.3353 -0.1475 -0.8659
 3119TIP3    H130772   4.369   1.486   2.194 -1.9446  0.2081  0.4270
 3119TIP3    H230773   4.296   1.365   2.140 -2.2300 -0.1836  1.6695
 3120TIP3   OH230774   4.897   4.297  12.475  0.5758 -0.5293  0.0949
 3120TIP3    H130775   4.893   4.386  12.440  2.5091 -0.9430 -1.2409
 3120TIP3    H230776   4.932   4.307  12.563  0.5686  0.0431  0.0341
 3121TIP3   OH230777   1.983   2.057   0.798  0.9381 -0.2203 -0.6497
 3121TIP3    H130778   1.912   2.018   0.747  1.4503  0.3794 -1.8509
 3121TIP3    H230779   1.996   1.997   0.871 -2.2731  0.8192  0.8140
 3122TIP3   OH230780   4.353   1.145   1.463  0.6363 -0.3654  0.1235
 3122TIP3    H130781   4.392   1.073   1.513  0.2337  0.4302  1.6009
 3122TIP3    H230782   4.276   1.105   1.422 -0.3158 -0.4826  1.9735
 3123TIP3   OH230783   6.167   2.675   4.701 -0.1904 -0.4995 -0.1888
 3123TIP3    H130784   6.138   2.617   4.771 -0.7506 -0.7888 -0.6508
 3123TIP3    H230785   6.105   2.748   4.702  1.3766  0.8444  1.3435
 3124TIP3   OH230786   2.185   2.415  16.125  0.2671 -0.3030  0.0151
 3124TIP3    H130787   2.205   2.441  16.035  2.4923 -3.0659 -0.3390
 3124TIP3    H230788   2.112   2.354  16.116 -0.8761  0.9999  0.2980
 3125TIP3   OH230789   2.148   0.856  10.468  0.1901 -0.0845 -0.0302
 3125TIP3    H130790   2.159   0.864  10.563 -0.9491  1.0022  0.0180
 3125TIP3    H230791   2.059   0.885  10.452  0.2180 -0.7303 -1.3918
 3126TIP3   OH230792   3.224   1.795   4.386 -0.0076 -0.0016 -0.1815
 3126TIP3    H130793   3.315   1.766   4.394 -0.1627 -0.1409  1.2254
 3126TIP3    H230794   3.201   1.776   4.296  1.1312 -0.6524 -0.3503
 3127TIP3   OH230795   0.863   3.153   6.242 -0.4424 -0.4357  0.5386
 3127TIP3    H130796   0.788   3.200   6.206 -0.3253 -0.8221 -0.2056
 3127TIP3    H230797   0.936   3.214   6.232 -0.4750 -0.4154  0.4234
 3128TIP3   OH230798   3.337   4.390   5.814  0.3403 -0.4307 -0.4325
 3128TIP3    H130799   3.310   4.390   5.722  0.1000  1.1824 -0.3828
 3128TIP3    H230800   3.424   4.432   5.813 -0.2173  0.7789  0.1991
 3129TIP3   OH230801   2.856   5.890   5.458 -0.1860  0.1424  0.5636
 3129TIP3    H130802   2.801   5.962   5.488  1.4095  1.0360  1.3653
 3129TIP3    H230803   2.869   5.835   5.535 -1.6749 -1.2328 -0.1182
 3130TIP3   OH230804   4.429   5.733  13.485 -0.2577 -0.3779  0.3090
 3130TIP3    H130805   4.351   5.678  13.496 -1.5460  1.6912  1.9717
 3130TIP3    H230806   4.422   5.798  13.555  1.1981  1.9011 -1.5863
 3131TIP3   OH230807   0.348   3.119   2.312  0.1051 -0.1978  0.2060
 3131TIP3    H130808   0.321   3.028   2.304 -1.2027  0.1968  0.0515
 3131TIP3    H230809   0.378   3.143   2.224  3.0189 -1.2531  0.8502
 3132TIP3   OH230810   0.347   3.729  13.339 -0.8852  0.7521 -0.4572
 3132TIP3    H130811   0.290   3.778  13.399 -0.4058 -1.2292  1.6968
 3132TIP3    H230812   0.423   3.786  13.327 -0.9003  1.1150  0.9741
 3133TIP3   OH230813   0.038   2.831   4.664 -0.3449 -0.3747  0.4301
 3133TIP3    H130814  -0.008   2.899   4.714 -1.5412  0.7862 -2.1567
 3133TIP3    H230815   0.009   2.749   4.704 -3.0294  0.4244  0.2401
 3134TIP3   OH230816   2.251   1.747  16.068 -0.5258  0.2930 -0.4798
 3134TIP3    H130817   2.281   1.825  16.022 -1.3873  0.2403 -1.1531
 3134TIP3    H230818   2.184   1.710  16.010  1.3282 -2.0906 -1.1816
 3135TIP3   OH230819   1.621   0.904   3.512 -0.6563  0.3594  0.1058
 3135TIP3    H130820   1.529   0.916   3.535 -0.9968  1.4074 -1.7475
 3135TIP3    H230821   1.656   0.992   3.503 -0.2315 -0.0114 -2.1635
 3136TIP3   OH230822   2.700   0.067  13.122  0.2012 -0.5110  0.4286
 3136TIP3    H130823   2.705  -0.025  13.096 -0.1850 -0.4842  0.2550
 3136TIP3    H230824   2.643   0.108  13.056  0.3059 -0.1667  0.5511
 3137TIP3   OH230825   2.267   3.418  13.573 -0.7801  0.5340  0.1975
 3137TIP3    H130826   2.234   3.508  13.570 -1.7134  0.1825 -0.2293
 3137TIP3    H230827   2.306   3.410  13.660 -1.2362  1.1654  0.4650
 3138TIP3   OH230828   5.061   3.678   3.821 -0.2292 -0.5842  0.0309
 3138TIP3    H130829   5.111   3.680   3.739  0.6838 -0.8292  0.5686
 3138TIP3    H230830   5.127   3.664   3.889 -1.0437 -0.9851  0.7568
 3139TIP3   OH230831   6.114   6.713  11.973 -0.0538 -0.4633 -0.1364
 3139TIP3    H130832   6.102   6.733  11.880 -0.4315 -1.2684 -0.2605
 3139TIP3    H230833   6.055   6.774  12.018  1.0471  0.7905 -0.3438
 3140TIP3   OH230834   0.523   1.589   3.118  0.5547 -0.0773 -0.2816
 3140TIP3    H130835   0.504   1.650   3.047 -0.2217  1.9107  1.5760
 3140TIP3    H230836   0.450   1.528   3.118  1.8900 -1.7431 -2.8716
 3141TIP3   OH230837   0.229   0.074  16.520  0.4965  0.0422  0.5333
 3141TIP3    H130838   0.169   0.038  16.586  1.0867  1.0449  1.6380
 3141TIP3    H230839   0.226   0.169  16.535 -0.8705  0.4849 -2.1834
 3142TIP3   OH230840   3.884   6.638   4.876 -0.1124  0.0862 -0.3644
 3142TIP3    H130841   3.883   6.674   4.965  0.7562 -0.4017 -0.1443
 3142TIP3    H230842   3.869   6.544   4.889  0.2740 -0.0244 -0.7068
 3143TIP3   OH230843   4.086   0.911   5.227  0.3977  0.2424  0.6035
 3143TIP3    H130844   4.002   0.903   5.182  0.7295 -0.1095  0.0298
 3143TIP3    H230845   4.110   1.003   5.216  1.0668 -0.1045 -1.0445
 3144TIP3   OH230846   1.118   3.610  16.897 -0.0427 -0.0249  0.5055
 3144TIP3    H130847   1.105   3.687  16.952 -1.5559  0.8287 -0.9849
 3144TIP3    H230848   1.172   3.551  16.950  0.2287  1.5967  2.0897
 3145TIP3   OH230849   0.443   4.251  11.218 -0.0237  0.2683 -0.4873
 3145TIP3    H130850   0.509   4.250  11.148  0.7387  0.8170  0.2113
 3145TIP3    H230851   0.434   4.343  11.242 -1.1944  0.2177 -0.7049
 3146TIP3   OH230852   0.845   2.067  10.424 -0.2360 -0.4222  0.1250
 3146TIP3    H130853   0.759   2.050  10.464  0.3356  0.0694  1.6111
 3146TIP3    H230854   0.859   2.161  10.439  0.1408 -0.3008 -0.9602
 3147TIP3   OH230855   2.087   5.297   0.415 -0.3095  0.3203 -0.0901
 3147TIP3    H130856   2.037   5.218   0.394  1.6346 -0.9771 -0.0455
 3147TIP3    H230857   2.025   5.369   0.405 -1.8183 -1.1102 -1.2711
 3148TIP3   OH230858   3.948   2.513   5.549  0.1895 -0.4980 -0.0853
 3148TIP3    H130859   4.043   2.501   5.547  0.6692  2.8553 -2.1606
 3148TIP3    H230860   3.928   2.534   5.640  1.8360  1.0398 -0.0475
 3149TIP3   OH230861   0.693   1.006   3.389  0.5984 -0.3594  0.3345
 3149TIP3    H130862   0.733   0.925   3.358  0.2679  0.2599 -1.8273
 3149TIP3    H230863   0.696   1.065   3.313 -1.4629  0.7741  1.0779
 3150TIP3   OH230864   0.127   1.807   0.234 -0.2645  0.3711  0.6014
 3150TIP3    H130865   0.212   1.840   0.264 -0.2927  2.6065 -1.6092
 3150TIP3    H230866   0.146   1.762   0.152 -1.3692  2.1779 -0.6804
 3151TIP3   OH230867   1.359   1.401   0.666  0.2695 -0.3501  0.2850
 3151TIP3    H130868   1.384   1.341   0.596  0.3671  1.0991 -0.9619
 3151TIP3    H230869   1.369   1.488   0.627 -2.2735  0.4119  1.2593
 3152TIP3   OH230870   4.833   5.668   1.688 -0.0140  0.1557 -0.0106
 3152TIP3    H130871   4.781   5.595   1.720 -1.3026  0.8811 -0.3981
 3152TIP3    H230872   4.890   5.630   1.621 -0.5868 -0.5099 -0.1180
 3153TIP3   OH230873   3.495   3.147   0.604  0.5904 -0.1979 -0.1219
 3153TIP3    H130874   3.416   3.126   0.654 -0.5894  0.9302 -1.4844
 3153TIP3    H230875   3.556   3.076   0.625 -0.9558 -1.3689  0.5240
 3154TIP3   OH230876   5.424   5.909  10.880 -0.3824 -0.2496  0.0599
 3154TIP3    H130877   5.514   5.931  10.854  0.4061 -1.3027  1.8000
 3154TIP3    H230878   5.416   5.816  10.860 -0.1716 -0.7922  2.3748
 3155TIP3   OH230879   1.453   4.045   1.653  0.3047  0.4801 -0.3642
 3155TIP3    H130880   1.534   3.999   1.628  1.5459  2.0066  0.7704
 3155TIP3    H230881   1.384   3.981   1.637  1.7835 -1.0276 -0.9023
 3156TIP3   OH230882   5.231   1.336   4.877  0.2504 -0.9485  0.5043
 3156TIP3    H130883   5.288   1.411   4.859 -0.0598 -1.1182 -1.3269
 3156TIP3    H230884   5.290   1.262   4.885  0.3154 -1.2509 -2.0757
 3157TIP3   OH230885   6.284   6.043   3.207 -0.4950 -0.3222 -0.5504
 3157TIP3    H130886   6.227   6.121   3.207  0.1780  0.1697 -1.3393
 3157TIP3    H230887   6.367   6.074   3.243  0.9147  0.1769 -4.0460
 3158TIP3   OH230888   2.487   3.595   5.238 -0.4256  0.1294  0.0207
 3158TIP3    H130889   2.494   3.561   5.149  1.9637  0.0541  0.2132
 3158TIP3    H230890   2.557   3.659   5.246 -1.6973  1.4155  1.3186
 3159TIP3   OH230891   3.815   2.133  16.358  0.2880  0.2242 -0.1094
 3159TIP3    H130892   3.749   2.162  16.421 -1.4393  0.5456 -2.0344
 3159TIP3    H230893   3.835   2.044  16.385 -0.1193  0.4959  1.1461
 3160TIP3   OH230894   4.544   6.165  12.720  0.1310  0.0379  0.2391
 3160TIP3    H130895   4.626   6.144  12.674 -0.9897 -2.3657 -0.7688
 3160TIP3    H230896   4.542   6.104  12.794 -0.2013  0.8878  0.9415
 3161TIP3   OH230897   0.967   2.746   5.360  0.7523  0.5195 -0.3378
 3161TIP3    H130898   0.980   2.794   5.442  0.9343 -0.5179  0.2550
 3161TIP3    H230899   1.054   2.740   5.322  0.9992 -0.7253  0.3882
 3162TIP3   OH230900   5.085   5.532   5.343 -0.3251  0.2987  0.5593
 3162TIP3    H130901   5.040   5.477   5.407  0.9015  0.8732  1.9560
 3162TIP3    H230902   5.046   5.619   5.355 -1.0602  0.1208 -0.4533
 3163TIP3   OH230903   3.460   1.652   5.011 -0.0585 -0.3164  0.1663
 3163TIP3    H130904   3.370   1.659   5.043 -0.3895  1.0275 -1.0247
 3163TIP3    H230905   3.480   1.738   4.976  1.5515 -0.7306  0.0152
 3164TIP3   OH230906   1.377   4.919   6.157  0.5250  0.2832 -0.2821
 3164TIP3    H130907   1.425   4.918   6.239  1.2246  0.0254 -0.6899
 3164TIP3    H230908   1.285   4.918   6.183  0.7344  1.1227  0.5021
 3165TIP3   OH230909   1.831   4.192   5.814 -0.5881  0.2724 -0.5098
 3165TIP3    H130910   1.834   4.118   5.874 -1.7170  1.1096  0.6058
 3165TIP3    H230911   1.911   4.241   5.832 -0.9579  0.5595  0.3776
 3166TIP3   OH230912   4.115   4.218   1.017 -0.1526 -0.6688  0.6925
 3166TIP3    H130913   4.112   4.311   0.996  1.2149 -0.5880  0.7679
 3166TIP3    H230914   4.164   4.214   1.099 -1.1289 -1.3734  1.2496
 3167TIP3   OH230915   0.998   2.118  15.093  0.5273 -0.2113 -0.0548
 3167TIP3    H130916   0.950   2.197  15.067  1.4991  0.1681 -0.7310
 3167TIP3    H230917   0.936   2.069  15.147 -1.5430 -0.9836 -3.0096
 3168TIP3   OH230918   6.403   6.461   5.869 -0.5361 -0.3122 -0.2159
 3168TIP3    H130919   6.410   6.546   5.826  0.4955 -0.2113  0.1190
 3168TIP3    H230920   6.338   6.474   5.938 -0.9151  0.0044 -0.6344
 3169TIP3   OH230921   2.980   3.634  13.935  0.3073 -0.1293  0.0756
 3169TIP3    H130922   2.996   3.665  14.024 -2.0754  2.4838 -0.3290
 3169TIP3    H230923   2.967   3.540  13.944  2.4283 -0.2566  2.1378
 3170TIP3   OH230924   4.770   0.796   3.778  0.5928  0.4550 -0.1919
 3170TIP3    H130925   4.826   0.870   3.756  1.2203  0.7291  2.1850
 3170TIP3    H230926   4.831   0.726   3.802 -0.0471  0.1018  0.4164
 3171TIP3   OH230927   5.260   3.909  11.247  0.8981  0.7393 -0.0613
 3171TIP3    H130928   5.263   3.915  11.151 -0.1727 -0.8016 -0.2072
 3171TIP3    H230929   5.180   3.956  11.271  0.0369 -0.7004 -0.0949
 3172TIP3   OH230930   5.780   1.351  14.878 -0.2296 -0.6311  0.1261
 3172TIP3    H130931   5.732   1.288  14.932 -0.5376  0.3583  1.0353
 3172TIP3    H230932   5.872   1.328  14.890 -0.3437 -0.9212  0.4457
 3173TIP3   OH230933   5.203   5.677   4.179 -0.2436  0.2789  0.2495
 3173TIP3    H130934   5.110   5.657   4.170 -0.8683  2.8098  0.8315
 3173TIP3    H230935   5.229   5.711   4.093 -0.3974  1.6855  0.7584
 3174TIP3   OH230936   1.623   5.281   3.185 -0.3810  0.3198 -0.6784
 3174TIP3    H130937   1.695   5.237   3.141 -0.2858 -0.2968  0.0900
 3174TIP3    H230938   1.651   5.287   3.276 -0.0776  2.5993 -0.8845
 3175TIP3   OH230939   3.729   2.829   0.962  0.6247  0.0222  0.1817
 3175TIP3    H130940   3.725   2.867   1.050  0.1515  1.6679 -0.5396
 3175TIP3    H230941   3.643   2.847   0.924  0.8096 -0.7294 -0.6098
 3176TIP3   OH230942   4.606   6.595   3.753  0.2697 -0.0157 -0.4695
 3176TIP3    H130943   4.625   6.509   3.717 -0.2286 -0.4175  0.2139
 3176TIP3    H230944   4.690   6.629   3.782  0.2872 -0.8405  0.4826
 3177TIP3   OH230945   0.326   0.581   4.115 -0.6766 -0.0495  0.0175
 3177TIP3    H130946   0.418   0.605   4.127 -0.8493 -0.2016  1.7960
 3177TIP3    H230947   0.328   0.499   4.067  0.0292  1.3399 -2.4198
 3178TIP3   OH230948   6.347   0.878  11.084  0.0799 -0.1567  0.3578
 3178TIP3    H130949   6.294   0.804  11.113  0.7160 -1.1435 -0.9581
 3178TIP3    H230950   6.429   0.839  11.055  0.3968  1.0659 -0.4182
 3179TIP3   OH230951   6.540   3.185  16.862 -0.5983  0.0895 -0.5106
 3179TIP3    H130952   6.540   3.096  16.825 -1.2871  0.5709 -1.6927
 3179TIP3    H230953   6.633   3.208  16.869 -0.3432 -1.2765  1.2166
 3180TIP3   OH230954   1.853   1.270   4.958  0.3763  1.1057  0.7836
 3180TIP3    H130955   1.919   1.228   4.902  0.7516  1.3926  1.0098
 3180TIP3    H230956   1.847   1.212   5.034  0.9462  1.4997  1.1288
 3181TIP3   OH230957   4.689   6.092  10.413  0.2947  0.6758  0.0839
 3181TIP3    H130958   4.748   6.143  10.469  0.4242 -0.2103  0.7655
 3181TIP3    H230959   4.648   6.157  10.356  1.6300  1.3458 -0.1259
 3182TIP3   OH230960   5.206   2.479   3.181  0.1131 -0.0482  0.0422
 3182TIP3    H130961   5.217   2.413   3.112 -1.5175 -0.2254 -0.0873
 3182TIP3    H230962   5.185   2.559   3.133  0.1080  0.0963  0.2853
 3183TIP3   OH230963   4.557   3.172   5.237 -0.1181 -0.3925 -0.3352
 3183TIP3    H130964   4.615   3.157   5.311 -2.2802  1.4328  1.8274
 3183TIP3    H230965   4.508   3.090   5.228 -0.7700 -0.1856  1.1507
 3184TIP3   OH230966   0.939   5.009   6.306 -0.5967  0.4915  0.2111
 3184TIP3    H130967   1.030   5.005   6.337 -0.8676  0.0262  0.9724
 3184TIP3    H230968   0.946   5.022   6.212  0.2846 -1.2623  0.0128
 3185TIP3   OH230969   5.729   6.058   3.386 -0.1036 -0.0706  0.2331
 3185TIP3    H130970   5.759   6.105   3.464 -1.7833  1.4892 -0.0269
 3185TIP3    H230971   5.792   5.987   3.375 -0.3969 -0.9493  3.6366
 3186TIP3   OH230972   0.825   3.721   0.547 -0.7792 -0.4415 -0.8952
 3186TIP3    H130973   0.854   3.677   0.468 -1.6117 -0.4554 -1.1929
 3186TIP3    H230974   0.830   3.815   0.527 -4.4606 -0.4504 -2.2561
 3187TIP3   OH230975   5.101   6.441  12.850 -0.0732  0.4022  0.3182
 3187TIP3    H130976   5.071   6.457  12.939  2.0602  1.7313  0.8305
 3187TIP3    H230977   5.071   6.352  12.830 -2.3305  0.8431  1.5839
 3188TIP3   OH230978   2.694   0.614   2.299  0.1389 -0.1688  0.1259
 3188TIP3    H130979   2.740   0.603   2.216 -0.8176 -0.4514 -0.3663
 3188TIP3    H230980   2.714   0.704   2.325  0.5176 -0.1077 -0.3558
 3189TIP3   OH230981   2.809   3.340  11.659  0.2385 -0.4663 -0.1033
 3189TIP3    H130982   2.836   3.366  11.747 -0.9418  0.2760  0.0575
 3189TIP3    H230983   2.802   3.245  11.663  0.2176 -0.4344  0.6011
 3190TIP3   OH230984   6.391   3.219  14.911  0.0326  0.3344 -0.6081
 3190TIP3    H130985   6.469   3.263  14.878  0.8515 -0.4995  0.1832
 3190TIP3    H230986   6.350   3.180  14.833  0.5931  0.4727 -0.9721
 3191TIP3   OH230987   6.728   1.022  13.121 -0.3451  0.1579 -0.5302
 3191TIP3    H130988   6.690   1.062  13.200  0.1087  0.2477 -0.3563
 3191TIP3    H230989   6.667   0.953  13.098 -0.0373 -0.4328  0.4086
 3192TIP3   OH230990   6.001   4.731   4.656  0.0206 -0.1720 -0.4082
 3192TIP3    H130991   6.068   4.781   4.701 -0.4768  0.7121 -0.6310
 3192TIP3    H230992   5.940   4.705   4.724 -0.0090 -0.0042 -0.3709
 3193TIP3   OH230993   0.166   5.383  11.134 -0.0326 -0.2917  0.4257
 3193TIP3    H130994   0.193   5.449  11.198  0.3809  1.6787 -1.6979
 3193TIP3    H230995   0.156   5.432  11.053 -0.3675 -2.7730 -1.0749
 3194TIP3   OH230996   4.394   1.092  14.351  0.5193 -0.2890  0.8872
 3194TIP3    H130997   4.306   1.124  14.329 -0.1050 -1.1334  2.0621
 3194TIP3    H230998   4.427   1.056  14.268 -0.0037  0.5473  0.2972
 3195TIP3   OH230999   0.140   4.974  12.837  0.3970  0.1673 -1.2465
 3195TIP3    H131000   0.083   4.914  12.885 -2.9427  2.8730 -1.6189
 3195TIP3    H231001   0.222   4.974  12.886 -1.1505 -1.0978  1.4401
 3196TIP3   OH231002   4.549   6.322  16.226 -0.0861 -0.5496 -0.6598
 3196TIP3    H131003   4.492   6.373  16.284  0.0099 -0.7711 -0.3728
 3196TIP3    H231004   4.510   6.235  16.223 -0.3988 -0.3961 -1.3636
 3197TIP3   OH231005   2.808   1.124  12.103  0.4584 -0.2758 -0.1913
 3197TIP3    H131006   2.757   1.205  12.100 -0.6788 -0.9592  0.3546
 3197TIP3    H231007   2.878   1.142  12.165 -0.0375  0.1492  0.2474
 3198TIP3   OH231008   5.048   4.160   2.390  0.3074 -0.5646  0.4816
 3198TIP3    H131009   4.976   4.175   2.329  0.2810  1.1914  0.9016
 3198TIP3    H231010   5.014   4.096   2.453 -0.2519 -1.0966 -0.3571
 3199TIP3   OH231011   4.357   2.622   3.053  0.0266  0.3041 -0.2519
 3199TIP3    H131012   4.444   2.619   3.013  0.2298  0.0288  0.2032
 3199TIP3    H231013   4.373   2.604   3.146 -0.6371 -0.9028 -0.3554
 3200TIP3   OH231014   1.816   2.407   3.776  0.0973  0.1534  0.0875
 3200TIP3    H131015   1.890   2.468   3.783  0.0942  0.1603  0.0577
 3200TIP3    H231016   1.782   2.401   3.866  0.8576 -0.7474  0.3338
 3201TIP3   OH231017   2.112   0.329  13.306 -0.0223  0.9696 -0.3328
 3201TIP3    H131018   2.207   0.318  13.313 -0.2340 -0.3582  0.6149
 3201TIP3    H231019   2.084   0.355  13.393 -0.8940 -1.6204  0.1991
 3202TIP3   OH231020   6.691   5.214  16.317  0.0084 -0.4181  0.8618
 3202TIP3    H131021   6.753   5.201  16.245 -2.4876  1.0961 -1.7023
 3202TIP3    H231022   6.629   5.141  16.308  0.1116 -0.6457  1.9707
 3203TIP3   OH231023   6.001   4.233   3.100  1.0435  0.2213  0.1829
 3203TIP3    H131024   6.059   4.304   3.072  2.0516 -0.5989  0.1604
 3203TIP3    H231025   6.058   4.156   3.103  0.4682 -0.1330  2.4319
 3204TIP3   OH231026   4.078   5.252   4.332  0.0617  0.3148  0.3802
 3204TIP3    H131027   4.055   5.201   4.255 -1.3619  2.4506 -0.6505
 3204TIP3    H231028   4.077   5.188   4.404 -0.8361 -1.2568 -0.9860
 3205TIP3   OH231029   1.264   0.461   2.195  0.6932 -0.1950 -0.1208
 3205TIP3    H131030   1.195   0.467   2.261 -0.6600  1.0562 -1.6161
 3205TIP3    H231031   1.222   0.419   2.120  1.3581  1.2207 -1.3005
 3206TIP3   OH231032   2.445   4.712   5.344  0.2621  0.3030 -0.6126
 3206TIP3    H131033   2.381   4.782   5.328 -0.4023 -0.0936  0.2606
 3206TIP3    H231034   2.415   4.671   5.425  0.1590 -1.5517 -1.5673
 3207TIP3   OH231035   2.950   3.120  12.134  0.0184 -0.2497  0.3662
 3207TIP3    H131036   2.933   3.158  12.220  2.4400 -1.8979  1.6281
 3207TIP3    H231037   2.897   3.040  12.132 -0.3539  0.0033  0.1694
 3208TIP3   OH231038   5.539   0.770  16.947  0.5713 -0.1376  0.3237
 3208TIP3    H131039   5.468   0.786  16.884 -0.0856 -0.3435  0.9945
 3208TIP3    H231040   5.617   0.757  16.893  1.1165  4.8448 -0.3253
 3209TIP3   OH231041   1.664   5.391   3.448 -0.6022  0.6652 -0.2802
 3209TIP3    H131042   1.607   5.375   3.523 -0.6313  0.7197 -0.2912
 3209TIP3    H231043   1.733   5.448   3.483 -0.9490  1.1851 -0.4445
 3210TIP3   OH231044   3.906   5.315  11.401  0.3228  0.2449 -0.1198
 3210TIP3    H131045   3.860   5.244  11.356  0.8298  1.2444 -2.2415
 3210TIP3    H231046   3.962   5.270  11.464 -2.0348 -1.0668  1.1352
 3211TIP3   OH231047   1.826   0.360   2.083  0.8659  0.2122 -0.1451
 3211TIP3    H131048   1.839   0.265   2.082 -1.6318 -0.1622  0.3997
 3211TIP3    H231049   1.872   0.388   2.163  0.9992 -0.6325  0.0904
 3212TIP3   OH231050   6.570   6.212   1.064  0.1612  0.1713  0.5189
 3212TIP3    H131051   6.510   6.175   0.999  0.2463 -0.9822  1.0860
 3212TIP3    H231052   6.640   6.251   1.012  0.6824 -1.5172 -0.0781
 3213TIP3   OH231053   4.024   6.126  16.860 -0.6255 -0.2229 -0.4612
 3213TIP3    H131054   4.000   6.204  16.811  0.9223  0.8057  0.3638
 3213TIP3    H231055   4.035   6.057  16.794  0.2795  0.8391 -1.4283
 3214TIP3   OH231056   3.682   0.467   2.007 -0.0374  0.1896 -0.2654
 3214TIP3    H131057   3.657   0.452   1.916 -2.9188  1.6822  0.2212
 3214TIP3    H231058   3.728   0.551   2.005 -2.1790  1.4156 -0.0734
 3215TIP3   OH231059   4.503   6.418   2.890  0.4279  0.6741  0.3248
 3215TIP3    H131060   4.595   6.423   2.917  0.4385  1.1470  0.1966
 3215TIP3    H231061   4.506   6.377   2.803  0.5641  1.2534  0.0547
 3216TIP3   OH231062   3.428   6.753   2.655  0.6082 -0.0004  0.0165
 3216TIP3    H131063   3.468   6.666   2.657  0.7623  0.0715  0.1017
 3216TIP3    H231064   3.474   6.799   2.585  1.1543  0.3086  0.5694
 3217TIP3   OH231065   0.565   4.227   5.411  0.2857 -0.4887  0.8874
 3217TIP3    H131066   0.510   4.172   5.467 -0.9716  0.9352  1.0904
 3217TIP3    H231067   0.543   4.200   5.322  2.8117 -3.2547  1.0563
 3218TIP3   OH231068   5.796   5.980   1.455  0.0551  0.4485  0.6864
 3218TIP3    H131069   5.883   6.021   1.454 -0.5261  1.6934 -1.5577
 3218TIP3    H231070   5.744   6.032   1.394 -1.0125 -3.1019 -1.5636
 3219TIP3   OH231071   0.489   3.910  14.836 -0.1760 -0.0865 -1.0527
 3219TIP3    H131072   0.532   3.864  14.909  1.0054  2.2135 -0.2070
 3219TIP3    H231073   0.454   3.841  14.781  0.4648 -1.9480  0.7862
 3220TIP3   OH231074   6.207   3.513  15.668 -0.2551  0.0615 -0.6952
 3220TIP3    H131075   6.215   3.418  15.669  1.0830  0.1677  1.5990
 3220TIP3    H231076   6.118   3.530  15.700 -0.5177 -0.4047 -1.1759
 3221TIP3   OH231077   6.409   6.553   6.486  0.8067 -0.2703 -0.0772
 3221TIP3    H131078   6.455   6.583   6.407  1.1487  2.1520  1.0057
 3221TIP3    H231079   6.449   6.602   6.557 -1.2188 -0.5671  1.3028
 3222TIP3   OH231080   0.727   4.172  13.335 -0.1129 -0.3299 -0.2295
 3222TIP3    H131081   0.733   4.174  13.430 -0.3666 -1.6352 -0.1734
 3222TIP3    H231082   0.752   4.260  13.307 -0.1108  0.0798  1.0441
 3223TIP3   OH231083   6.310   0.636   1.179  0.3080  0.3035 -0.8832
 3223TIP3    H131084   6.215   0.633   1.164  0.1730  2.4677 -0.5287
 3223TIP3    H231085   6.328   0.557   1.230 -1.3895  0.1226 -0.5152
 3224TIP3   OH231086   6.295   1.462  17.001  0.5353 -0.4558 -0.2027
 3224TIP3    H131087   6.220   1.471  16.942  0.8241  0.6332 -0.4161
 3224TIP3    H231088   6.256   1.445  17.087  0.0084  0.9140 -0.1602
 3225TIP3   OH231089   6.338   5.650   3.890 -0.0726  0.2560 -0.4391
 3225TIP3    H131090   6.339   5.559   3.863 -2.5737  0.8852 -2.8875
 3225TIP3    H231091   6.293   5.650   3.975  1.5180 -0.9298  0.4365
 3226TIP3   OH231092   6.401   4.599  14.729 -0.2160 -0.3591  0.3096
 3226TIP3    H131093   6.368   4.580  14.817  0.6736  1.3595  1.0277
 3226TIP3    H231094   6.490   4.631  14.743  0.7530 -2.1536 -1.3962
 3227TIP3   OH231095   2.444   1.541  16.039  0.1156  0.0589  0.3534
 3227TIP3    H131096   2.501   1.607  16.077 -0.5261  0.8569 -0.0447
 3227TIP3    H231097   2.355   1.576  16.052 -0.1126  0.4335 -2.0051
 3228TIP3   OH231098   3.505   0.738   0.588 -0.1974  0.6009 -0.2349
 3228TIP3    H131099   3.554   0.705   0.513 -1.0657 -1.0223 -0.1078
 3228TIP3    H231100   3.568   0.794   0.635  1.0931 -0.3015 -0.8542
 3229TIP3   OH231101   0.485   3.198  15.132  0.3239 -0.0788 -0.3917
 3229TIP3    H131102   0.470   3.106  15.111  1.5336 -0.3708  0.0219
 3229TIP3    H231103   0.520   3.236  15.051 -1.5137  0.3631 -1.0203
 3230TIP3   OH231104   1.019   2.106  13.724 -0.6056  0.2327  0.4818
 3230TIP3    H131105   1.042   2.029  13.672  0.8126 -0.0793  1.5339
 3230TIP3    H231106   1.056   2.088  13.811 -2.2399  1.0987  1.3898
 3231TIP3   OH231107   6.468   4.225  14.911  0.2101 -0.2189  0.1320
 3231TIP3    H131108   6.553   4.269  14.913  0.6469 -0.9617 -1.5971
 3231TIP3    H231109   6.486   4.137  14.946 -0.0250 -0.0961  0.5681
 3232TIP3   OH231110   6.710   0.124   5.323  0.5978  0.1607 -0.4644
 3232TIP3    H131111   6.779   0.073   5.366  0.8500 -0.1755 -1.2651
 3232TIP3    H231112   6.698   0.200   5.380  0.4441 -0.6228  0.5656
 3233TIP3   OH231113   6.128   6.377   0.701  0.5732  0.2011 -0.1254
 3233TIP3    H131114   6.148   6.470   0.714  0.3389  0.0962  1.0125
 3233TIP3    H231115   6.087   6.350   0.783  1.4062 -1.1200 -0.1394
 3234TIP3   OH231116   4.983   3.748  17.186 -0.2252 -0.1037 -0.1740
 3234TIP3    H131117   5.014   3.773  17.273  0.3366  0.4783 -0.5288
 3234TIP3    H231118   5.005   3.655  17.178  0.3325  0.0107  0.0448
 3235TIP3   OH231119   4.414   1.103  16.401 -0.3979  0.1107 -0.2558
 3235TIP3    H131120   4.427   1.131  16.311  0.9761 -1.2464 -0.5118
 3235TIP3    H231121   4.473   1.028  16.411 -0.5904  0.2011  1.7401
 3236TIP3   OH231122   1.821   5.157   3.038  0.2570 -0.5599  0.3541
 3236TIP3    H131123   1.866   5.240   3.042 -0.0803 -0.4055  1.0561
 3236TIP3    H231124   1.849   5.118   2.955 -0.8956  1.0018 -0.8036
 3237TIP3   OH231125   3.260   1.689   1.760 -0.1673 -0.3896  0.2288
 3237TIP3    H131126   3.246   1.597   1.782 -0.1089 -0.9594 -1.9451
 3237TIP3    H231127   3.230   1.738   1.837 -0.5089 -2.2044  1.2736
 3238TIP3   OH231128   1.706   4.524  15.434 -0.7581  0.1730 -0.0831
 3238TIP3    H131129   1.742   4.478  15.358 -0.6311  0.9747 -0.5044
 3238TIP3    H231130   1.779   4.531  15.495 -0.9481 -0.7904  0.2804
 3239TIP3   OH231131   5.085   3.031   0.322  0.4815  0.3032  0.3944
 3239TIP3    H131132   5.074   3.092   0.248  0.7038 -0.8338 -0.5906
 3239TIP3    H231133   5.062   3.083   0.399 -2.2633  0.7920 -0.6969
 3240TIP3   OH231134   2.278   2.897   5.113  0.2876  0.1296 -0.1873
 3240TIP3    H131135   2.183   2.888   5.104  0.2978 -0.1244 -0.0404
 3240TIP3    H231136   2.295   2.989   5.094  0.2022 -0.1999 -1.9227
 3241TIP3   OH231137   2.393   2.419   0.786  0.4168 -0.3146  0.1399
 3241TIP3    H131138   2.340   2.346   0.754  1.2727  0.4939 -3.2534
 3241TIP3    H231139   2.330   2.478   0.827 -0.7868 -1.1070 -0.5435
 3242TIP3   OH231140   4.787   3.070   3.908 -0.5539  0.2281 -0.3640
 3242TIP3    H131141   4.861   3.107   3.955 -0.8537  3.0067 -1.9682
 3242TIP3    H231142   4.826   3.011   3.843  0.0181 -1.0017  1.0695
 3243TIP3   OH231143   3.137   2.762  11.130 -0.0987 -0.5311 -0.0082
 3243TIP3    H131144   3.119   2.768  11.224  2.5519  0.1050  0.4981
 3243TIP3    H231145   3.213   2.704  11.124 -0.0508 -0.3105 -1.7501
 3244TIP3   OH231146   0.712   5.504  15.929 -0.6694  0.2889  0.0396
 3244TIP3    H131147   0.781   5.530  15.867 -1.6375 -0.2696 -1.3024
 3244TIP3    H231148   0.736   5.416  15.956  0.2917  0.9095  1.2483
 3245TIP3   OH231149   3.386   6.412  16.821 -0.1123 -0.3201  0.5887
 3245TIP3    H131150   3.312   6.457  16.861  0.5503 -1.0271  2.6670
 3245TIP3    H231151   3.349   6.373  16.741 -1.8634 -0.2194  1.3165
 3246TIP3   OH231152   1.866   0.880   4.990 -0.5228  0.3661  1.0883
 3246TIP3    H131153   1.929   0.886   5.062  1.6654 -1.8357 -0.5381
 3246TIP3    H231154   1.818   0.799   5.007  1.8192 -1.6181 -1.1897
 3247TIP3   OH231155   3.258   4.339  12.337 -0.1550 -0.7062 -0.2988
 3247TIP3    H131156   3.249   4.292  12.420 -2.5551  0.0580 -0.0990
 3247TIP3    H231157   3.332   4.399  12.352  1.0511 -2.3450  0.4179
 3248TIP3   OH231158   5.898   4.368  16.198  0.1912 -0.6921  0.5881
 3248TIP3    H131159   5.836   4.401  16.263 -0.4926  0.9564 -0.8399
 3248TIP3    H231160   5.982   4.405  16.225  0.0277 -0.5353  0.8967
 3249TIP3   OH231161   5.913   1.820   5.163  0.1675  0.3844  0.7323
 3249TIP3    H131162   5.942   1.827   5.254  0.3618 -2.2516  0.9046
 3249TIP3    H231163   5.966   1.750   5.126 -0.7786  0.5904 -1.0723
 3250TIP3   OH231164   6.037   2.497  17.160  0.1785  0.2496  0.5774
 3250TIP3    H131165   6.109   2.531  17.106  0.0277  0.6415  0.6192
 3250TIP3    H231166   6.046   2.543  17.243  2.2989 -2.6353  2.0049
 3251TIP3   OH231167   2.504   2.713   5.014  0.5266 -0.4567  0.9220
 3251TIP3    H131168   2.417   2.749   5.032  0.6321 -1.2638  3.1288
 3251TIP3    H231169   2.528   2.752   4.929 -1.9267 -0.1562  0.3096
 3252TIP3   OH231170   3.448   2.138  10.825  0.5274 -0.1920  0.0131
 3252TIP3    H131171   3.500   2.060  10.842 -0.3951 -0.6530  0.7455
 3252TIP3    H231172   3.370   2.128  10.879  1.0248  1.8936  1.1689
 3253TIP3   OH231173   2.727   6.580  12.784  0.3564  0.4212 -0.2456
 3253TIP3    H131174   2.635   6.581  12.808  0.0333  1.3140 -1.4983
 3253TIP3    H231175   2.737   6.653  12.723  1.9064  0.3731 -0.0718
 3254TIP3   OH231176   0.753   4.786   2.879  0.0848  0.4831  0.0287
 3254TIP3    H131177   0.832   4.760   2.927  0.8474 -0.1648 -1.5408
 3254TIP3    H231178   0.763   4.880   2.867 -1.0735  1.0114  2.8298
 3255TIP3   OH231179   1.773   5.671  13.014 -0.2693 -0.4543  1.0269
 3255TIP3    H131180   1.807   5.750  12.973 -1.9956 -1.9460 -3.5397
 3255TIP3    H231181   1.713   5.703  13.082  2.1048  2.0742  2.0106
 3256TIP3   OH231182   1.850   5.625   3.161  0.0341  0.1491 -0.3221
 3256TIP3    H131183   1.895   5.541   3.173  0.3230  0.5866  1.8652
 3256TIP3    H231184   1.898   5.686   3.218 -0.7033  1.6118 -1.2320
 3257TIP3   OH231185   4.996   2.987  14.680  0.5140 -0.3691  0.1594
 3257TIP3    H131186   5.088   2.979  14.653 -0.0085 -0.3415 -1.7120
 3257TIP3    H231187   4.955   2.905  14.652  0.1147 -0.7110  1.6888
 3258TIP3   OH231188   1.174   0.426   3.741 -0.4144 -0.2030  0.3699
 3258TIP3    H131189   1.182   0.433   3.646 -1.3430  0.8551  0.3504
 3258TIP3    H231190   1.154   0.334   3.757  2.1803 -0.8918 -0.2518
 3259TIP3   OH231191   0.592   5.534   1.140 -0.1712 -0.0665 -0.0608
 3259TIP3    H131192   0.623   5.622   1.122  0.2577 -0.6345 -2.2114
 3259TIP3    H231193   0.545   5.508   1.061 -2.5623 -0.7967  1.5561
 3260TIP3   OH231194   4.284   0.540   6.302  0.1455 -0.0255 -0.2562
 3260TIP3    H131195   4.327   0.505   6.380  0.4917  0.6304 -0.1468
 3260TIP3    H231196   4.321   0.628   6.292  0.2966 -0.2043 -1.3167
 3261TIP3   OH231197   2.805   0.922   4.534 -1.0971  0.0718 -0.8912
 3261TIP3    H131198   2.879   0.909   4.594 -1.3108  1.7327 -0.2306
 3261TIP3    H231199   2.834   0.884   4.452 -0.0627 -0.5899 -0.2349
 3262TIP3   OH231200   5.964   2.131   4.106 -0.5042  0.4534 -0.5762
 3262TIP3    H131201   5.958   2.145   4.011 -1.4847  1.9165 -0.3271
 3262TIP3    H231202   6.000   2.213   4.139 -1.1479  0.3406  0.4213
 3263TIP3   OH231203   5.730   6.093  13.301 -0.2814 -0.4288  0.0067
 3263TIP3    H131204   5.664   6.141  13.351  0.3722 -0.4255  0.8672
 3263TIP3    H231205   5.813   6.133  13.325 -0.0331  0.2389 -1.8467
 3264TIP3   OH231206   5.540   4.942   3.404 -0.3361  0.2989  0.3286
 3264TIP3    H131207   5.606   4.895   3.456 -0.9531 -1.3468 -0.3503
 3264TIP3    H231208   5.465   4.949   3.462 -1.4960 -2.7020 -0.7231
 3265TIP3   OH231209   1.223   0.256  14.418  0.2014 -0.5642  0.1158
 3265TIP3    H131210   1.240   0.162  14.415  2.0394 -0.1999 -1.3197
 3265TIP3    H231211   1.173   0.268  14.499 -1.3773 -2.9742 -0.4324
 3266TIP3   OH231212   3.033   1.825   0.219  0.0345 -0.1970 -0.3335
 3266TIP3    H131213   3.122   1.822   0.184  0.1587  3.2198 -0.4541
 3266TIP3    H231214   2.978   1.794   0.147  0.7850  1.6578 -1.7562
 3267TIP3   OH231215   2.474   6.770   1.586  0.3366  0.1166  0.4905
 3267TIP3    H131216   2.425   6.744   1.508  0.0296  0.6049  0.5197
 3267TIP3    H231217   2.513   6.688   1.618 -0.6891 -0.3246  0.6299
 3268TIP3   OH231218   4.187   2.308   3.707 -0.0983 -0.1112  0.4379
 3268TIP3    H131219   4.152   2.345   3.626 -2.4228 -0.4370  1.2564
 3268TIP3    H231220   4.239   2.379   3.745  0.3828  0.2927 -0.9535
 3269TIP3   OH231221   6.017   4.050   2.856 -0.0337 -1.0445  0.0699
 3269TIP3    H131222   6.000   4.120   2.793  1.2900  1.5748  2.5128
 3269TIP3    H231223   6.106   4.065   2.886 -0.4346 -2.5553  2.1707
 3270TIP3   OH231224   4.555   4.693   6.400 -0.7762  0.2810 -0.1685
 3270TIP3    H131225   4.642   4.681   6.362 -1.5688  1.0955 -2.2743
 3270TIP3    H231226   4.563   4.655   6.488  1.2347 -1.1434 -0.9171
 3271TIP3   OH231227   4.319   1.100  14.609  0.7143  0.2871  0.8566
 3271TIP3    H131228   4.356   1.082  14.523  1.4524  0.7724  1.0709
 3271TIP3    H231229   4.247   1.037  14.618  2.4832 -1.7402  1.1107
 3272TIP3   OH231230   6.155   2.619   2.585  0.4608  0.3573  0.2632
 3272TIP3    H131231   6.137   2.669   2.664  0.2398  0.3396  0.2235
 3272TIP3    H231232   6.148   2.527   2.613  0.5230  0.3494  0.2545
 3273TIP3   OH231233   2.279   2.158  11.025 -0.0929  0.9684  0.0459
 3273TIP3    H131234   2.345   2.193  10.965  0.7386  1.3635  1.1689
 3273TIP3    H231235   2.197   2.162  10.976  0.6539  0.8677 -1.2177
 3274TIP3   OH231236   5.733   0.947   6.234  0.3846 -0.6496  0.4122
 3274TIP3    H131237   5.750   1.006   6.307 -1.9633  1.2808 -0.5309
 3274TIP3    H231238   5.802   0.967   6.171  1.4977 -1.2224  1.4242
 3275TIP3   OH231239   0.944   0.089   3.260  0.3628  0.0740 -0.3579
 3275TIP3    H131240   0.951   0.163   3.200 -0.7939 -0.2504 -0.9034
 3275TIP3    H231241   0.918   0.128   3.343  0.6687  0.3767 -0.4022
 3276TIP3   OH231242   0.543   6.180   0.035  0.4804 -0.0775 -0.2311
 3276TIP3    H131243   0.561   6.178   0.129 -0.0594  2.0341 -0.0603
 3276TIP3    H231244   0.476   6.113   0.022  0.0135  0.1200  1.0210
 3277TIP3   OH231245   3.132   3.179   5.352 -0.4516  0.5643  0.5418
 3277TIP3    H131246   3.166   3.219   5.432 -0.6796  2.3072 -0.2086
 3277TIP3    H231247   3.083   3.102   5.383  0.0382  0.8250  2.0133
 3278TIP3   OH231248   3.811   0.275  13.394 -0.1042 -0.3086 -0.7183
 3278TIP3    H131249   3.877   0.220  13.352  0.0145 -0.7336  0.0247
 3278TIP3    H231250   3.743   0.215  13.422  0.7977 -0.3116  1.5749
 3279TIP3   OH231251   2.147   1.537  16.772  0.0852  0.1722  0.3498
 3279TIP3    H131252   2.198   1.579  16.702 -0.3057 -0.1912 -0.1548
 3279TIP3    H231253   2.212   1.508  16.836  0.4098  0.9441  0.3734
 3280TIP3   OH231254   4.596   5.862   6.334 -0.6109  0.0404  0.0130
 3280TIP3    H131255   4.516   5.811   6.348  0.9866 -2.7101 -0.5008
 3280TIP3    H231256   4.628   5.832   6.249  1.0747  0.9776  0.3120
 3281TIP3   OH231257   3.995   5.618  12.245 -0.2292  0.7400 -0.0525
 3281TIP3    H131258   3.935   5.546  12.267  1.1476 -0.3899  0.0204
 3281TIP3    H231259   3.940   5.680  12.196 -1.7285  0.2332  0.9427
 3282TIP3   OH231260   3.337   0.237  14.057 -0.1470  0.1387 -0.2055
 3282TIP3    H131261   3.361   0.163  14.002 -0.9154  0.4995 -1.0344
 3282TIP3    H231262   3.242   0.242  14.051 -0.1938  0.5223  0.7235
 3283TIP3   OH231263   6.766   2.117   2.587 -0.0515  0.1198  0.2630
 3283TIP3    H131264   6.688   2.146   2.635 -0.1109  0.3563  0.0223
 3283TIP3    H231265   6.807   2.197   2.556  0.4813  0.0113  0.6873
 3284TIP3   OH231266   6.181   5.868  15.952  0.5041 -0.0241 -0.5323
 3284TIP3    H131267   6.087   5.849  15.947  0.3604  0.3027  0.8672
 3284TIP3    H231268   6.215   5.807  16.018  1.5568 -1.1316 -2.0368
 3285TIP3   OH231269   5.653   3.546   3.107 -0.2955  0.2055  0.5034
 3285TIP3    H131270   5.573   3.590   3.135  0.5946  2.5521 -0.5083
 3285TIP3    H231271   5.630   3.506   3.023 -1.1889 -1.5645  1.5609
 3286TIP3   OH231272   2.990   1.294  13.239 -0.2623 -0.3396  0.3883
 3286TIP3    H131273   3.005   1.386  13.262 -0.0547  0.2619 -2.0351
 3286TIP3    H231274   2.989   1.293  13.143  2.7899 -3.3161  0.2984
 3287TIP3   OH231275   3.471   6.485   4.870  0.4396  0.8932  0.0105
 3287TIP3    H131276   3.417   6.513   4.796  0.2121 -1.6211 -0.8390
 3287TIP3    H231277   3.438   6.535   4.945 -1.0304  1.6183 -1.1026
 3288TIP3   OH231278   1.465   5.900  16.741  0.2355 -0.1951 -0.1140
 3288TIP3    H131279   1.513   5.961  16.797  1.5549 -2.5611  1.4212
 3288TIP3    H231280   1.375   5.903  16.774  0.2926  0.9250 -0.0573
 3289TIP3   OH231281   6.137   3.918   1.350 -0.0392  0.2020 -0.1013
 3289TIP3    H131282   6.058   3.971   1.347  0.0042  0.2389 -0.6906
 3289TIP3    H231283   6.109   3.834   1.386 -0.3320  0.2372 -0.2515
 3290TIP3   OH231284   0.163   3.194  14.467 -0.0332  0.3640 -0.0581
 3290TIP3    H131285   0.147   3.261  14.400  1.4474  0.4845 -0.2969
 3290TIP3    H231286   0.169   3.243  14.549  0.7427  0.4967 -0.1921
 3291TIP3   OH231287   5.594   1.469  15.199 -0.5017 -0.0568 -0.0036
 3291TIP3    H131288   5.583   1.398  15.136 -1.8230  0.1032  0.0394
 3291TIP3    H231289   5.589   1.549  15.147  2.0675  0.0107 -0.2147
 3292TIP3   OH231290   0.526   2.286  14.908  0.6722 -0.1669 -0.1531
 3292TIP3    H131291   0.431   2.294  14.918  0.5666 -1.2944 -0.1829
 3292TIP3    H231292   0.539   2.266  14.816  1.0572  1.4635 -0.4769
 3293TIP3   OH231293   1.036   3.455   0.818 -0.1191 -0.4148 -0.7229
 3293TIP3    H131294   0.958   3.452   0.874 -0.3111 -2.7759 -1.0296
 3293TIP3    H231295   1.019   3.388   0.751  0.6012  1.5670 -2.9464
 3294TIP3   OH231296   1.231   0.047   6.227  0.4676  0.2538  0.6221
 3294TIP3    H131297   1.296   0.033   6.159  0.1424  3.1100 -0.3517
 3294TIP3    H231298   1.274   0.102   6.291  0.1498 -0.8352  1.7893
 3295TIP3   OH231299   0.128   6.601   1.101  0.3644  0.1503 -0.0954
 3295TIP3    H131300   0.219   6.590   1.074  0.6707  1.8417  0.1529
 3295TIP3    H231301   0.133   6.619   1.195 -0.1802  0.7150 -0.1663
 3296TIP3   OH231302   3.176   5.501  16.375 -0.0446 -0.3167 -0.0470
 3296TIP3    H131303   3.115   5.523  16.305 -1.2804 -1.2407  0.7038
 3296TIP3    H231304   3.158   5.409  16.395  0.6628 -0.2202  1.1114
 3297TIP3   OH231305   4.551   2.384   5.519  0.0832 -0.5018  0.5902
 3297TIP3    H131306   4.506   2.426   5.446 -0.8427 -1.2342  0.7330
 3297TIP3    H231307   4.640   2.368   5.486  0.0559  0.3574  0.0853
 3298TIP3   OH231308   6.620   6.581   2.252  0.3523 -0.1705  0.2208
 3298TIP3    H131309   6.585   6.549   2.169 -0.2058  0.1258  0.3400
 3298TIP3    H231310   6.610   6.676   2.248 -1.0961 -0.2666  1.2581
 3299TIP3   OH231311   3.625   0.207  10.149 -0.4737 -0.4828  0.0207
 3299TIP3    H131312   3.564   0.158  10.094 -0.7002  1.0856 -1.1464
 3299TIP3    H231313   3.638   0.151  10.226 -1.7650 -1.7581 -0.6698
 3300TIP3   OH231314   0.540   6.134  11.638  0.1497  0.9286 -0.2797
 3300TIP3    H131315   0.624   6.156  11.599 -0.3743  2.2749 -0.6707
 3300TIP3    H231316   0.502   6.068  11.580  1.2939 -0.2810  0.3432
 3301TIP3   OH231317   4.210   4.469   0.155  0.6889  0.7100 -0.4850
 3301TIP3    H131318   4.283   4.503   0.208  0.5839 -0.0641  0.1672
 3301TIP3    H231319   4.134   4.519   0.185  0.5452 -0.0278  0.4411
 3302TIP3   OH231320   6.101   3.847  12.875  0.2511  0.4707 -0.3819
 3302TIP3    H131321   6.054   3.798  12.943  0.1937  0.0622 -0.7136
 3302TIP3    H231322   6.105   3.787  12.801  0.4257  0.8700 -0.6968
 3303TIP3   OH231323   0.372   5.745  13.002 -0.3141 -0.3801  0.4058
 3303TIP3    H131324   0.401   5.832  12.973 -1.4879  0.2557  1.1155
 3303TIP3    H231325   0.453   5.694  13.008  0.2429  0.2662 -1.3045
 3304TIP3   OH231326   6.143   1.766   2.565 -0.1684 -0.2562 -0.3129
 3304TIP3    H131327   6.159   1.779   2.471  1.9984  0.5578  0.1372
 3304TIP3    H231328   6.230   1.760   2.604 -1.0506 -2.6061  1.4134
 3305TIP3   OH231329   5.456   4.056  16.857 -0.4189  0.1488  0.4943
 3305TIP3    H131330   5.406   4.000  16.798  0.4264  0.6222 -0.6948
 3305TIP3    H231331   5.537   4.008  16.874  0.6138  1.2958 -1.0951
 3306TIP3   OH231332   1.905   0.767  16.790 -0.3569  0.4737 -0.5464
 3306TIP3    H131333   1.949   0.683  16.781 -0.6358  0.4097 -1.3281
 3306TIP3    H231334   1.967   0.821  16.839 -0.0176 -0.0640 -0.3775
 3307TIP3   OH231335   4.844   2.763  14.581  0.2071  0.6537  0.0929
 3307TIP3    H131336   4.751   2.780  14.565  0.1436 -0.8394 -1.2575
 3307TIP3    H231337   4.851   2.668  14.581  1.7052  0.7556  0.4225
 3308TIP3   OH231338   4.053   2.855   1.600 -0.4497  0.4809  0.2994
 3308TIP3    H131339   4.132   2.906   1.621  0.1973 -0.5766  0.4728
 3308TIP3    H231340   4.017   2.830   1.685  0.0539 -0.5797  0.2149
 3309TIP3   OH231341   5.462   3.510  16.201  0.1648 -0.1283  0.4901
 3309TIP3    H131342   5.544   3.534  16.160  1.2776 -1.8289  1.6578
 3309TIP3    H231343   5.480   3.514  16.295 -0.5500 -2.2755  0.7373
 3310TIP3   OH231344   0.697   3.371   0.351 -0.2017  0.4657 -0.7263
 3310TIP3    H131345   0.753   3.305   0.309  2.0222  1.8791 -0.0844
 3310TIP3    H231346   0.613   3.364   0.305  1.0557 -0.4529 -3.0063
 3311TIP3   OH231347   0.736   4.357   0.175  0.1887  0.0315  0.0038
 3311TIP3    H131348   0.710   4.271   0.209  1.6285  0.1982  1.6438
 3311TIP3    H231349   0.831   4.349   0.161 -0.0069  0.7056 -1.8502
 3312TIP3   OH231350   0.199   3.668  14.346 -0.8845  0.1478 -0.0295
 3312TIP3    H131351   0.215   3.761  14.333 -0.4376 -0.1551 -1.8391
 3312TIP3    H231352   0.104   3.661  14.356 -0.8684  0.8483  0.5967
 3313TIP3   OH231353   1.799   3.418   0.304  0.4756 -0.7885 -0.0895
 3313TIP3    H131354   1.887   3.454   0.295  0.1955 -0.0977 -0.1206
 3313TIP3    H231355   1.773   3.397   0.214  0.4178 -0.5088 -0.1418
 3314TIP3   OH231356   5.647   5.030   3.037  0.0127  0.0904  0.2713
 3314TIP3    H131357   5.706   5.094   3.076  1.4122 -0.6304 -0.6068
 3314TIP3    H231358   5.611   4.982   3.112  2.3464 -1.0118  0.7326
 3315TIP3   OH231359   5.285   2.579  14.010  0.2796 -0.1693  0.6781
 3315TIP3    H131360   5.353   2.514  14.028 -1.0576 -1.6108  0.6837
 3315TIP3    H231361   5.246   2.549  13.927 -0.1754  0.7789  0.5512
 3316TIP3   OH231362   1.851   1.856   5.900  0.3529 -0.1397 -0.5535
 3316TIP3    H131363   1.803   1.781   5.867  0.4252 -0.6212  0.4194
 3316TIP3    H231364   1.899   1.823   5.975 -0.5498  1.1414  0.6157
 3317TIP3   OH231365   2.910   6.186  12.521 -0.2718 -0.5478 -0.2165
 3317TIP3    H131366   2.909   6.092  12.541 -1.2253 -0.8633 -1.6987
 3317TIP3    H231367   2.899   6.228  12.606  0.1238 -1.7733  0.4639
 3318TIP3   OH231368   5.863   1.428  12.306  0.0022 -0.3000 -0.3914
 3318TIP3    H131369   5.868   1.339  12.341  2.2177  0.1011  0.4158
 3318TIP3    H231370   5.790   1.469  12.353 -0.4797 -1.4315 -0.1488
 3319TIP3   OH231371   0.788   3.470   3.410  0.0014 -0.1060 -0.3061
 3319TIP3    H131372   0.870   3.420   3.410 -0.6730 -1.2565  1.1737
 3319TIP3    H231373   0.814   3.561   3.398  1.6065 -0.3131  1.4351
 3320TIP3   OH231374   5.809   6.350   4.341 -0.5010 -0.5823  0.7577
 3320TIP3    H131375   5.716   6.330   4.351 -0.8516  0.5435 -0.1243
 3320TIP3    H231376   5.812   6.446   4.336  0.4706 -0.7115 -1.4101
 3321TIP3   OH231377   3.719   5.914  16.896 -0.6833  0.3463  0.3717
 3321TIP3    H131378   3.808   5.912  16.931 -1.2234 -2.2681  1.7075
 3321TIP3    H231379   3.665   5.943  16.969 -1.2704 -0.8785  0.4301
 3322TIP3   OH231380   3.524   1.416  11.357  0.1845 -0.3745  0.2306
 3322TIP3    H131381   3.565   1.380  11.436 -0.0414 -0.3454  0.3621
 3322TIP3    H231382   3.501   1.339  11.305 -0.6333 -0.4430  0.6790
 3323TIP3   OH231383   6.616   0.885   1.689  0.5515  0.6352 -0.2810
 3323TIP3    H131384   6.613   0.919   1.600 -0.8516 -1.4464 -1.0606
 3323TIP3    H231385   6.612   0.790   1.679  1.4816  0.3266  1.9644
 3324TIP3   OH231386   4.344   1.548  10.840  0.9616 -0.1968 -0.8101
 3324TIP3    H131387   4.415   1.577  10.897  0.9467 -2.9453  0.6416
 3324TIP3    H231388   4.365   1.587  10.755  1.4920  3.1594  0.7724
 3325TIP3   OH231389   5.886   5.533  11.056 -0.3043 -0.0343 -0.5601
 3325TIP3    H131390   5.804   5.582  11.051 -0.1280  0.2047 -1.1263
 3325TIP3    H231391   5.866   5.448  11.016 -0.5243 -0.3125  0.1380
 3326TIP3   OH231392   0.796   6.322  11.981  0.1283 -0.0987  0.0062
 3326TIP3    H131393   0.713   6.283  12.009 -0.0879 -0.0166 -0.5229
 3326TIP3    H231394   0.782   6.345  11.889  0.8604 -0.4138 -0.1868
 3327TIP3   OH231395   2.189   6.202   6.266  0.1883  0.0825  0.7596
 3327TIP3    H131396   2.244   6.228   6.192 -0.6819  1.7807  0.6864
 3327TIP3    H231397   2.248   6.205   6.341  0.2754  1.6127  0.6383
 3328TIP3   OH231398   1.730   0.719  16.375 -0.3213 -0.0416 -0.6800
 3328TIP3    H131399   1.720   0.664  16.453 -2.0437  0.4301 -0.5576
 3328TIP3    H231400   1.658   0.694  16.318 -0.4355  1.2411 -1.1258
 3329TIP3   OH231401   5.407   0.697   2.821 -0.7357 -0.0902  0.4976
 3329TIP3    H131402   5.362   0.614   2.836  0.7855 -0.9656  0.3597
 3329TIP3    H231403   5.445   0.689   2.734 -0.8935  0.8995  0.3335
 3330TIP3   OH231404   3.242   4.684  13.584 -0.3744 -0.5282 -0.2784
 3330TIP3    H131405   3.338   4.684  13.590 -0.2793 -0.2089 -1.6192
 3330TIP3    H231406   3.216   4.599  13.618  0.3658 -0.5234  0.3280
 3331TIP3   OH231407   2.849   0.948  14.383  0.0580 -0.4789  0.2068
 3331TIP3    H131408   2.836   0.964  14.477 -0.9640 -0.7878  0.1250
 3331TIP3    H231409   2.841   0.853  14.373  0.1238 -0.4428 -0.1944
 3332TIP3   OH231410   5.052   0.280  16.949 -0.2752 -0.2086  0.2131
 3332TIP3    H131411   5.032   0.204  17.003 -0.8838 -0.2829 -0.1165
 3332TIP3    H231412   4.968   0.309  16.915  0.0323  0.2034 -0.2160
 3333TIP3   OH231413   1.862   0.313  11.968  0.0094  0.7810  0.1613
 3333TIP3    H131414   1.774   0.277  11.977  0.7010 -1.5322 -1.6970
 3333TIP3    H231415   1.854   0.377  11.898  0.1432 -0.8344 -1.3803
 3334TIP3   OH231416   4.890   2.137  14.801 -1.4459 -0.1766  0.2877
 3334TIP3    H131417   4.845   2.213  14.763 -0.3779  0.3932  0.1061
 3334TIP3    H231418   4.848   2.124  14.886 -0.4317  1.7934  1.1299
 3335TIP3   OH231419   5.532   2.764   0.722 -0.1493  0.3345  0.1647
 3335TIP3    H131420   5.618   2.792   0.690 -1.2477  1.4953 -1.9077
 3335TIP3    H231421   5.507   2.832   0.785  1.0053 -0.7143  1.7856
 3336TIP3   OH231422   4.282   2.991  16.694 -0.1517  0.2371 -0.1321
 3336TIP3    H131423   4.326   3.014  16.776 -0.1346 -2.4590  0.6780
 3336TIP3    H231424   4.344   2.932  16.650 -0.6286  0.7987 -1.5808
 3337TIP3   OH231425   2.752   4.224  12.169  0.3798  0.8521  0.3745
 3337TIP3    H131426   2.761   4.157  12.237 -0.0155 -0.5136 -0.8999
 3337TIP3    H231427   2.774   4.179  12.088 -0.7593  2.0334 -0.6117
 3338TIP3   OH231428   1.352   3.539  14.782  0.1382  0.5118 -0.2697
 3338TIP3    H131429   1.439   3.576  14.796  0.7265 -0.7811 -0.4322
 3338TIP3    H231430   1.302   3.567  14.859  1.5193 -1.1345  1.2628
 3339TIP3   OH231431   2.168   6.422  11.858  0.0400 -0.1511 -0.4776
 3339TIP3    H131432   2.255   6.388  11.839  0.0820  0.1859 -0.9026
 3339TIP3    H231433   2.149   6.481  11.785 -0.3481  0.1391 -0.1462
 3340TIP3   OH231434   5.685   0.451   0.584 -0.7565  0.1754  0.0707
 3340TIP3    H131435   5.697   0.519   0.518  0.3202  0.2958  0.3779
 3340TIP3    H231436   5.614   0.396   0.550 -1.1676  1.0576 -0.4960
 3341TIP3   OH231437   3.311   3.663  13.441 -0.3886  0.1658 -0.2068
 3341TIP3    H131438   3.393   3.643  13.487 -0.3412 -0.3809 -0.5329
 3341TIP3    H231439   3.335   3.732  13.379  0.0480 -0.7205 -1.0215
 3342TIP3   OH231440   4.958   2.060   4.260  0.1969  0.4711  0.3967
 3342TIP3    H131441   4.886   2.014   4.302  0.3927 -0.3906 -0.1932
 3342TIP3    H231442   4.963   2.022   4.172  0.0118  1.9913 -0.2869
 3343TIP3   OH231443   2.827   1.401  15.617  0.0637  0.1815  0.2853
 3343TIP3    H131444   2.915   1.396  15.581  0.4393  1.2676  1.0488
 3343TIP3    H231445   2.803   1.310  15.633  1.9337 -0.0211  2.1790
 3344TIP3   OH231446   1.928   2.231   2.592  0.2090  0.1120  0.2463
 3344TIP3    H131447   1.929   2.203   2.683  0.4772 -0.8890 -0.0507
 3344TIP3    H231448   1.837   2.258   2.576  0.1443  0.2200  0.7883
 3345TIP3   OH231449   1.575   5.718  10.682  0.1306  0.2595 -0.4078
 3345TIP3    H131450   1.526   5.800  10.690 -1.4346 -0.7382  0.7223
 3345TIP3    H231451   1.665   5.740  10.706 -0.3814  1.5536  0.3274
 3346TIP3   OH231452   3.513   3.474  15.479 -0.4678  0.2025  0.1335
 3346TIP3    H131453   3.606   3.454  15.466 -0.7616 -0.5515 -0.8851
 3346TIP3    H231454   3.493   3.441  15.566  0.0484 -0.2691  0.0731
 3347TIP3   OH231455   2.381   3.347   0.921  0.1391  0.4642 -0.1590
 3347TIP3    H131456   2.402   3.370   1.012  0.5207  0.2182 -0.1852
 3347TIP3    H231457   2.377   3.432   0.876 -1.2864  0.6693  0.3454
 3348TIP3   OH231458   1.484   5.861   2.123 -0.2637 -0.2827  0.0471
 3348TIP3    H131459   1.476   5.956   2.117 -0.0416 -0.2359  0.4772
 3348TIP3    H231460   1.577   5.844   2.105 -0.4671 -0.4898 -0.8543
 3349TIP3   OH231461   3.297   6.680  12.446 -0.4960  0.0295  0.0683
 3349TIP3    H131462   3.360   6.655  12.515  0.3682  2.6059  0.2598
 3349TIP3    H231463   3.243   6.748  12.487 -0.0104  1.5499 -1.7683
 3350TIP3   OH231464   0.306   2.073  12.354  0.5595 -0.7959  0.2317
 3350TIP3    H131465   0.363   1.996  12.348  0.3956 -0.8637 -0.5012
 3350TIP3    H231466   0.322   2.122  12.273  0.3487 -0.2759  0.4981
 3351TIP3   OH231467   4.866   2.559   0.437  0.0931  0.1129  0.7114
 3351TIP3    H131468   4.870   2.652   0.458 -0.6913  0.0385  1.2284
 3351TIP3    H231469   4.775   2.544   0.410  0.3463 -0.3972  0.1087
 3352TIP3   OH231470   4.391   0.351  16.054  0.5129  0.5352 -0.3573
 3352TIP3    H131471   4.325   0.289  16.022  1.1641  0.4386 -1.5159
 3352TIP3    H231472   4.345   0.435  16.056  0.3725  0.4848 -1.2598
 3353TIP3   OH231473   0.384   6.011  11.904  0.2923 -0.5011 -0.6338
 3353TIP3    H131474   0.378   6.031  11.811 -0.9081 -1.8161 -0.8528
 3353TIP3    H231475   0.313   6.063  11.944 -1.2515 -2.3599 -0.8877
 3354TIP3   OH231476   5.417   0.851   4.992  0.6766  0.3612 -0.1406
 3354TIP3    H131477   5.395   0.916   4.925 -0.6051  0.2763  0.1869
 3354TIP3    H231478   5.421   0.901   5.074 -1.2501 -0.1048  0.2632
 3355TIP3   OH231479   2.540   0.708   1.983 -0.3372 -0.9559  0.0556
 3355TIP3    H131480   2.561   0.652   1.908 -0.0871  0.1422 -0.7137
 3355TIP3    H231481   2.480   0.657   2.036 -1.9080 -1.0715 -1.7970
 3356TIP3   OH231482   6.114   1.650   5.119 -0.1241 -0.0089 -0.2723
 3356TIP3    H131483   6.111   1.559   5.148 -1.3314  0.4319  1.0441
 3356TIP3    H231484   6.141   1.645   5.027  0.4985 -1.6356 -0.0240
 3357TIP3   OH231485   5.830   0.926  13.560 -0.2290 -0.2738 -0.3722
 3357TIP3    H131486   5.834   0.892  13.650  0.6680 -1.2900 -0.7867
 3357TIP3    H231487   5.748   0.975  13.557 -1.0823 -1.6073  0.5296
 3358TIP3   OH231488   6.040   2.409  15.569  0.1826 -0.0360  0.2834
 3358TIP3    H131489   6.135   2.413  15.581  0.1322 -2.0631  1.6814
 3358TIP3    H231490   6.004   2.442  15.652 -0.3623  1.4596 -0.5261
 3359TIP3   OH231491   5.024   5.155   1.007 -0.3012 -0.2176 -0.4508
 3359TIP3    H131492   5.072   5.218   1.060  0.3144  0.2968 -1.6083
 3359TIP3    H231493   4.974   5.104   1.071  1.2317 -0.3087  0.7212
 3360TIP3   OH231494   3.598   1.918  16.884 -0.5915  0.4577  0.5026
 3360TIP3    H131495   3.505   1.921  16.906 -0.4181  0.5283  1.2331
 3360TIP3    H231496   3.641   1.963  16.955 -0.0756  1.2962 -0.3309
 3361TIP3   OH231497   3.922   3.801   2.564 -0.1367  0.6691 -0.7277
 3361TIP3    H131498   3.912   3.740   2.637 -0.8398 -1.2689 -2.3920
 3361TIP3    H231499   3.870   3.877   2.589  0.8879  0.6884  1.4593
 3362TIP3   OH231500   0.705   6.512  16.692  0.6057 -0.5554 -0.7684
 3362TIP3    H131501   0.747   6.568  16.758 -0.2829 -2.4406  1.4463
 3362TIP3    H231502   0.661   6.444  16.742  1.3004 -3.0284 -3.3795
 3363TIP3   OH231503   2.354   1.281   3.834  0.5607  0.5802  0.6905
 3363TIP3    H131504   2.446   1.255   3.822  0.5891  0.8323  0.3651
 3363TIP3    H231505   2.331   1.325   3.752 -0.0981 -0.2045  0.4494
 3364TIP3   OH231506   0.557   0.395   3.808 -0.2580 -0.2597  0.9699
 3364TIP3    H131507   0.613   0.324   3.779  0.5398  0.6809  0.1861
 3364TIP3    H231508   0.609   0.474   3.795 -1.5206  0.5709  0.8497
 3365TIP3   OH231509   6.413   4.240  15.641  0.8228 -0.1026 -0.3029
 3365TIP3    H131510   6.368   4.156  15.624  0.3348  0.3485 -1.2920
 3365TIP3    H231511   6.506   4.217  15.643  0.6595 -0.7647  0.0195
 3366TIP3   OH231512   2.991   0.499   0.462  0.2090 -0.5448 -0.3570
 3366TIP3    H131513   3.086   0.505   0.448  0.1114  0.2785 -0.6952
 3366TIP3    H231514   2.975   0.548   0.542 -0.1005  0.4808 -1.0354
 3367TIP3   OH231515   5.426   2.523   0.879 -0.3574 -0.0588 -0.4771
 3367TIP3    H131516   5.463   2.438   0.853  0.9970 -0.1490  1.5945
 3367TIP3    H231517   5.470   2.587   0.823 -0.3638 -0.6058 -1.1099
 3368TIP3   OH231518   5.385   4.577   2.257  0.3134  0.2622  0.6363
 3368TIP3    H131519   5.305   4.624   2.233  0.8936  0.9060 -0.0695
 3368TIP3    H231520   5.359   4.520   2.329 -0.7046  0.7193  0.6344
 3369TIP3   OH231521   3.702   1.869   5.195  0.2201 -0.0180  0.1004
 3369TIP3    H131522   3.730   1.958   5.220 -0.0391  0.2869 -0.6723
 3369TIP3    H231523   3.663   1.880   5.109  0.5644 -0.9596 -0.1811
 3370TIP3   OH231524   0.416   1.236   0.782 -0.1519  0.1249  0.6987
 3370TIP3    H131525   0.375   1.310   0.827 -0.9808 -0.3894  0.7999
 3370TIP3    H231526   0.364   1.224   0.703  1.5043  1.2371 -0.6004
 3371TIP3   OH231527   1.061   0.317  16.455 -0.6333  0.1051 -0.2593
 3371TIP3    H131528   1.048   0.374  16.379 -0.2643 -2.2918 -2.1911
 3371TIP3    H231529   1.149   0.281  16.443 -0.5520 -0.2742  1.3402
 3372TIP3   OH231530   2.749   5.609  16.711  0.3719  0.2126 -0.1273
 3372TIP3    H131531   2.793   5.632  16.629 -0.6606 -0.0057 -0.7512
 3372TIP3    H231532   2.675   5.554  16.684 -0.5230  0.9058  0.8624
 3373TIP3   OH231533   3.850   6.320  11.754 -0.2485 -0.4469 -0.7376
 3373TIP3    H131534   3.774   6.264  11.770 -1.9158  1.8250 -0.4960
 3373TIP3    H231535   3.913   6.293  11.821 -1.8929 -0.4769  0.8582
 3374TIP3   OH231536   3.929   0.227   0.711  0.0681  0.6899 -0.1073
 3374TIP3    H131537   3.961   0.148   0.753 -0.8342  0.6367  0.4972
 3374TIP3    H231538   3.962   0.223   0.621 -0.3880 -0.6136 -0.2190
 3375TIP3   OH231539   3.909   4.960   2.012 -0.1831 -0.1289 -0.0499
 3375TIP3    H131540   3.897   4.902   1.936 -0.7673  0.3080 -0.2860
 3375TIP3    H231541   3.966   4.910   2.071  1.5766  0.1497 -1.4622
 3376TIP3   OH231542   5.304   1.012  16.338 -0.1206  0.0902  0.0929
 3376TIP3    H131543   5.360   1.090  16.345 -0.2423  0.2130 -0.2460
 3376TIP3    H231544   5.286   1.005  16.244  0.5773 -0.8411  0.0246
 3377TIP3   OH231545   1.615   6.114  16.857  0.1524 -0.1384 -0.1579
 3377TIP3    H131546   1.696   6.151  16.893  0.5892 -0.1221 -1.1496
 3377TIP3    H231547   1.576   6.185  16.807  0.0706 -0.4693 -0.5705
 3378TIP3   OH231548   6.239   5.267   0.751 -0.0384 -0.4806 -0.3101
 3378TIP3    H131549   6.204   5.292   0.666 -2.1741  1.8824  1.1720
 3378TIP3    H231550   6.334   5.266   0.740 -0.2382  1.2195 -2.3379
 3379TIP3   OH231551   0.243   5.057  16.596 -0.7567 -0.0007 -0.6612
 3379TIP3    H131552   0.250   5.069  16.502 -0.3683 -1.3564 -0.8053
 3379TIP3    H231553   0.149   5.055  16.614 -0.8257 -0.8753 -1.1554
 3380TIP3   OH231554   4.317   4.545   6.361 -0.1117 -0.2382 -0.2049
 3380TIP3    H131555   4.392   4.604   6.355 -0.5726  0.4134  0.3755
 3380TIP3    H231556   4.331   4.496   6.442 -2.0464  2.3297  1.7696
 3381TIP3   OH231557   5.751   4.515   5.574  0.6233 -0.0598 -0.2875
 3381TIP3    H131558   5.704   4.517   5.658  1.8923  0.4136  0.4224
 3381TIP3    H231559   5.825   4.575   5.587  0.6447  0.2609 -1.8584
 3382TIP3   OH231560   5.618   6.762   1.070 -0.5796  0.2084 -0.0338
 3382TIP3    H131561   5.624   6.852   1.100  0.5919 -0.2684  1.2241
 3382TIP3    H231562   5.578   6.715   1.144 -0.8259 -0.3605 -0.5264
 3383TIP3   OH231563   0.910   0.701   4.556  0.7029 -0.3970  0.1995
 3383TIP3    H131564   0.906   0.731   4.646 -1.0809 -2.2429  0.7687
 3383TIP3    H231565   0.963   0.622   4.559 -0.0097 -0.9035 -0.2150
 3384TIP3   OH231566   6.700   0.240   5.642 -0.2273  0.0777  0.2695
 3384TIP3    H131567   6.695   0.190   5.723  2.8506  1.6102  1.4700
 3384TIP3    H231568   6.743   0.182   5.580 -1.0329 -0.4840  0.2351
 3385TIP3   OH231569   4.329   2.497   3.855  0.7352  0.0235 -0.0111
 3385TIP3    H131570   4.248   2.511   3.904 -0.1384 -1.9110 -0.9094
 3385TIP3    H231571   4.381   2.439   3.911  0.6029 -0.5096 -0.4486
 3386TIP3   OH231572   5.125   0.822  16.378 -0.6414  0.2259  0.4532
 3386TIP3    H131573   5.108   0.797  16.469 -1.0154 -0.2760  0.2449
 3386TIP3    H231574   5.174   0.904  16.385  0.8230 -0.7088  1.1329
 3387TIP3   OH231575   1.099   2.776   2.430 -0.3207  0.6559 -0.0196
 3387TIP3    H131576   1.151   2.856   2.440  0.7628 -0.1856  1.2772
 3387TIP3    H231577   1.087   2.744   2.519 -0.1388 -1.0038 -0.5670
 3388TIP3   OH231578   1.601   1.645  16.812 -0.6499 -0.3055 -0.2646
 3388TIP3    H131579   1.625   1.735  16.832 -0.8820 -0.3961  0.4503
 3388TIP3    H231580   1.647   1.592  16.878 -0.4975 -0.7115 -0.6911
 3389TIP3   OH231581   6.709   3.529  16.935  0.5602 -0.4144  0.5628
 3389TIP3    H131582   6.627   3.570  16.906 -0.1809 -2.1858  0.0515
 3389TIP3    H231583   6.726   3.569  17.021 -1.2633 -0.5498  1.0191
 3390TIP3   OH231584   3.191   4.768   0.614 -0.5854 -0.6033  0.0764
 3390TIP3    H131585   3.276   4.773   0.572 -1.4032 -1.0207 -1.6673
 3390TIP3    H231586   3.128   4.769   0.542 -2.0309 -1.0292  1.2965
 3391TIP3   OH231587   1.204   2.656   5.248 -0.2122  0.6821  0.1433
 3391TIP3    H131588   1.277   2.702   5.289 -1.1629  1.7514  0.6818
 3391TIP3    H231589   1.230   2.564   5.247  0.8926  0.9862  0.8396
 3392TIP3   OH231590   3.281   4.839  16.234 -0.0683  0.7044  0.0280
 3392TIP3    H131591   3.219   4.893  16.186 -1.8143  0.1457  1.5944
 3392TIP3    H231592   3.366   4.880  16.217 -1.0533  2.4726 -0.8218
 3393TIP3   OH231593   3.974   2.245   0.792 -0.5908  0.1792 -0.2413
 3393TIP3    H131594   3.885   2.269   0.770 -0.1975 -0.8000 -3.0975
 3393TIP3    H231595   4.027   2.276   0.718  1.1952 -0.7653  0.5891
 3394TIP3   OH231596   4.898   0.987   0.199 -0.1563  0.4984 -1.1086
 3394TIP3    H131597   4.914   1.081   0.209  0.7881  0.3275 -0.9604
 3394TIP3    H231598   4.982   0.946   0.220 -0.5158 -0.3700 -1.3422
 3395TIP3   OH231599   3.308   5.500   5.481 -0.0629  0.7611 -0.0116
 3395TIP3    H131600   3.277   5.412   5.500 -0.1166  0.7677 -0.0700
 3395TIP3    H231601   3.244   5.536   5.420  0.3387  0.5833 -0.5509
 3396TIP3   OH231602   2.479   0.894  14.811 -0.2505 -0.1156  0.3384
 3396TIP3    H131603   2.570   0.909  14.784 -0.9576 -0.3772 -2.3260
 3396TIP3    H231604   2.471   0.940  14.895  1.5697  2.3746 -0.7836
 3397TIP3   OH231605   1.500   2.780  14.057 -0.4729 -0.2185  0.2634
 3397TIP3    H131606   1.485   2.702  14.003  1.8700 -0.4548 -0.1000
 3397TIP3    H231607   1.494   2.748  14.147  0.5658 -0.8568  0.1138
 3398TIP3   OH231608   2.191   0.403  16.950  0.6432  0.0612  0.0930
 3398TIP3    H131609   2.283   0.422  16.970  0.5000  0.3894  0.4364
 3398TIP3    H231610   2.143   0.481  16.978  0.1839 -0.3640  0.5106
 3399TIP3   OH231611   6.582   0.848   4.807 -0.6385  0.3121 -0.1687
 3399TIP3    H131612   6.570   0.813   4.719 -2.1640 -1.0411  0.5677
 3399TIP3    H231613   6.497   0.884   4.832 -0.4950 -0.1743  1.1074
 3400TIP3   OH231614   6.213   6.111   5.946 -0.5641  0.0148  0.2606
 3400TIP3    H131615   6.167   6.177   5.896 -2.6132  0.1006  2.1901
 3400TIP3    H231616   6.178   6.028   5.914  0.5558 -0.0683 -0.7656
 3401TIP3   OH231617   6.114   6.641   0.887  0.6974  0.3249  0.1174
 3401TIP3    H131618   6.072   6.565   0.928  0.3931 -0.6014 -1.8547
 3401TIP3    H231619   6.046   6.708   0.885  0.5152  0.1568  0.5033
 3402TIP3   OH231620   4.790   5.186  16.072 -0.0901 -0.4485  0.0051
 3402TIP3    H131621   4.841   5.113  16.108 -0.7392 -0.9649 -0.1233
 3402TIP3    H231622   4.699   5.165  16.093 -0.2791  0.3175 -0.0470
 3403TIP3   OH231623   2.891   6.414   5.305 -0.2268  0.0661  0.3892
 3403TIP3    H131624   2.960   6.434   5.241  0.9941  1.3409  2.0722
 3403TIP3    H231625   2.879   6.319   5.297  0.4150  0.0970 -1.2211
 3404TIP3   OH231626   1.140   2.829  10.840  0.4027  0.0061 -0.5495
 3404TIP3    H131627   1.132   2.845  10.934 -0.1925  0.5515 -0.6967
 3404TIP3    H231628   1.172   2.739  10.834  2.1121  0.5409  0.2256
 3405TIP3   OH231629   3.374   4.027   3.852 -0.1531  0.3492  0.1459
 3405TIP3    H131630   3.327   4.050   3.931  0.7140  1.7819  0.2529
 3405TIP3    H231631   3.362   4.102   3.794 -0.9281 -0.7555 -1.1609
 3406TIP3   OH231632   4.892   2.967   3.233 -0.3083 -0.0925 -0.2950
 3406TIP3    H131633   4.808   2.957   3.189  1.0593  1.8200 -3.5789
 3406TIP3    H231634   4.921   3.055   3.209  2.2287 -0.4020  1.4573
 3407TIP3   OH231635   6.433   4.837   2.210  0.0118 -0.1096 -0.1425
 3407TIP3    H131636   6.459   4.833   2.302 -0.5662 -0.7811 -0.0027
 3407TIP3    H231637   6.441   4.930   2.187 -1.4634  0.3477  1.0810
 3408TIP3   OH231638   0.369   2.505   5.029 -0.0583 -0.3865  0.3430
 3408TIP3    H131639   0.441   2.514   5.091  0.2738  0.5000 -0.1659
 3408TIP3    H231640   0.402   2.544   4.948 -0.8845 -0.5404 -0.0703
 3409TIP3   OH231641   5.243   5.065  16.280 -0.1220 -0.2177 -0.1095
 3409TIP3    H131642   5.308   5.004  16.247 -0.2161  0.0557 -0.8031
 3409TIP3    H231643   5.275   5.090  16.367 -0.1433 -1.3300  0.2190
 3410TIP3   OH231644   5.425   5.839   1.456  0.0884  0.5117 -0.2517
 3410TIP3    H131645   5.384   5.854   1.371  0.4609  0.1717 -0.4956
 3410TIP3    H231646   5.375   5.894   1.517 -0.2256  0.7013 -0.6748
 3411TIP3   OH231647   3.343   1.401  11.713  0.0718 -0.9209  0.6853
 3411TIP3    H131648   3.299   1.398  11.799  1.2546  0.2034  1.3364
 3411TIP3    H231649   3.396   1.480  11.716 -0.7560 -0.2459 -1.5377
 3412TIP3   OH231650   5.650   0.706  15.745 -0.2593  0.4236  0.1809
 3412TIP3    H131651   5.576   0.676  15.797 -0.0888  0.2319  0.3101
 3412TIP3    H231652   5.699   0.764  15.804 -0.2095  0.4104  0.1534
 3413TIP3   OH231653   4.416   4.279  15.487  0.0166  0.0036 -0.2985
 3413TIP3    H131654   4.488   4.262  15.547 -0.0726 -1.1938 -0.5218
 3413TIP3    H231655   4.452   4.261  15.400 -0.4649 -0.3097 -0.4344
 3414TIP3   OH231656   0.327   3.749  14.676  0.2580  0.2707 -0.7006
 3414TIP3    H131657   0.324   3.665  14.629  0.8928 -0.2954  0.2702
 3414TIP3    H231658   0.242   3.755  14.719  0.3186  0.0019 -0.5460
 3415TIP3   OH231659   2.985   5.661   3.169  0.9900 -0.2194 -0.1545
 3415TIP3    H131660   3.063   5.605   3.163  1.6495  0.5565  1.0081
 3415TIP3    H231661   3.020   5.750   3.175  0.0498  0.0422  1.6060
 3416TIP3   OH231662   3.635   5.613  13.298  0.4592 -0.4118 -0.5298
 3416TIP3    H131663   3.689   5.688  13.272  2.2206 -0.9016  1.5292
 3416TIP3    H231664   3.561   5.652  13.345  1.6529  0.0513  1.0196
 3417TIP3   OH231665   4.451   6.099  12.212  0.1096  0.0804  0.2763
 3417TIP3    H131666   4.535   6.135  12.240  0.9424 -1.6328  0.0842
 3417TIP3    H231667   4.432   6.030  12.276 -1.7961  1.3252  1.0639
 3418TIP3   OH231668   5.251   5.770  16.656  0.0899  0.2613  0.6486
 3418TIP3    H131669   5.258   5.811  16.742 -1.9011 -1.6020  1.7614
 3418TIP3    H231670   5.322   5.706  16.654 -0.2603 -0.1497  1.1928
 3419TIP3   OH231671   6.179   5.447  11.803 -0.3449  0.0233 -0.0397
 3419TIP3    H131672   6.086   5.447  11.781 -0.6504 -0.8048  1.2166
 3419TIP3    H231673   6.204   5.540  11.801 -0.6431  0.0719 -2.5866
 3420TIP3   OH231674   0.368   5.961  15.570 -0.1172  0.1581  0.9297
 3420TIP3    H131675   0.346   6.051  15.594  1.4210  0.2528  2.0785
 3420TIP3    H231676   0.463   5.957  15.579 -0.0662 -1.2952 -0.1371
 3421TIP3   OH231677   1.180   2.269   3.986  0.3428 -0.0278 -0.1833
 3421TIP3    H131678   1.102   2.252   3.934  1.2854  1.1011 -2.0319
 3421TIP3    H231679   1.148   2.303   4.069 -1.2058 -1.9978  0.0544
 3422TIP3   OH231680   0.835   0.341   4.749  0.4571  0.0938  0.1433
 3422TIP3    H131681   0.902   0.315   4.813 -0.3380  1.5741  1.6285
 3422TIP3    H231682   0.858   0.294   4.669  3.2231  0.5468  0.6508
 3423TIP3   OH231683   6.638   4.538   1.567  0.0871 -0.1511 -0.4581
 3423TIP3    H131684   6.584   4.559   1.491  0.7740  0.1169 -0.8824
 3423TIP3    H231685   6.710   4.601   1.564  0.4946 -0.5772  0.0265
 3424TIP3   OH231686   0.324   4.100  14.054 -0.2207  0.6132 -0.2896
 3424TIP3    H131687   0.322   4.068  13.963  0.6238 -1.0915  0.2620
 3424TIP3    H231688   0.418   4.110  14.073 -0.2626 -1.7740  1.3049
 3425TIP3   OH231689   4.205   1.198  14.200  0.5499 -0.1102  0.3885
 3425TIP3    H131690   4.121   1.158  14.176  0.4397  0.1584  0.3330
 3425TIP3    H231691   4.214   1.273  14.142  0.8399 -0.1491  0.3819
 3426TIP3   OH231692   5.946   0.032  14.489  0.0219 -0.0454  0.4164
 3426TIP3    H131693   6.001  -0.046  14.478 -0.3409 -0.4824  1.6071
 3426TIP3    H231694   5.969   0.089  14.416  0.8139 -0.9708 -0.0552
 3427TIP3   OH231695   0.574   5.434  11.501  0.0790  0.0282 -0.2510
 3427TIP3    H131696   0.587   5.412  11.409 -0.9914 -0.3029 -0.3275
 3427TIP3    H231697   0.490   5.393  11.524 -0.0395  0.7688  0.6550
 3428TIP3   OH231698   3.558   0.321   5.581 -0.4026  0.1408  0.3475
 3428TIP3    H131699   3.613   0.302   5.657  0.6103 -1.2360 -0.7095
 3428TIP3    H231700   3.497   0.248   5.577 -0.5202  0.2629 -0.0871
 3429TIP3   OH231701   2.883   2.816  15.741 -0.5301  0.0702  0.3713
 3429TIP3    H131702   2.821   2.884  15.768  0.0431  1.1453 -0.9455
 3429TIP3    H231703   2.865   2.742  15.799 -2.1223  0.8510  0.8959
 3430TIP3   OH231704   0.876   2.772  14.721 -0.1273  0.1576  0.3614
 3430TIP3    H131705   0.865   2.790  14.815  0.6138 -0.0788  0.4956
 3430TIP3    H231706   0.857   2.855  14.678  2.5277  1.0867  0.9194
 3431TIP3   OH231707   6.642   5.206  13.685 -0.4591  0.2514 -0.0704
 3431TIP3    H131708   6.546   5.208  13.692 -0.3264  0.2933  1.8056
 3431TIP3    H231709   6.665   5.115  13.701  0.0404  0.8481  2.9128
 3432TIP3   OH231710   1.011   2.256  16.178 -0.0964 -0.3826  0.9274
 3432TIP3    H131711   0.925   2.284  16.207 -0.4437 -1.2211  0.7196
 3432TIP3    H231712   1.043   2.200  16.249 -0.0304 -0.6668  0.6736
 3433TIP3   OH231713   5.790   2.066  13.133 -0.3806  0.0007 -0.5828
 3433TIP3    H131714   5.789   2.102  13.044  0.6881 -1.9192 -1.4140
 3433TIP3    H231715   5.742   1.983  13.126  1.2797 -1.0544  0.2040
 3434TIP3   OH231716   5.451   4.434  13.933  0.2099  0.0188  0.8114
 3434TIP3    H131717   5.389   4.382  13.883  0.3964  1.1512 -0.6253
 3434TIP3    H231718   5.495   4.371  13.990 -1.4565 -0.9590  1.0501
 3435TIP3   OH231719   6.766   1.542  13.552 -0.2884  0.6171 -0.3325
 3435TIP3    H131720   6.709   1.587  13.614 -0.0292 -0.2414  0.5347
 3435TIP3    H231721   6.721   1.550  13.468  0.5588  3.9856 -0.5365
 3436TIP3   OH231722   0.567   2.164   2.744 -0.5829  0.5718  0.2099
 3436TIP3    H131723   0.593   2.152   2.836  0.2663  0.3582 -0.0530
 3436TIP3    H231724   0.481   2.121   2.738 -2.7972  4.4734  1.9614
 3437TIP3   OH231725   1.437   6.106  15.350 -0.2166  0.3456 -0.3378
 3437TIP3    H131726   1.476   6.029  15.308 -1.3545 -0.8408  0.7370
 3437TIP3    H231727   1.440   6.087  15.443 -0.1849  1.7807 -0.0327
 3438TIP3   OH231728   3.989   3.698  15.676  0.0477  0.2484  0.1446
 3438TIP3    H131729   3.899   3.703  15.708  1.1650  1.7509  3.2727
 3438TIP3    H231730   4.026   3.621  15.720 -0.2047 -1.5501 -2.6488
 3439TIP3   OH231731   5.647   5.063  16.225  0.0722  0.6946 -0.6129
 3439TIP3    H131732   5.621   5.128  16.160  1.3583  2.4572  0.5840
 3439TIP3    H231733   5.658   5.113  16.306 -0.7565 -1.3243  0.7884
 3440TIP3   OH231734   3.048   4.076   2.400  0.3401 -0.5936  0.4051
 3440TIP3    H131735   3.050   4.132   2.322  0.8239 -3.5733 -1.8605
 3440TIP3    H231736   2.978   4.013   2.382 -0.7069 -0.2575  3.1967
 3441TIP3   OH231737   0.051   5.892  13.018 -0.1754  0.5018  0.6936
 3441TIP3    H131738   0.067   5.809  13.064 -2.8378 -0.1852  0.5108
 3441TIP3    H231739   0.040   5.956  13.088  2.6847  0.8997  0.8232
 3442TIP3   OH231740   1.047   2.895   6.768  0.1135 -0.1463  0.3739
 3442TIP3    H131741   0.965   2.911   6.814  1.0350 -0.0639  2.0466
 3442TIP3    H231742   1.049   2.962   6.699 -0.9567  0.1997  0.6633
 3443TIP3   OH231743   2.366   3.140   3.560 -0.2758  0.0034  0.1935
 3443TIP3    H131744   2.279   3.103   3.577  0.4381 -2.4666 -1.2870
 3443TIP3    H231745   2.424   3.091   3.618  0.2356  1.2520  0.7557
 3444TIP3   OH231746   1.282   1.934   4.471  0.0047 -0.1521 -0.6223
 3444TIP3    H131747   1.308   2.012   4.519 -1.0566  0.5069 -1.1184
 3444TIP3    H231748   1.365   1.894   4.445  0.5635  1.7716 -1.9196
 3445TIP3   OH231749   3.435   2.837   3.473 -0.7749  0.2587 -0.0966
 3445TIP3    H131750   3.515   2.880   3.503 -0.6345 -1.6772  2.4854
 3445TIP3    H231751   3.452   2.815   3.381  1.7024 -0.1867  0.4396
 3446TIP3   OH231752   0.443   6.272  13.738 -0.0627 -0.3922  0.5253
 3446TIP3    H131753   0.480   6.196  13.783 -1.4086 -1.8033 -0.7103
 3446TIP3    H231754   0.363   6.239  13.697 -0.2696  1.5234 -0.6417
 3447TIP3   OH231755   3.721   2.504  14.695 -0.4368 -0.7611 -0.0714
 3447TIP3    H131756   3.688   2.499  14.785 -0.5105 -1.3837 -0.1327
 3447TIP3    H231757   3.755   2.594  14.687  1.8223 -1.4544  1.3460
 3448TIP3   OH231758   0.969   2.047  16.398 -0.5630 -0.2722  0.3673
 3448TIP3    H131759   0.916   2.100  16.457 -0.5609 -1.0712  1.0877
 3448TIP3    H231760   0.905   1.994  16.349 -0.6521  1.2865 -1.2462
 3449TIP3   OH231761   0.062   4.502   4.346 -0.5521  0.1796  0.0207
 3449TIP3    H131762  -0.007   4.569   4.346 -0.6044  0.1298  1.9827
 3449TIP3    H231763   0.026   4.430   4.397 -0.0533 -0.9213 -1.1495
 3450TIP3   OH231764   4.331   5.421   1.689 -0.5461 -0.0133  0.3433
 3450TIP3    H131765   4.344   5.471   1.609 -0.4524  0.2319  0.5113
 3450TIP3    H231766   4.416   5.424   1.733 -0.0351 -1.8378 -0.5044
 3451TIP3   OH231767   5.991   4.054   5.824  0.2202  1.0765 -0.3278
 3451TIP3    H131768   5.895   4.061   5.819 -0.2500 -1.8973  2.8085
 3451TIP3    H231769   6.012   4.078   5.914  2.4380  1.6375 -0.9773
 3452TIP3   OH231770   2.403   5.358   1.299 -0.3359  0.2407  0.1631
 3452TIP3    H131771   2.450   5.377   1.380  0.4402  1.2176 -0.4981
 3452TIP3    H231772   2.335   5.424   1.295 -0.8704 -0.2925  0.4047
 3453TIP3   OH231773   0.814   4.612   0.756  0.8022 -0.3996 -0.4028
 3453TIP3    H131774   0.835   4.521   0.737 -0.8650 -1.1929  1.3263
 3453TIP3    H231775   0.773   4.644   0.675  1.6099 -1.0925 -1.1032
 3454TIP3   OH231776   3.772   5.886   4.342 -0.4624 -0.2773 -0.0606
 3454TIP3    H131777   3.778   5.805   4.290  1.6564 -2.8878  4.0162
 3454TIP3    H231778   3.685   5.883   4.380 -0.6889 -0.2049 -0.5653
 3455TIP3   OH231779   4.410   1.795   2.467  0.2470 -0.3337  0.2625
 3455TIP3    H131780   4.451   1.797   2.554  1.9583  0.6291 -0.5487
 3455TIP3    H231781   4.385   1.886   2.450  0.8121 -0.3455 -0.6620
 3456TIP3   OH231782   3.949   1.084  12.073  0.2803  0.2657 -0.3437
 3456TIP3    H131783   3.948   1.178  12.086  0.7059  0.1058  0.9259
 3456TIP3    H231784   4.015   1.052  12.134  1.1987 -0.7095 -1.8133
 3457TIP3   OH231785   4.086   0.109  12.779  0.2559  0.1409 -0.4156
 3457TIP3    H131786   4.006   0.085  12.827  0.0024  0.6309 -0.5916
 3457TIP3    H231787   4.058   0.180  12.722  1.0537  0.9958  0.2455
 3458TIP3   OH231788   4.194   0.048   4.466 -0.4388  0.5081  0.1662
 3458TIP3    H131789   4.130   0.050   4.395 -0.6703 -0.2582  0.3486
 3458TIP3    H231790   4.144   0.019   4.543  0.1627 -0.2770  0.2649
 3459TIP3   OH231791   6.128   0.259  16.389 -0.1131  0.4205 -0.1197
 3459TIP3    H131792   6.131   0.287  16.480 -1.7515  1.0567 -0.2362
 3459TIP3    H231793   6.162   0.333  16.340 -1.0485  0.8393 -0.1538
 3460TIP3   OH231794   3.595   3.286   2.752 -0.1227 -0.7843  0.0645
 3460TIP3    H131795   3.632   3.362   2.708 -3.2552  0.5349 -0.4186
 3460TIP3    H231796   3.592   3.218   2.684  1.2968 -0.8807  0.0929
 3461TIP3   OH231797   3.884   5.309   2.826  0.2584  0.8082  0.0558
 3461TIP3    H131798   3.809   5.266   2.868  1.1428 -0.6795  0.1123
 3461TIP3    H231799   3.845   5.357   2.753 -0.3726 -2.8037 -2.0667
 3462TIP3   OH231800   3.752   5.850   2.481  0.5594 -0.1064  0.2616
 3462TIP3    H131801   3.707   5.839   2.564  1.4318  0.4266  0.8040
 3462TIP3    H231802   3.733   5.769   2.433 -1.8033  0.5271  0.0756
 3463TIP3   OH231803   6.341   4.773  14.368  0.5876  0.1900  0.1784
 3463TIP3    H131804   6.406   4.833  14.332  0.0003  1.8382  1.8060
 3463TIP3    H231805   6.262   4.790  14.318  0.7690 -0.1703 -0.2377
 3464TIP3   OH231806   5.680   2.108  15.511  0.1266  0.4370  0.2758
 3464TIP3    H131807   5.740   2.039  15.483 -0.0725 -0.2387  1.4697
 3464TIP3    H231808   5.725   2.189  15.488  1.2684 -0.0722  0.6696
 3465TIP3   OH231809   5.252   5.054   2.593 -0.2468  0.1641  0.4862
 3465TIP3    H131810   5.226   4.970   2.632  1.1088 -1.1037 -1.1868
 3465TIP3    H231811   5.173   5.108   2.596 -0.7362 -0.6150  2.9913
 3466TIP3   OH231812   3.654   3.307  14.153 -0.1471  0.3182 -0.1196
 3466TIP3    H131813   3.614   3.249  14.088 -1.1707  0.3018  0.5290
 3466TIP3    H231814   3.660   3.254  14.232  1.8691  0.0669 -0.4094
 3467TIP3   OH231815   0.431   1.541   3.996 -0.1817  0.3934  0.1736
 3467TIP3    H131816   0.440   1.636   4.010 -1.2773  0.5408 -0.0806
 3467TIP3    H231817   0.337   1.527   3.986  0.0741 -0.5495 -1.0491
 3468TIP3   OH231818   1.332   3.016  14.174 -0.5001 -0.5308 -0.3690
 3468TIP3    H131819   1.337   2.953  14.103  0.9351  1.0523 -1.7067
 3468TIP3    H231820   1.422   3.032  14.200 -0.7620  1.5045 -0.5624
 3469TIP3   OH231821   0.394   5.863  12.291  0.0685 -0.0287  0.0690
 3469TIP3    H131822   0.416   5.869  12.384  2.1217 -0.4029 -0.3628
 3469TIP3    H231823   0.325   5.928  12.278  0.0481  0.3097  1.7671
 3470TIP3   OH231824   0.531   4.145   5.148 -0.1539 -0.3464  0.2518
 3470TIP3    H131825   0.479   4.225   5.156  0.7354  0.1406  1.3340
 3470TIP3    H231826   0.466   4.075   5.140 -0.9903  0.2557  1.5376
 3471TIP3   OH231827   3.968   3.038  14.616  0.4196  0.0605 -0.1596
 3471TIP3    H131828   3.984   3.079  14.531  0.1114  0.9785  0.2210
 3471TIP3    H231829   3.875   3.017  14.615  0.7971 -1.6553 -0.7921
 3472TIP3   OH231830   5.417   4.518  14.672 -0.2607 -0.2560 -0.0898
 3472TIP3    H131831   5.403   4.427  14.646 -1.6343 -0.0636 -0.0333
 3472TIP3    H231832   5.510   4.522  14.695 -0.3921 -1.8587  0.7580
 3473TIP3   OH231833   0.740   3.804   3.332  0.4272 -0.2465  0.2468
 3473TIP3    H131834   0.767   3.896   3.331  0.7276 -0.3419 -1.1845
 3473TIP3    H231835   0.785   3.765   3.257 -0.2855 -1.3963  0.4097
 3474TIP3   OH231836   2.173   1.540  15.022 -0.0860  0.2721 -0.3495
 3474TIP3    H131837   2.152   1.607  15.087  0.8114  1.0496 -0.8508
 3474TIP3    H231838   2.246   1.491  15.061 -1.2045 -0.9002  0.3369
 3475TIP3   OH231839   0.334   5.803   2.787  0.0829 -0.2197  0.2515
 3475TIP3    H131840   0.309   5.872   2.727  0.1451 -0.9196 -0.5867
 3475TIP3    H231841   0.399   5.751   2.739 -1.2508 -1.8839  0.2034
 3476TIP3   OH231842   4.810   1.147  11.815 -0.0302  0.2821 -0.1048
 3476TIP3    H131843   4.887   1.200  11.838 -1.4139  2.3236 -0.0284
 3476TIP3    H231844   4.736   1.198  11.846 -1.4712 -1.3601 -0.7590
 3477TIP3   OH231845   1.332   4.224   5.302 -0.6708 -0.0880 -0.7707
 3477TIP3    H131846   1.332   4.318   5.317  0.4028 -0.4282  1.5693
 3477TIP3    H231847   1.371   4.213   5.215 -0.9369  1.6284 -1.1094
 3478TIP3   OH231848   0.837   3.000  14.588  0.2768 -0.4872  0.4898
 3478TIP3    H131849   0.797   3.080  14.621  0.0787  0.3434 -1.7114
 3478TIP3    H231850   0.882   3.027  14.508  0.3794 -2.5321 -0.1618
 3479TIP3   OH231851   5.126   1.957  10.806 -0.1301 -0.7389 -0.0457
 3479TIP3    H131852   5.113   2.050  10.786 -0.2383 -0.6029  0.6372
 3479TIP3    H231853   5.185   1.926  10.737 -1.8582 -0.7047 -1.5930
 3480TIP3   OH231854   3.912   3.737  13.181  0.1458 -0.3493 -0.2377
 3480TIP3    H131855   3.858   3.795  13.126  1.6773  0.4385 -0.9418
 3480TIP3    H231856   3.856   3.715  13.255 -1.2627  0.1804 -1.1283
 3481TIP3   OH231857   5.572   6.558   2.005  0.3547  0.0268 -0.3797
 3481TIP3    H131858   5.645   6.517   2.051  1.6716  2.3119 -0.3517
 3481TIP3    H231859   5.607   6.578   1.918 -0.4540  0.5627 -0.5822
 3482TIP3   OH231860   4.433   4.572   4.461 -0.1383 -0.5850 -0.0776
 3482TIP3    H131861   4.355   4.543   4.508 -1.3169  0.7427 -1.1876
 3482TIP3    H231862   4.416   4.550   4.370  0.4463  0.4393 -0.4375
 3483TIP3   OH231863   0.091   3.726   0.491  0.0459 -0.0028 -0.2546
 3483TIP3    H131864   0.131   3.684   0.568 -2.1234 -0.4790  0.6440
 3483TIP3    H231865   0.005   3.685   0.484 -1.5505  3.2482 -0.2364
 3484TIP3   OH231866   0.696   0.588   5.905  0.1862  0.0284  0.1833
 3484TIP3    H131867   0.612   0.611   5.865 -0.3786 -2.7698 -0.3621
 3484TIP3    H231868   0.762   0.628   5.848 -0.7271  0.4866 -0.5600
 3485TIP3   OH231869   5.396   3.303   5.740  0.7653 -0.1104  0.6337
 3485TIP3    H131870   5.386   3.368   5.809 -1.4247 -0.8225  1.0394
 3485TIP3    H231871   5.338   3.333   5.670  1.5746 -0.3623 -0.1482
 3486TIP3   OH231872   1.450   0.720  12.826  0.2279 -0.4864 -0.0350
 3486TIP3    H131873   1.403   0.637  12.820 -1.4374  0.1278  3.1869
 3486TIP3    H231874   1.542   0.695  12.837 -0.0101 -1.8291 -1.0212
 3487TIP3   OH231875   1.734   2.321  14.522  0.4603  0.1304  0.3403
 3487TIP3    H131876   1.685   2.293  14.446 -0.2667  3.7918 -0.6438
 3487TIP3    H231877   1.691   2.278  14.596 -1.2664 -0.3831 -0.9345
 3488TIP3   OH231878   5.172   6.650  15.006  0.0746  0.4399  0.4680
 3488TIP3    H131879   5.128   6.574  15.045  1.0642  0.4108  1.5597
 3488TIP3    H231880   5.166   6.635  14.912 -1.4255 -0.0305  0.6206
 3489TIP3   OH231881   4.684   5.045   4.540  0.0706 -0.6337 -0.1022
 3489TIP3    H131882   4.596   5.010   4.526  0.9467 -2.5035 -1.1282
 3489TIP3    H231883   4.710   5.079   4.455  0.8583 -1.3345 -0.1501
 3490TIP3   OH231884   5.866   2.880   2.659 -0.0558  0.1508 -0.3370
 3490TIP3    H131885   5.838   2.970   2.645  1.6971  0.0258 -5.4693
 3490TIP3    H231886   5.945   2.887   2.713 -1.4734  1.4408  1.6103
 3491TIP3   OH231887   0.714   6.736  16.526 -0.7268 -0.6190 -0.0622
 3491TIP3    H131888   0.678   6.811  16.573  0.4731  1.1697 -1.9101
 3491TIP3    H231889   0.713   6.665  16.590 -1.1310  1.1694  1.9809
 3492TIP3   OH231890   4.347   4.427   5.625  0.0394  0.3875 -0.3147
 3492TIP3    H131891   4.429   4.443   5.578  0.5116 -2.0666 -0.3614
 3492TIP3    H231892   4.279   4.443   5.559  0.5718  0.2639 -0.9021
 3493TIP3   OH231893   2.673   0.901   2.135 -0.2560  0.1009  0.0191
 3493TIP3    H131894   2.637   0.844   2.066  0.4458 -1.1031  0.6425
 3493TIP3    H231895   2.635   0.987   2.116 -0.7141 -0.3882 -1.3992
 3494TIP3   OH231896   3.868   2.600  16.247 -0.1901 -0.3105 -0.0721
 3494TIP3    H131897   3.960   2.625  16.260 -0.1449 -0.6304  0.2329
 3494TIP3    H231898   3.849   2.542  16.320 -0.4314 -0.7882 -0.5071
 3495TIP3   OH231899   4.156   4.276  16.795  0.1622  0.1504  0.0275
 3495TIP3    H131900   4.101   4.349  16.823 -0.7675 -0.6214  0.2348
 3495TIP3    H231901   4.159   4.283  16.700 -0.2568  0.2277  0.0179
 3496TIP3   OH231902   2.102   0.878  10.748 -0.3645  0.5608  0.6637
 3496TIP3    H131903   2.117   0.968  10.719  0.3331  0.6282  1.2227
 3496TIP3    H231904   2.013   0.878  10.782  0.4578  1.6552  2.9443
 3497TIP3   OH231905   5.083   3.661   5.939  0.3447  0.0747  0.3523
 3497TIP3    H131906   5.070   3.700   6.026 -0.8780 -2.2814  1.2550
 3497TIP3    H231907   5.003   3.684   5.891  1.2492  1.8296 -0.3548
 3498TIP3   OH231908   5.358   6.416   0.345 -0.0592  0.0834  0.3062
 3498TIP3    H131909   5.385   6.491   0.292 -0.4600  0.7985  1.1164
 3498TIP3    H231910   5.441   6.377   0.375  0.1494  0.1337 -0.2058
 3499TIP3   OH231911   4.758   5.587  11.361  0.0171  0.0482  0.1348
 3499TIP3    H131912   4.713   5.661  11.320 -0.7871 -1.6882 -2.2528
 3499TIP3    H231913   4.785   5.619  11.447 -2.6341  2.2525  0.2045
 3500TIP3   OH231914   3.055   5.826   1.992 -0.3262 -0.2754 -0.2510
 3500TIP3    H131915   3.115   5.751   1.993  1.5030  1.1451 -0.0877
 3500TIP3    H231916   3.067   5.863   1.904 -0.9477  0.0456 -0.1981
 3501TIP3   OH231917   5.892   2.203  12.485 -0.4385  0.0734 -0.7403
 3501TIP3    H131918   5.978   2.240  12.469 -1.1839  1.4676 -1.6415
 3501TIP3    H231919   5.877   2.142  12.413 -0.3095  0.0321 -0.7299
 3502TIP3   OH231920   3.643   3.472   0.202  0.3968  0.0622  0.3574
 3502TIP3    H131921   3.663   3.429   0.286  0.1605  0.1280  0.4478
 3502TIP3    H231922   3.729   3.492   0.165  0.4988  0.2736  0.7078
 3503TIP3   OH231923   3.098   4.572  15.396 -0.3292 -0.1196  0.3809
 3503TIP3    H131924   3.075   4.482  15.418 -2.3313  0.8006  2.1871
 3503TIP3    H231925   3.092   4.575  15.300  0.8470 -2.1589  0.2197
 3504TIP3   OH231926   3.544   5.214  16.866  0.0140  0.5942 -0.2225
 3504TIP3    H131927   3.453   5.192  16.848 -0.0664 -0.3513  1.2619
 3504TIP3    H231928   3.566   5.164  16.945  2.2076 -0.1810 -1.2889
 3505TIP3   OH231929   0.241   1.904   3.831  0.2669 -0.0082 -0.4799
 3505TIP3    H131930   0.183   1.836   3.795  0.1827  0.2828 -0.8945
 3505TIP3    H231931   0.182   1.975   3.857  0.2763 -0.4240  0.7228
 3506TIP3   OH231932   3.989   1.295  15.811  1.0032 -0.2198  0.4383
 3506TIP3    H131933   3.929   1.359  15.849  0.1911 -1.1358  0.7131
 3506TIP3    H231934   3.936   1.217  15.798  1.5375 -0.2567 -1.6423
 3507TIP3   OH231935   4.033   4.680   5.893  0.3131  0.7293  0.2213
 3507TIP3    H131936   4.094   4.608   5.876  0.8433  1.0261  0.8303
 3507TIP3    H231937   4.067   4.753   5.842 -1.0353  0.1610 -1.5400
 3508TIP3   OH231938   5.721   4.414  16.700  0.5535 -0.1109 -0.1814
 3508TIP3    H131939   5.738   4.350  16.768 -0.2019 -0.4763 -0.3280
 3508TIP3    H231940   5.714   4.497  16.746 -1.6270 -0.5862  0.4238
 3509TIP3   OH231941   4.036   2.714   4.719  0.3149  0.3821 -0.1208
 3509TIP3    H131942   4.044   2.619   4.728  0.6116  0.1864 -2.2908
 3509TIP3    H231943   4.099   2.737   4.651 -2.1334  1.6705 -2.0320
 3510TIP3   OH231944   4.746   5.849  15.387  0.7819  0.0298  0.2950
 3510TIP3    H131945   4.700   5.844  15.303  0.7003  1.9313  0.2042
 3510TIP3    H231946   4.748   5.943  15.408  0.4909 -0.4508  2.5905
 3511TIP3   OH231947   2.809   3.232   4.018 -0.0299 -0.4660  0.3610
 3511TIP3    H131948   2.736   3.271   4.066 -0.9913 -0.6235 -0.9314
 3511TIP3    H231949   2.887   3.267   4.059 -0.8596  0.7760  0.8968
 3512TIP3   OH231950   5.262   5.632  16.318 -0.4460 -0.1485 -0.3830
 3512TIP3    H131951   5.179   5.630  16.366 -1.0253 -1.3899 -1.3912
 3512TIP3    H231952   5.240   5.598  16.231  0.8719  0.6918 -1.0596
 3513TIP3   OH231953   4.409   6.019  14.370  0.1987  0.1030 -0.0671
 3513TIP3    H131954   4.366   6.073  14.303 -1.1504 -0.2941  0.4887
 3513TIP3    H231955   4.359   5.938  14.373  0.6737 -0.1635  0.9412
 3514TIP3   OH231956   3.704   6.048   1.395  0.1258  0.5394 -0.0213
 3514TIP3    H131957   3.753   6.120   1.356  3.6732 -0.3026  2.6493
 3514TIP3    H231958   3.760   5.972   1.383 -1.8028 -1.0576  0.6920
 3515TIP3   OH231959   0.137   0.356   0.029 -0.1010 -0.3753  0.2932
 3515TIP3    H131960   0.216   0.325   0.073  0.5257  1.2536  0.3411
 3515TIP3    H231961   0.145   0.324  -0.061 -0.5723 -2.2621  0.8967
 3516TIP3   OH231962   1.811   3.514  12.070 -0.5138  0.0083  0.8157
 3516TIP3    H131963   1.733   3.564  12.047  0.8756  1.4822 -0.8987
 3516TIP3    H231964   1.823   3.530  12.164 -0.9165  1.7864  0.5969
 3517TIP3   OH231965   4.956   0.523  16.224 -0.3434 -0.3673 -0.3209
 3517TIP3    H131966   5.021   0.461  16.192 -0.1442 -0.0994 -0.4379
 3517TIP3    H231967   4.952   0.509  16.319  1.9973  1.6142  0.1192
 3518TIP3   OH231968   5.508   2.808  11.028 -0.1027  0.3274 -0.2684
 3518TIP3    H131969   5.515   2.871  11.100  0.7917 -0.5470  0.4305
 3518TIP3    H231970   5.415   2.804  11.009 -0.2338  1.4198  0.0820
 3519TIP3   OH231971   1.242   0.395  11.768 -0.2402  0.5183  0.0520
 3519TIP3    H131972   1.293   0.369  11.845  1.8453  0.5129 -1.2921
 3519TIP3    H231973   1.172   0.330  11.762  1.0834 -0.9861  0.4961
 3520TIP3   OH231974   3.423   2.946  13.124 -0.1985  0.4552  0.2791
 3520TIP3    H131975   3.493   2.886  13.149 -1.4234  0.3727  3.9262
 3520TIP3    H231976   3.348   2.889  13.107 -0.4349  0.7379  0.3579
 3521TIP3   OH231977   2.580   4.352   0.833 -0.6751 -0.4752 -0.2658
 3521TIP3    H131978   2.556   4.268   0.794 -1.7610 -0.3007  0.0181
 3521TIP3    H231979   2.590   4.411   0.759  0.5724 -0.9648 -0.5032
 3522TIP3   OH231980   6.417   5.877   4.266  0.9328 -0.3496 -0.1657
 3522TIP3    H131981   6.348   5.830   4.218  0.5783 -0.5399  0.5266
 3522TIP3    H231982   6.466   5.922   4.198 -0.7792  0.9855 -0.5743
 3523TIP3   OH231983   1.325   0.561   3.028  0.7746 -0.6268 -0.0195
 3523TIP3    H131984   1.300   0.546   2.937 -0.7121  0.6828  0.1400
 3523TIP3    H231985   1.412   0.600   3.024  0.2464  0.4714 -0.9475
 3524TIP3   OH231986   3.733   3.247   4.936 -0.4188 -0.7253 -0.7072
 3524TIP3    H131987   3.640   3.226   4.944 -0.3631 -1.0037 -0.7948
 3524TIP3    H231988   3.777   3.184   4.992 -0.3818  0.2689  0.4203
 3525TIP3   OH231989   4.742   5.267  11.774 -0.5226 -0.1046 -0.1283
 3525TIP3    H131990   4.650   5.290  11.764 -0.8363 -1.9697 -1.7235
 3525TIP3    H231991   4.772   5.250  11.685  1.2655  0.0831  0.4170
 3526TIP3   OH231992   4.971   1.116   6.245  0.7875  0.1318  0.1281
 3526TIP3    H131993   4.936   1.028   6.227  0.7853  0.2642 -0.5028
 3526TIP3    H231994   4.954   1.165   6.165  0.4986  0.8021  0.6022
 3527TIP3   OH231995   1.250   2.095  11.522 -0.1671 -0.3428 -0.1900
 3527TIP3    H131996   1.293   2.053  11.597 -0.9105 -1.2948 -0.2910
 3527TIP3    H231997   1.274   2.188  11.529  1.3481 -0.7450  0.1408
 3528TIP3   OH231998   0.448   3.309   0.223 -0.3460 -0.5086  0.7743
 3528TIP3    H131999   0.356   3.287   0.240  0.3530 -1.4123  3.6699
 3528TIP3    H232000   0.474   3.250   0.152 -1.3033 -2.1611  1.7479
 3529TIP3   OH232001   2.715   2.084   3.247 -0.0986 -0.2092  0.2163
 3529TIP3    H132002   2.804   2.119   3.250  0.8358 -2.1840 -2.3413
 3529TIP3    H232003   2.718   2.007   3.304 -0.1887 -0.2344  0.1865
 3530TIP3   OH232004   5.577   6.330   0.076 -0.4306  0.0442 -0.3942
 3530TIP3    H132005   5.648   6.320   0.138 -2.6270 -0.8477  2.0857
 3530TIP3    H232006   5.543   6.241   0.063 -2.5086  0.7078  0.2482
 3531TIP3   OH232007   0.208   4.523   1.283 -0.4279 -0.4704 -0.0021
 3531TIP3    H132008   0.172   4.435   1.288 -0.8557 -0.3131 -0.2724
 3531TIP3    H232009   0.193   4.560   1.370  0.5380 -0.9637  0.3760
 3532TIP3   OH232010   4.983   2.612   6.120 -0.5134 -0.6139 -0.3187
 3532TIP3    H132011   5.048   2.671   6.083  1.8297 -1.3723  2.4167
 3532TIP3    H232012   4.949   2.659   6.197  0.7686 -2.4046  1.3940
 3533TIP3   OH232013   2.342   4.651   6.901 -0.2683  0.0147  0.6911
 3533TIP3    H132014   2.322   4.743   6.921  0.9998  0.3899  0.2870
 3533TIP3    H232015   2.275   4.601   6.946 -0.9749  1.1505  0.9121
 3534TIP3   OH232016   1.687   6.075  16.133  0.2604  0.0101  0.0931
 3534TIP3    H132017   1.746   6.113  16.067 -0.1834  0.9450  0.2192
 3534TIP3    H232018   1.741   6.012  16.180  1.3116  1.2299  0.5417
 3535TIP3   OH232019   1.864   0.563  15.638  0.4863  0.2733  0.3227
 3535TIP3    H132020   1.889   0.628  15.572  1.7250 -0.0668  0.4321
 3535TIP3    H232021   1.931   0.495  15.631 -0.4760 -0.7159  0.6107
 3536TIP3   OH232022   0.123   3.364   1.577  0.0188 -0.1575  0.4464
 3536TIP3    H132023   0.069   3.431   1.534 -0.7532 -0.7148  0.5364
 3536TIP3    H232024   0.105   3.375   1.671  1.1420  0.5778  0.5824
 3537TIP3   OH232025   5.221   2.878  12.990  0.0733  0.2840  0.0888
 3537TIP3    H132026   5.169   2.811  12.946 -0.3575  0.3258  0.5236
 3537TIP3    H232027   5.284   2.906  12.925 -0.8114  0.6312 -0.6329
 3538TIP3   OH232028   3.848   1.756  16.935  0.2726  0.9598  0.2924
 3538TIP3    H132029   3.848   1.724  16.845 -2.9578  0.9840  0.2036
 3538TIP3    H232030   3.875   1.847  16.929 -0.4966  1.1201 -0.7270
 3539TIP3   OH232031   6.410   1.766   1.154  0.0375 -0.2865 -0.1566
 3539TIP3    H132032   6.333   1.772   1.211 -1.0862 -0.1211 -1.6741
 3539TIP3    H232033   6.386   1.701   1.088  2.4566 -2.6601  1.2421
 3540TIP3   OH232034   1.858   1.605  12.209 -0.5846 -0.1290  1.0132
 3540TIP3    H132035   1.769   1.574  12.192  0.3340 -1.8548 -0.9483
 3540TIP3    H232036   1.905   1.587  12.128  1.4558  1.1638  1.8730
 3541TIP3   OH232037   6.533   0.272  16.583 -0.5014 -0.2796 -0.5547
 3541TIP3    H132038   6.517   0.215  16.507  0.6719  1.7394 -2.3864
 3541TIP3    H232039   6.471   0.344  16.572 -0.2442  0.0765  0.3457
 3542TIP3   OH232040   3.782   3.420  15.472 -0.2036  0.0584  0.8899
 3542TIP3    H132041   3.844   3.415  15.399 -1.7386 -0.2997 -0.4194
 3542TIP3    H232042   3.788   3.334  15.514 -0.2788 -0.1962  0.3832
 3543TIP3   OH232043   5.312   3.624  13.710  0.3111  0.4673 -0.1309
 3543TIP3    H132044   5.312   3.643  13.804 -0.4651  2.2361 -0.4657
 3543TIP3    H232045   5.357   3.699  13.671 -1.5395  0.9475 -1.3889
 3544TIP3   OH232046   5.147   2.318   4.751 -0.5234 -0.3918  0.1476
 3544TIP3    H132047   5.192   2.367   4.682 -2.1992  2.2377  0.8887
 3544TIP3    H232048   5.175   2.359   4.833 -1.5598 -1.0048  0.8242
 3545TIP3   OH232049   5.144   2.914   5.674 -0.5169 -0.6818 -0.5519
 3545TIP3    H132050   5.140   2.962   5.756  0.7079 -0.6297 -0.5205
 3545TIP3    H232051   5.052   2.901   5.649 -0.8747  1.6203 -0.5329
 3546TIP3   OH232052   6.240   3.371   5.777  0.5916  0.5692 -0.1615
 3546TIP3    H132053   6.173   3.437   5.756 -1.3002 -1.1859  0.1674
 3546TIP3    H232054   6.280   3.402   5.858 -0.0732  1.4699 -0.1664
 3547TIP3   OH232055   4.102   6.279   5.953  0.3183  0.0055 -0.2978
 3547TIP3    H132056   4.082   6.296   6.045  0.2344  2.3372 -0.7148
 3547TIP3    H232057   4.120   6.185   5.949 -1.2148 -0.4048  1.8093
 3548TIP3   OH232058   5.014   5.687   4.518  0.1775  0.2839 -0.4120
 3548TIP3    H132059   5.110   5.680   4.523  0.0452 -0.4435  1.6103
 3548TIP3    H232060   4.985   5.597   4.501 -0.2631  0.0010  1.6731
 3549TIP3   OH232061   1.986   0.948  11.324  0.2992  0.6605 -0.6409
 3549TIP3    H132062   2.081   0.950  11.310  0.2411 -0.4452 -1.3083
 3549TIP3    H232063   1.949   0.938  11.236 -0.3461 -0.7648 -0.2327
 3550TIP3   OH232064   1.627   1.631  10.436 -0.0183 -0.5664  0.4645
 3550TIP3    H132065   1.665   1.719  10.433  0.8058 -0.9751 -2.0351
 3550TIP3    H232066   1.680   1.585  10.501  0.9494  0.1557  0.2098
 3551TIP3   OH232067   1.575   5.363  14.603 -0.0788 -0.2575  0.0200
 3551TIP3    H132068   1.540   5.403  14.523 -0.3473 -1.3283 -0.4004
 3551TIP3    H232069   1.655   5.319  14.574 -0.0631 -0.4689  0.3911
 3552TIP3   OH232070   1.839   2.797   0.484  0.3340 -0.4222  0.5366
 3552TIP3    H132071   1.876   2.833   0.403  1.0232 -1.0980  0.5402
 3552TIP3    H232072   1.916   2.766   0.532  0.0745  1.2433  2.0885
 3553TIP3   OH232073   5.690   4.108   6.070  0.1492  0.0341  0.1577
 3553TIP3    H132074   5.674   4.070   5.983  0.4634 -1.1316  0.6006
 3553TIP3    H232075   5.781   4.135   6.068 -0.1084  0.9037 -0.2007
 3554TIP3   OH232076   6.201   4.111  16.285 -0.3569  0.0269  0.4246
 3554TIP3    H132077   6.141   4.081  16.217 -1.0567 -0.1554  1.1175
 3554TIP3    H232078   6.173   4.065  16.364 -0.0109  0.7823  0.9964
 3555TIP3   OH232079   2.554   3.386  11.557 -0.1335 -0.5196  0.1440
 3555TIP3    H132080   2.527   3.421  11.473 -2.5044 -1.0345  0.6576
 3555TIP3    H232081   2.646   3.409  11.565 -0.5347  1.7033 -1.4702
 3556TIP3   OH232082   1.540   4.586   0.302  0.5430 -0.2419  0.1363
 3556TIP3    H132083   1.600   4.546   0.365 -0.5432 -0.0877  1.2707
 3556TIP3    H232084   1.467   4.617   0.354 -0.2724  0.0829 -1.1768
 3557TIP3   OH232085   4.122   6.620   4.048  0.2463  0.3724 -0.1022
 3557TIP3    H132086   4.184   6.620   3.975  0.7618  0.3596  0.3343
 3557TIP3    H232087   4.171   6.657   4.121 -0.1723  0.0969  0.3185
 3558TIP3   OH232088   3.189   6.784  14.295 -0.2454  0.0969  0.0253
 3558TIP3    H132089   3.188   6.691  14.318 -0.2772  0.5130  1.7587
 3558TIP3    H232090   3.175   6.785  14.200  1.3519 -1.7244 -0.2610
 3559TIP3   OH232091   2.754   2.996  14.049  0.2282  0.1322  0.3479
 3559TIP3    H132092   2.836   2.968  14.008 -0.5485 -1.2456 -0.2879
 3559TIP3    H232093   2.686   2.950  14.000 -0.8889  0.7301  1.3253
 3560TIP3   OH232094   3.076   2.441   5.660  0.2100 -0.3391 -0.0789
 3560TIP3    H132095   3.158   2.416   5.703 -0.5503  0.0632  1.6481
 3560TIP3    H232096   3.078   2.537   5.659 -0.2228 -0.3316 -0.0988
 3561TIP3   OH232097   0.217   6.657  14.423  0.6711 -0.0354  0.0403
 3561TIP3    H132098   0.137   6.611  14.397 -1.4187  3.4014  0.0725
 3561TIP3    H232099   0.259   6.681  14.340  0.5225  0.0433 -0.0124
 3562TIP3   OH232100   1.193   2.711   4.983  0.7611  0.3083 -0.0419
 3562TIP3    H132101   1.098   2.711   4.977  0.7708  1.8880 -0.4765
 3562TIP3    H232102   1.212   2.690   5.074  0.0461 -1.4390 -0.2711
 3563TIP3   OH232103   4.780   0.756  16.744  0.4734  0.1835 -0.1954
 3563TIP3    H132104   4.742   0.811  16.812 -1.4936 -0.3274 -0.8674
 3563TIP3    H232105   4.828   0.817  16.687 -0.1341  0.9527  0.1178
 3564TIP3   OH232106   4.438   2.701  13.883  0.2279 -0.3087 -0.6011
 3564TIP3    H132107   4.524   2.741  13.884  0.1359 -0.1198 -0.1273
 3564TIP3    H232108   4.419   2.686  13.790 -0.8001  2.9948 -0.9898
 3565TIP3   OH232109   6.123   1.561  14.197  0.1786  0.1016 -0.5553
 3565TIP3    H132110   6.164   1.626  14.141 -2.2471  1.7882 -0.4353
 3565TIP3    H232111   6.100   1.489  14.138  0.4362  0.5149 -1.1593
 3566TIP3   OH232112   1.273   0.862   5.656  0.4361 -0.2940  0.1273
 3566TIP3    H132113   1.322   0.887   5.578  0.7949 -0.0436  0.4290
 3566TIP3    H232114   1.241   0.946   5.692  0.7744 -0.3535  0.5757
 3567TIP3   OH232115   3.739   4.479  16.845 -0.2231  0.1882  0.0180
 3567TIP3    H132116   3.762   4.391  16.814  2.5001  0.9828 -0.4072
 3567TIP3    H232117   3.687   4.465  16.923 -0.2364 -1.8075 -0.3293
 3568TIP3   OH232118   1.035   3.579  13.845 -0.0717 -0.4803 -0.2868
 3568TIP3    H132119   1.070   3.499  13.806  0.9272  0.3833 -1.1952
 3568TIP3    H232120   0.967   3.549  13.905  1.6242 -2.1573  0.8662
 3569TIP3   OH232121   6.061   2.948  13.509 -0.0585 -0.1197  0.1797
 3569TIP3    H132122   6.050   2.892  13.586  0.0998 -1.1304 -0.5239
 3569TIP3    H232123   5.981   2.935  13.458  0.6267 -0.8829 -0.7251
 3570TIP3   OH232124   3.261   5.858  14.548  0.1772  0.3459 -0.4320
 3570TIP3    H132125   3.287   5.856  14.456  0.2249 -0.6229 -0.3941
 3570TIP3    H232126   3.289   5.774  14.583 -1.1449  0.1283  0.1198
 3571TIP3   OH232127   6.446   5.421   4.176 -0.6675 -0.6235  0.3185
 3571TIP3    H132128   6.509   5.476   4.129 -1.4252  0.6122  0.6987
 3571TIP3    H232129   6.499   5.361   4.228  0.1861 -0.4137 -0.3072
 3572TIP3   OH232130   0.282   5.164  14.983 -0.3675 -0.5305 -0.6859
 3572TIP3    H132131   0.368   5.122  14.988  0.7413  1.7779  0.5655
 3572TIP3    H232132   0.298   5.245  14.935 -1.5898  0.4732  0.5545
 3573TIP3   OH232133   3.651   6.706   5.773  0.2016 -0.2231 -0.0905
 3573TIP3    H132134   3.695   6.622   5.789 -0.1368 -0.5655 -0.9156
 3573TIP3    H232135   3.699   6.769   5.827  1.0573 -0.7803 -0.1976
 3574TIP3   OH232136   0.621   2.548  14.612 -0.3859  0.1445  0.1511
 3574TIP3    H132137   0.673   2.626  14.590 -0.3323  0.1532  0.3092
 3574TIP3    H232138   0.612   2.551  14.707  0.4419 -0.5579  0.2600
 3575TIP3   OH232139   2.499   3.894  15.841 -0.0920  0.7222  1.0513
 3575TIP3    H132140   2.583   3.896  15.889  0.6008  2.7860 -0.1939
 3575TIP3    H232141   2.443   3.955  15.889  0.5285  2.6180 -0.5520
 3576TIP3   OH232142   1.845   5.725   4.355 -0.2754  0.7150 -0.2006
 3576TIP3    H132143   1.817   5.641   4.392  1.7029  0.1699  0.1110
 3576TIP3    H232144   1.790   5.737   4.278  1.3209 -2.2773 -1.8864
 3577TIP3   OH232145   6.611   0.475  14.599  0.3035 -0.7776  0.0403
 3577TIP3    H132146   6.564   0.551  14.566  1.6591  1.1852  2.4630
 3577TIP3    H232147   6.702   0.488  14.570  0.9508 -0.3861  2.1496
 3578TIP3   OH232148   3.857   0.178  14.288 -0.1364 -0.2650 -0.8316
 3578TIP3    H132149   3.823   0.219  14.208 -1.0431  1.2244  0.2956
 3578TIP3    H232150   3.787   0.119  14.316 -0.4961  0.4560 -0.2225
 3579TIP3   OH232151   1.386   1.292   0.255 -0.1442  0.2958  0.6091
 3579TIP3    H132152   1.448   1.360   0.283 -0.1728  0.1281  1.0897
 3579TIP3    H232153   1.431   1.210   0.272 -0.4261  0.1768  0.7843
 3580TIP3   OH232154   1.371   5.193   0.407 -0.3577  0.0303 -0.5426
 3580TIP3    H132155   1.438   5.240   0.457 -0.7562 -0.4792  0.4815
 3580TIP3    H232156   1.416   5.117   0.372 -0.3985 -0.3497  0.2044
 3581TIP3   OH232157   3.616   4.525   2.792 -0.2044 -0.2014 -0.1311
 3581TIP3    H132158   3.664   4.448   2.823  0.9973  0.2296 -0.8904
 3581TIP3    H232159   3.659   4.599   2.836 -0.6109  0.1321 -0.2882
 3582TIP3   OH232160   4.697   3.729  14.470  0.2276 -0.1546 -0.3611
 3582TIP3    H132161   4.615   3.777  14.461  0.7566  0.5158 -1.6936
 3582TIP3    H232162   4.750   3.782  14.530  0.1790  0.0676 -0.5160
 3583TIP3   OH232163   2.535   5.256  12.201  0.3544  0.2014 -0.2343
 3583TIP3    H132164   2.446   5.254  12.166 -0.0861  1.3273  0.7899
 3583TIP3    H232165   2.570   5.341  12.174  0.2448  0.8010  1.4292
 3584TIP3   OH232166   5.250   4.562  10.967  0.2403 -0.0196 -0.0022
 3584TIP3    H132167   5.282   4.573  11.057  1.6557 -0.3714 -0.4478
 3584TIP3    H232168   5.202   4.643  10.949  1.0734  0.6284  0.6193
 3585TIP3   OH232169   6.569   3.281   5.360  0.6559 -0.1732 -0.2158
 3585TIP3    H132170   6.620   3.352   5.398 -1.0654  0.3146  1.2057
 3585TIP3    H232171   6.589   3.205   5.415 -0.2562  0.0477  0.4172
 3586TIP3   OH232172   0.353   4.116   0.026 -0.3640 -0.4697 -0.4303
 3586TIP3    H132173   0.301   4.191  -0.004  1.2711  0.9489  0.1666
 3586TIP3    H232174   0.426   4.156   0.073  0.1196 -2.4890  0.5724
 3587TIP3   OH232175   4.805   2.120  11.210 -0.3196 -0.6463  0.3209
 3587TIP3    H132176   4.830   2.149  11.298  0.5803  0.8581 -0.4017
 3587TIP3    H232177   4.803   2.201  11.158 -1.2669 -1.4640 -0.9372
 3588TIP3   OH232178   3.808   6.752  13.907  0.2073  0.6372 -0.1929
 3588TIP3    H132179   3.855   6.804  13.972 -2.1758  0.4260  1.7703
 3588TIP3    H232180   3.791   6.668  13.950 -0.5125  0.1165 -1.4444
 3589TIP3   OH232181   6.237   5.585  14.685 -0.1130 -0.2360 -0.7670
 3589TIP3    H132182   6.235   5.681  14.689 -0.4504 -0.2511 -0.6124
 3589TIP3    H232183   6.147   5.560  14.665 -0.1890 -0.5609 -0.0288
 3590TIP3   OH232184   0.337   3.432  14.251 -0.5163 -0.2972 -0.5963
 3590TIP3    H132185   0.360   3.345  14.218 -2.8481 -1.0928 -0.1917
 3590TIP3    H232186   0.242   3.436  14.247 -0.6777  0.9533  2.5476
 3591TIP3   OH232187   6.755   3.819   3.237  0.6128 -0.1881 -0.1478
 3591TIP3    H132188   6.702   3.889   3.200  1.4001 -0.1308 -1.1569
 3591TIP3    H232189   6.743   3.828   3.332 -0.2583  0.5401 -0.3192
 3592TIP3   OH232190   0.986   2.599  11.816  0.2413 -0.2399 -0.5167
 3592TIP3    H132191   0.915   2.639  11.766 -0.3137 -0.5190  0.0233
 3592TIP3    H232192   0.942   2.562  11.893  1.4732  2.9861  1.8339
 3593TIP3   OH232193   0.838   5.758   3.055 -0.6028 -0.2948 -0.0181
 3593TIP3    H132194   0.819   5.751   3.148  0.3429 -2.2482  0.0482
 3593TIP3    H232195   0.799   5.842   3.029 -0.1567  0.6780  2.2995
 3594TIP3   OH232196   0.152   5.447   0.804 -0.4704  0.5837  0.0630
 3594TIP3    H132197   0.227   5.454   0.863 -1.6758  1.7598  1.4980
 3594TIP3    H232198   0.119   5.358   0.818  0.9118 -0.1075 -0.9272
 3595TIP3   OH232199   5.200   2.326   5.781 -0.1234 -0.5978  0.0906
 3595TIP3    H132200   5.119   2.365   5.813  0.4341  0.6563  0.0137
 3595TIP3    H232201   5.259   2.327   5.857  0.9507  1.6926 -0.7035
 3596TIP3   OH232202   6.762   4.479  16.057 -0.0105  0.1078  0.0130
 3596TIP3    H132203   6.788   4.391  16.029 -0.6256 -0.0435 -0.0867
 3596TIP3    H232204   6.715   4.465  16.140  0.9767  0.4630  0.6465
 3597TIP3   OH232205   0.149   5.704  12.451  0.2991  0.8291 -0.4925
 3597TIP3    H132206   0.070   5.651  12.447 -0.7443  2.2887  0.4462
 3597TIP3    H232207   0.118   5.795  12.449  1.9131  1.4194  0.3755
 3598TIP3   OH232208   4.480   5.198   6.707 -0.0388 -0.2350 -0.5738
 3598TIP3    H132209   4.414   5.260   6.739 -1.0077 -0.7593 -1.5437
 3598TIP3    H232210   4.562   5.246   6.714 -0.5161  0.4355  0.6293
 3599TIP3   OH232211   2.216   6.516  15.007  0.4987  0.7648 -0.0688
 3599TIP3    H132212   2.268   6.526  14.928  0.2725 -0.3832 -0.3757
 3599TIP3    H232213   2.275   6.473  15.069  0.6453  1.5741  0.3597
 3600TIP3   OH232214   1.428   4.644   3.970  0.6945 -0.2922 -0.1349
 3600TIP3    H132215   1.399   4.690   4.049  1.4606 -0.1985  0.0921
 3600TIP3    H232216   1.489   4.704   3.928  0.0762 -0.2302 -0.9487
 3601TIP3   OH232217   4.714   0.110  17.178 -0.4006 -0.4524  0.2694
 3601TIP3    H132218   4.674   0.197  17.181 -0.5508 -0.5297  0.5316
 3601TIP3    H232219   4.650   0.053  17.220 -0.3269 -0.6978  0.0494
 3602TIP3   OH232220   6.513   4.647   5.681  0.2358 -0.0516 -0.1370
 3602TIP3    H132221   6.569   4.626   5.755  0.2136 -0.5397 -0.2529
 3602TIP3    H232222   6.539   4.735   5.655  0.0298  0.2425  0.6416
 3603TIP3   OH232223   2.950   1.499   5.748  0.4597  0.5745 -0.0107
 3603TIP3    H132224   2.948   1.495   5.844 -0.7901  0.5071 -0.0410
 3603TIP3    H232225   3.044   1.494   5.727  0.6492 -1.0436  1.1227
 3604TIP3   OH232226   3.611   2.683   2.649  0.1576 -0.0372 -0.0135
 3604TIP3    H132227   3.670   2.752   2.678  1.5603 -1.7744  1.3479
 3604TIP3    H232228   3.529   2.700   2.695  0.3333  1.0137 -0.0919
 3605TIP3   OH232229   1.047   3.431   2.780 -0.3101 -0.3905  0.3447
 3605TIP3    H132230   1.055   3.339   2.806  2.9009 -0.0469  0.7283
 3605TIP3    H232231   0.953   3.449   2.787 -0.8351 -3.2651  1.5612
 3606TIP3   OH232232   1.062   0.665   0.547  0.6801  0.7835 -0.6649
 3606TIP3    H132233   1.078   0.663   0.452  1.9946  2.6030 -0.5021
 3606TIP3    H232234   0.967   0.667   0.554  0.5112 -0.8720 -1.8878
 3607TIP3   OH232235   2.617   6.134   5.100 -0.4926  0.2635 -0.0275
 3607TIP3    H132236   2.584   6.079   5.171 -0.4751  0.5308  0.1858
 3607TIP3    H232237   2.603   6.082   5.021  1.3339 -0.8895  0.3641
 3608TIP3   OH232238   2.399   5.908  10.998 -0.2374 -0.1565  0.2985
 3608TIP3    H132239   2.408   5.936  10.907 -0.5112 -1.4912 -0.1520
 3608TIP3    H232240   2.337   5.835  10.995 -0.7711  0.2098  1.6388
 3609TIP3   OH232241   1.213   6.227   2.824 -0.4160 -0.1470 -0.2529
 3609TIP3    H132242   1.220   6.268   2.738 -0.2927  0.0062 -0.1699
 3609TIP3    H232243   1.274   6.276   2.879 -3.2674  2.2167  0.8905
 3610TIP3   OH232244   5.686   1.426  16.215 -0.3145  0.1038  0.4286
 3610TIP3    H132245   5.690   1.519  16.193  0.3958  0.0134  0.1537
 3610TIP3    H232246   5.595   1.412  16.242 -0.2867  0.9961  1.0228
 3611TIP3   OH232247   5.056   6.029  15.239 -0.6606 -0.0992 -0.1657
 3611TIP3    H132248   5.140   6.057  15.203 -0.7917  0.6723  0.1218
 3611TIP3    H232249   5.021   5.967  15.174  0.2591 -0.6543 -0.1381
 3612TIP3   OH232250   6.747   1.184  16.383  0.3450 -0.1763  0.9407
 3612TIP3    H132251   6.673   1.146  16.430 -1.1965  1.4435 -0.1304
 3612TIP3    H232252   6.805   1.109  16.367 -0.7123 -1.3481  2.3838
 3613TIP3   OH232253   0.320   3.834   3.654  0.0047  0.1994  0.2892
 3613TIP3    H132254   0.415   3.835   3.655  0.0207  0.0787 -0.9298
 3613TIP3    H232255   0.296   3.747   3.687  0.3024  0.3373  0.8745
 3614TIP3   OH232256   0.579   5.060   4.222 -0.0718  0.0417 -0.2505
 3614TIP3    H132257   0.560   5.068   4.315 -0.8509 -0.5384 -0.3562
 3614TIP3    H232258   0.493   5.061   4.180  0.2264 -0.7011 -0.8897
 3615TIP3   OH232259   5.377   1.856  14.272  0.3800 -0.0782  0.0436
 3615TIP3    H132260   5.330   1.794  14.328  1.1557  1.2291  2.1748
 3615TIP3    H232261   5.332   1.850  14.188 -1.6027 -1.1668  1.1443
 3616TIP3   OH232262   4.076   2.843  12.343 -0.1241  0.0378 -0.5668
 3616TIP3    H132263   4.107   2.933  12.350 -0.2345  0.0790 -0.6093
 3616TIP3    H232264   3.982   2.849  12.358 -0.3091  0.0818 -1.7038
 3617TIP3   OH232265   2.019   6.760   5.065 -0.3985 -0.0846 -0.7827
 3617TIP3    H132266   1.942   6.730   5.112 -0.4452  1.3208  0.0845
 3617TIP3    H232267   2.088   6.765   5.132 -0.2010  0.9703 -1.0499
 3618TIP3   OH232268   5.291   4.468   4.713  0.0902 -0.9344 -0.4754
 3618TIP3    H132269   5.257   4.535   4.654 -0.8047 -0.2854  0.7391
 3618TIP3    H232270   5.386   4.482   4.714 -0.1787  1.1189  0.6662
 3619TIP3   OH232271   3.336   1.545  14.860 -0.0027  0.1901 -0.0772
 3619TIP3    H132272   3.318   1.605  14.933 -0.6416 -0.7959  0.5944
 3619TIP3    H232273   3.416   1.499  14.886 -0.1014  0.0039 -0.0993
 3620TIP3   OH232274   3.483   5.821  13.371  0.6526  0.3621  0.5113
 3620TIP3    H132275   3.460   5.818  13.278  1.3433  1.4086  0.2976
 3620TIP3    H232276   3.402   5.844  13.415  0.5107  0.6834  0.0840
 3621TIP3   OH232277   5.263   3.926   5.299 -0.3211 -0.6062 -0.2308
 3621TIP3    H132278   5.238   3.980   5.225 -0.3762  0.1444  0.3362
 3621TIP3    H232279   5.358   3.929   5.301 -0.2918 -1.1438 -0.6512
 3622TIP3   OH232280   4.650   0.261   4.679  0.4954 -0.5362  0.2474
 3622TIP3    H132281   4.647   0.256   4.583  0.9228 -0.8214  0.2451
 3622TIP3    H232282   4.573   0.212   4.707  0.4576 -0.5914  0.0513
 3623TIP3   OH232283   4.463   5.541  10.677 -0.0466  0.5924 -0.0973
 3623TIP3    H132284   4.430   5.623  10.714 -1.7053 -0.0243 -0.1586
 3623TIP3    H232285   4.502   5.495  10.751 -0.0767  0.9768  0.1566
 3624TIP3   OH232286   3.724   6.432   4.119  0.1170 -0.5756  0.5364
 3624TIP3    H132287   3.695   6.367   4.183 -0.0475 -0.5395  0.4987
 3624TIP3    H232288   3.644   6.457   4.072  0.3247 -0.9867 -0.0403
 3625TIP3   OH232289   1.187   5.359   4.083  0.1054  0.6952  0.6620
 3625TIP3    H132290   1.149   5.407   4.009 -0.8171  1.3502  1.5368
 3625TIP3    H232291   1.164   5.411   4.160  1.5379  0.3169  1.3675
 3626TIP3   OH232292   2.617   5.174   5.341  0.5087 -0.1006  0.3420
 3626TIP3    H132293   2.576   5.117   5.275  1.3228 -0.3167  0.0093
 3626TIP3    H232294   2.630   5.117   5.417 -0.0168  0.0285  0.5292
 3627TIP3   OH232295   6.661   4.153  14.242 -0.2251  0.2272  0.0946
 3627TIP3    H132296   6.697   4.073  14.204 -0.7947  0.3244 -0.6703
 3627TIP3    H232297   6.670   4.219  14.173  1.5427  1.1961  1.2171
 3628TIP3   OH232298   0.535   1.461  16.697  0.0757  0.0516  0.1071
 3628TIP3    H132299   0.449   1.441  16.734  1.0354 -2.1660  1.2415
 3628TIP3    H232300   0.524   1.546  16.654 -2.4457  0.1907  0.9686
 3629TIP3   OH232301   2.868   6.680   3.394  0.0007 -0.2216 -0.3896
 3629TIP3    H132302   2.838   6.736   3.322 -0.2095 -0.0180 -0.1444
 3629TIP3    H232303   2.931   6.621   3.353  1.9506  1.6622 -0.2290
 3630TIP3   OH232304   2.873   0.177   5.494  0.4239  0.1519 -0.4293
 3630TIP3    H132305   2.804   0.202   5.433  0.4301 -0.5396 -0.7220
 3630TIP3    H232306   2.861   0.083   5.507  0.6280  0.2288  0.3763
 3631TIP3   OH232307   5.669   2.639  11.739  0.0360  0.4278 -0.4704
 3631TIP3    H132308   5.576   2.625  11.719  0.6363 -0.4362 -2.8116
 3631TIP3    H232309   5.714   2.619  11.657  2.4067 -0.5021  1.0088
 3632TIP3   OH232310   0.185   5.957   2.174  0.1126 -0.0191 -0.3137
 3632TIP3    H132311   0.093   5.962   2.148  0.1454  2.2540 -0.1328
 3632TIP3    H232312   0.207   6.046   2.202  2.5212 -0.3905 -0.8505
 3633TIP3   OH232313   4.333   6.199   5.818 -0.1785 -0.6566  0.0605
 3633TIP3    H132314   4.276   6.269   5.850  1.3876  0.1531  1.1590
 3633TIP3    H232315   4.305   6.121   5.867  0.2758 -0.0545  1.3027
 3634TIP3   OH232316   2.821   3.960  14.554 -0.7536  0.4182 -0.3400
 3634TIP3    H132317   2.854   3.887  14.502 -1.5192  1.1042 -1.8255
 3634TIP3    H232318   2.895   3.986  14.609  0.3550  0.2593 -1.7344
 3635TIP3   OH232319   4.379   2.433   0.893  0.3463 -0.1441  0.7178
 3635TIP3    H132320   4.339   2.511   0.855 -0.3932  0.1090  1.9969
 3635TIP3    H232321   4.385   2.371   0.820 -0.8842  0.3905  0.1542
 3636TIP3   OH232322   6.378   0.613  15.511  0.0694  0.0384 -0.8182
 3636TIP3    H132323   6.398   0.520  15.519 -0.8446 -0.3596 -2.8324
 3636TIP3    H232324   6.300   0.617  15.456  0.0991  1.9877 -0.7798
 3637TIP3   OH232325   6.238   4.653   5.513 -0.1524  0.2485 -0.4000
 3637TIP3    H132326   6.175   4.589   5.545 -0.6927 -0.6620 -3.1980
 3637TIP3    H232327   6.323   4.611   5.526 -0.1931  0.7254  1.6452
 3638TIP3   OH232328   3.242   6.485  12.804 -0.5665 -0.0216 -0.0215
 3638TIP3    H132329   3.231   6.391  12.793  2.5319 -0.3846 -0.5623
 3638TIP3    H232330   3.257   6.498  12.898 -0.0878 -0.2062 -0.0686
 3639TIP3   OH232331   5.538   4.652  12.909  0.6117 -0.5072 -0.0318
 3639TIP3    H132332   5.531   4.557  12.915 -1.0914 -0.3116  1.2330
 3639TIP3    H232333   5.517   4.684  12.997 -1.4519  1.1786 -1.0932
 3640TIP3   OH232334   6.640   1.091   5.845  0.3631 -0.0817 -0.3313
 3640TIP3    H132335   6.581   1.023   5.878  1.0353 -0.7794 -0.5561
 3640TIP3    H232336   6.699   1.108   5.918 -0.8195  1.4370  0.2940
 3641TIP3   OH232337   5.890   6.073   2.029  0.1152  0.4009  0.0475
 3641TIP3    H132338   5.976   6.079   1.988 -0.6113 -2.6727 -2.0266
 3641TIP3    H232339   5.909   6.052   2.121  1.5754 -2.7768 -0.9251
 3642TIP3   OH232340   5.023   2.389   6.620  0.0632 -0.3235 -0.1826
 3642TIP3    H132341   5.025   2.480   6.591 -0.0564  0.4899  2.2518
 3642TIP3    H232342   4.929   2.369   6.626  0.0869 -0.8187 -1.2560
 3643TIP3   OH232343   0.043   2.616   3.526 -0.2432  0.0702 -0.1985
 3643TIP3    H132344   0.028   2.522   3.524 -0.7561  0.1804 -1.8992
 3643TIP3    H232345   0.138   2.625   3.518 -0.1922 -0.2916 -0.0117
 3644TIP3   OH232346   5.293   3.955   3.877 -1.0029 -0.4896 -0.6316
 3644TIP3    H132347   5.287   3.957   3.782  0.3466  1.4486 -0.6897
 3644TIP3    H232348   5.350   3.880   3.896 -1.3935 -0.9700 -1.3330
 3645TIP3   OH232349   2.970   5.280  14.380 -0.0352  0.4138 -0.6372
 3645TIP3    H132350   2.984   5.373  14.363 -0.0076  0.4451 -0.4350
 3645TIP3    H232351   3.059   5.242  14.381  0.1615  0.8767  2.2379
 3646TIP3   OH232352   3.631   2.543  13.750 -0.7135  0.4868 -0.6263
 3646TIP3    H132353   3.558   2.516  13.694 -0.8545 -2.4880  0.8725
 3646TIP3    H232354   3.709   2.522  13.700 -0.8541 -0.6190 -0.3915
 3647TIP3   OH232355   4.632   5.831  14.394 -0.5769  0.1558 -0.0724
 3647TIP3    H132356   4.575   5.905  14.373  2.0257  1.5155 -2.7578
 3647TIP3    H232357   4.653   5.793  14.309  2.4722 -0.3125  0.8449
 3648TIP3   OH232358   6.308   4.148   2.938  0.1901  0.7261 -0.0541
 3648TIP3    H132359   6.384   4.177   2.888 -0.2854  1.1712 -0.5191
 3648TIP3    H232360   6.339   4.073   2.987  0.3135 -0.5448 -2.0249
 3649TIP3   OH232361   3.021   2.764   6.285  0.1832  0.2265  0.3402
 3649TIP3    H132362   2.964   2.689   6.267 -0.0556  0.8266 -1.5282
 3649TIP3    H232363   3.106   2.726   6.304 -0.4231 -0.6037  1.4266
 3650TIP3   OH232364   5.898   5.871  15.945  0.1464 -0.0442  0.1893
 3650TIP3    H132365   5.835   5.941  15.962  1.2311  0.7166  1.1355
 3650TIP3    H232366   5.853   5.791  15.973 -0.9835  0.2959 -0.6117
 3651TIP3   OH232367   0.884   2.866   1.972 -0.3878 -0.0539  0.0436
 3651TIP3    H132368   0.955   2.869   2.036 -0.1877  2.5658 -0.2586
 3651TIP3    H232369   0.809   2.832   2.020 -0.2287  1.8146  1.6918
 3652TIP3   OH232370   0.067   0.650  14.857 -0.4788 -0.3756 -0.2390
 3652TIP3    H132371   0.084   0.620  14.768 -0.0252 -0.8463  0.0018
 3652TIP3    H232372   0.033   0.739  14.847 -0.5560 -0.4776 -0.8855
 3653TIP3   OH232373   2.435   2.769   6.454 -0.0166  0.1912 -0.6271
 3653TIP3    H132374   2.524   2.755   6.488 -0.1189  0.3227 -0.3056
 3653TIP3    H232375   2.431   2.862   6.435 -0.4900  0.4245  0.5291
 3654TIP3   OH232376   6.173   4.789   3.172 -0.4193  0.0396  0.7775
 3654TIP3    H132377   6.144   4.749   3.254  0.6588 -0.3681  0.9650
 3654TIP3    H232378   6.225   4.721   3.129 -0.0422  0.6471  0.2737
 3655TIP3   OH232379   1.612   1.286  11.840 -0.1380 -0.1232  0.7805
 3655TIP3    H132380   1.682   1.346  11.813  0.1970 -2.5682 -4.5598
 3655TIP3    H232381   1.531   1.330  11.814 -0.2141  0.0918  1.3726
 3656TIP3   OH232382   4.295   4.310  14.215 -0.3969  0.3447  0.0415
 3656TIP3    H132383   4.369   4.369  14.204 -0.9339  0.7164 -1.7406
 3656TIP3    H232384   4.270   4.285  14.126  0.4984 -3.4627  0.7679
 3657TIP3   OH232385   2.591   3.798  11.613  0.2209 -0.1164 -0.4528
 3657TIP3    H132386   2.636   3.822  11.532  0.2348  2.7665  0.3568
 3657TIP3    H232387   2.500   3.825  11.600  0.4857  1.5407  0.9170
 3658TIP3   OH232388   2.856   0.740  15.921 -0.4328 -0.1236 -0.4597
 3658TIP3    H132389   2.842   0.653  15.957 -0.0845 -0.3438 -0.8527
 3658TIP3    H232390   2.947   0.761  15.945 -0.7469  0.4369  0.2762
 3659TIP3   OH232391   0.245   0.066  11.889 -0.0854  0.3262  0.2607
 3659TIP3    H132392   0.177   0.075  11.822  1.7477 -1.5685 -1.9376
 3659TIP3    H232393   0.226  -0.017  11.933  0.8753 -0.2678 -0.4438
 3660TIP3   OH232394   0.296   1.454   3.056 -0.0969 -0.1749  0.5382
 3660TIP3    H132395   0.309   1.533   3.003 -0.8803 -0.8131 -0.6334
 3660TIP3    H232396   0.204   1.430   3.040 -0.0691 -0.9177  1.4496
 3661TIP3   OH232397   0.448   0.475  17.163  0.6110 -0.0440 -0.0438
 3661TIP3    H132398   0.357   0.458  17.137  0.0294 -0.2546  2.0437
 3661TIP3    H232399   0.471   0.557  17.120  0.5790 -1.6602 -3.3152
 3662TIP3   OH232400   0.408   3.103   0.576 -0.4901  0.3457 -0.1358
 3662TIP3    H132401   0.436   3.190   0.605 -1.1319  0.8110 -0.9094
 3662TIP3    H232402   0.406   3.051   0.657 -1.6080  1.4648  0.5744
 3663TIP3   OH232403   5.796   4.825   1.557 -0.4905  0.4283  0.2263
 3663TIP3    H132404   5.892   4.827   1.553 -0.4997  0.5049  0.0089
 3663TIP3    H232405   5.768   4.859   1.472 -0.7098 -0.5387 -0.0948
 3664TIP3   OH232406   2.234   3.310  16.733 -0.0103 -0.4104  0.3981
 3664TIP3    H132407   2.296   3.256  16.782  1.6055  2.4035  1.6498
 3664TIP3    H232408   2.153   3.307  16.784  0.5841 -0.3378  1.3677
 3665TIP3   OH232409   5.986   2.997   6.396 -0.1167  0.0378  0.0577
 3665TIP3    H132410   6.052   2.953   6.449  0.3401  0.3795 -0.2294
 3665TIP3    H232411   5.937   2.926   6.354  0.6506 -0.1946 -0.4495
 3666TIP3   OH232412   0.842   0.569   4.218 -0.4426 -0.5864  0.4065
 3666TIP3    H132413   0.924   0.563   4.170 -1.0117 -0.4955 -0.5816
 3666TIP3    H232414   0.845   0.495   4.279  0.1085 -0.9348 -0.0338
 3667TIP3   OH232415   1.014   0.523  14.283 -0.9118 -0.1489  1.0102
 3667TIP3    H132416   0.928   0.553  14.254 -0.1105  0.9887 -0.2320
 3667TIP3    H232417   1.010   0.428  14.276 -1.1030  0.0260 -1.8777
 3668TIP3   OH232418   0.092   4.260  13.802 -0.3281  0.1820  1.0294
 3668TIP3    H132419   0.076   4.170  13.774 -1.5258  0.6029  0.3356
 3668TIP3    H232420   0.093   4.256  13.898 -3.9395  0.0016  1.1144
 3669TIP3   OH232421   0.797   4.559  11.677 -0.3333 -0.4329  0.4448
 3669TIP3    H132422   0.756   4.607  11.604  1.2418 -0.5891 -0.5618
 3669TIP3    H232423   0.738   4.485  11.693 -0.3690 -0.7585 -1.1098
 3670TIP3   OH232424   2.814   3.241  16.473  0.2203 -0.1482 -0.0043
 3670TIP3    H132425   2.727   3.277  16.489  0.6044  0.3197  1.1141
 3670TIP3    H232426   2.870   3.318  16.462 -0.1208 -0.4356 -4.4351
 3671TIP3   OH232427   0.898   3.494  14.370  0.1345 -0.5036  0.1895
 3671TIP3    H132428   0.841   3.567  14.395  0.5928 -0.9978  2.8151
 3671TIP3    H232429   0.845   3.442  14.310 -1.8561 -0.4719  1.8887
 3672TIP3   OH232430   2.695   1.872   0.677 -0.0507  0.5737 -0.2492
 3672TIP3    H132431   2.681   1.960   0.712 -0.0805  0.4100  0.1434
 3672TIP3    H232432   2.776   1.842   0.718  0.1360  0.5442 -0.6339
 3673TIP3   OH232433   2.985   2.804  14.960 -0.1163  0.0768  0.1546
 3673TIP3    H132434   3.050   2.752  15.006  0.5915  2.1718  1.5995
 3673TIP3    H232435   3.028   2.833  14.880 -0.1850 -0.7586 -0.1820
 3674TIP3   OH232436   4.150   5.048   6.074 -0.5034 -0.1067 -0.4988
 3674TIP3    H132437   4.110   5.091   5.998  1.0022  0.9150 -0.7291
 3674TIP3    H232438   4.120   5.100   6.149 -2.2011 -1.2687 -0.3463
 3675TIP3   OH232439   5.644   1.019  16.677  0.2686 -0.9885 -0.3515
 3675TIP3    H132440   5.566   1.018  16.622  0.1690  0.5149 -0.2810
 3675TIP3    H232441   5.611   1.013  16.767  0.3647 -2.3578 -0.4006
 3676TIP3   OH232442   5.791   3.027  15.751 -0.0585 -0.1866 -0.0183
 3676TIP3    H132443   5.854   3.041  15.821 -1.6305 -2.0909  1.8468
 3676TIP3    H232444   5.843   2.995  15.677  1.5964  1.7214  0.3058
 3677TIP3   OH232445   6.123   2.732  12.739  0.0742  0.0880  0.4487
 3677TIP3    H132446   6.069   2.783  12.799 -1.4525 -0.1974 -0.6669
 3677TIP3    H232447   6.165   2.666  12.795 -0.4087  0.5778  1.3858
 3678TIP3   OH232448   5.878   4.527   6.093 -0.1747 -0.6021  0.2979
 3678TIP3    H132449   5.970   4.548   6.106  0.3897 -2.4533 -0.6151
 3678TIP3    H232450   5.850   4.489   6.177  0.2162 -1.1709  0.1708
 3679TIP3   OH232451   4.236   6.394   5.616  0.1299 -0.2617  0.3196
 3679TIP3    H132452   4.195   6.310   5.639  1.4176 -0.7986  0.6873
 3679TIP3    H232453   4.320   6.392   5.660 -0.6023  2.0532  1.9084
 3680TIP3   OH232454   5.904   3.928  13.260 -0.4323 -0.1458 -0.5598
 3680TIP3    H132455   5.834   3.944  13.323 -1.3699  1.1698 -1.9122
 3680TIP3    H232456   5.931   3.837  13.277 -2.3616 -0.6155  0.0732
 3681TIP3   OH232457   4.767   4.077   2.432 -0.2769  0.1794 -0.1797
 3681TIP3    H132458   4.750   4.019   2.506 -0.5847  0.7332  0.1835
 3681TIP3    H232459   4.776   4.164   2.471  2.0427  0.1193 -0.5016
 3682TIP3   OH232460   0.246   1.057   0.327 -0.0942 -0.5904 -0.1546
 3682TIP3    H132461   0.302   1.130   0.301  1.2561 -1.0007  1.4549
 3682TIP3    H232462   0.192   1.039   0.251 -1.9794  3.4427  0.1376
 3683TIP3   OH232463   2.764   2.058  14.073  0.5550  0.3787  0.0498
 3683TIP3    H132464   2.759   2.144  14.033  2.8175  0.8716  0.8003
 3683TIP3    H232465   2.701   2.061  14.145 -1.6080  0.3474 -1.7730
 3684TIP3   OH232466   5.505   5.613   3.177  0.1713 -0.1469  0.5551
 3684TIP3    H132467   5.532   5.698   3.210 -0.7911 -0.6273  2.6538
 3684TIP3    H232468   5.558   5.600   3.098  1.1821  1.8459  0.8714
 3685TIP3   OH232469   2.040   6.550  16.069  0.5177 -0.2767 -0.3445
 3685TIP3    H132470   1.987   6.630  16.069 -0.1733 -0.7233 -1.1086
 3685TIP3    H232471   2.021   6.509  16.153  0.6969  0.2530 -0.0437
 3686TIP3   OH232472   5.095   6.587   0.565  0.2444 -0.1006 -0.4340
 3686TIP3    H132473   5.134   6.502   0.588  1.0575  0.4512  0.2440
 3686TIP3    H232474   5.013   6.564   0.521 -0.4278 -1.2134  1.3238
 3687TIP3   OH232475   4.233   4.314  12.923 -0.0779 -1.0698  0.7013
 3687TIP3    H132476   4.190   4.244  12.874  0.4180 -0.6130 -0.3896
 3687TIP3    H232477   4.264   4.271  13.003  0.2080 -2.0986  0.0553
 3688TIP3   OH232478   2.571   4.745   5.664  0.0286 -0.3660  0.0618
 3688TIP3    H132479   2.540   4.669   5.615 -0.0257  0.9370 -1.9846
 3688TIP3    H232480   2.506   4.813   5.647 -0.2976 -0.0454  2.4510
 3689TIP3   OH232481   0.370   6.612   2.335 -0.0768  0.2109 -0.1618
 3689TIP3    H132482   0.295   6.600   2.276  0.1622 -2.3195 -0.0282
 3689TIP3    H232483   0.344   6.566   2.415  1.0155  0.6011  0.4107
 3690TIP3   OH232484   3.836   3.573   5.662  0.3465 -0.6415 -0.0821
 3690TIP3    H132485   3.769   3.636   5.689  0.9957  0.1566 -0.3080
 3690TIP3    H232486   3.817   3.495   5.713 -0.6455 -0.3596 -0.0058
 3691TIP3   OH232487   2.580   2.677  14.803 -0.1792 -0.0500  0.1492
 3691TIP3    H132488   2.554   2.588  14.782  2.2278 -0.0341 -3.5082
 3691TIP3    H232489   2.669   2.684  14.769 -0.1562  3.6032  0.7650
 3692TIP3   OH232490   0.342   6.682   1.472 -0.3549 -0.4980 -0.0746
 3692TIP3    H132491   0.298   6.738   1.408  1.5664 -0.9247 -1.8181
 3692TIP3    H232492   0.389   6.744   1.528 -1.5358 -0.1568  0.5604
 3693TIP3   OH232493   5.987   1.743  14.319 -0.2221  0.0153  0.2033
 3693TIP3    H132494   5.963   1.803  14.248 -0.5200 -0.6294 -0.2373
 3693TIP3    H232495   6.053   1.686  14.281 -1.5131 -1.3498 -0.0391
 3694TIP3   OH232496   2.980   6.679   4.099 -0.5177 -0.0568  0.5167
 3694TIP3    H132497   3.000   6.761   4.054 -1.8026  0.5220  0.9991
 3694TIP3    H232498   2.966   6.704   4.191  1.4772 -1.1452  1.1482
 3695TIP3   OH232499   5.700   2.473  11.977 -0.2674 -0.5910  0.0914
 3695TIP3    H132500   5.692   2.540  11.909  0.1822  1.4374  1.9575
 3695TIP3    H232501   5.765   2.412  11.943 -2.4791 -1.4653 -2.7178
 3696TIP3   OH232502   5.567   1.633   4.248  0.0726 -0.1933 -0.4829
 3696TIP3    H132503   5.513   1.565   4.209 -0.5064 -0.0071 -0.0107
 3696TIP3    H232504   5.619   1.586   4.314 -1.1387  0.0003  0.6329
 3697TIP3   OH232505   2.944   4.862   3.111  0.1610 -0.6070 -0.7564
 3697TIP3    H132506   2.944   4.920   3.034  0.7473  2.8363  1.6853
 3697TIP3    H232507   3.035   4.864   3.142 -0.2673 -1.1547  0.5715
 3698TIP3   OH232508   4.626   5.774   4.662  0.5918 -0.4086 -0.2521
 3698TIP3    H132509   4.558   5.721   4.621  2.2694 -2.4450 -0.5066
 3698TIP3    H232510   4.582   5.819   4.734 -0.6088 -3.2599  0.8759
 3699TIP3   OH232511   2.379   6.688   4.940 -0.2802 -0.2654 -0.4219
 3699TIP3    H132512   2.370   6.656   5.029  0.7954 -0.5983 -0.4342
 3699TIP3    H232513   2.377   6.784   4.949 -2.9135 -0.2740 -0.3372
 3700TIP3   OH232514   0.024   1.081   4.906  0.3109  0.3919  0.4813
 3700TIP3    H132515  -0.056   1.034   4.934 -0.2545 -0.3943 -2.2686
 3700TIP3    H232516   0.089   1.057   4.971  0.0505 -4.4028 -0.7971
 3701TIP3   OH232517   5.709   5.758   0.507  0.5213 -0.0311  0.2279
 3701TIP3    H132518   5.689   5.711   0.425  0.3243  1.2081 -0.4433
 3701TIP3    H232519   5.802   5.778   0.500 -0.2107  3.1494 -1.3315
 3702TIP3   OH232520   6.293   2.496  15.579  0.4349  0.1602  0.3850
 3702TIP3    H132521   6.284   2.545  15.498  2.0672 -0.6797 -0.3275
 3702TIP3    H232522   6.387   2.492  15.595  0.2025 -0.8062  1.6100
 3703TIP3   OH232523   5.636   1.780   0.195  0.5042 -0.1098  0.7669
 3703TIP3    H132524   5.680   1.738   0.269  1.0026 -0.2291  0.4084
 3703TIP3    H232525   5.639   1.715   0.125  1.4921  0.6005  0.1363
 3704TIP3   OH232526   0.591   5.506  17.128  0.1839  0.2844 -0.1990
 3704TIP3    H132527   0.586   5.533  17.220  0.3182  2.0359 -0.6907
 3704TIP3    H232528   0.519   5.553  17.086  1.2481  0.9104 -1.3269
 3705TIP3   OH232529   6.199   2.486   1.794  0.0646  0.0529  0.4057
 3705TIP3    H132530   6.266   2.519   1.735 -1.1680  0.4167 -0.8222
 3705TIP3    H232531   6.225   2.519   1.880 -0.0869  2.6555 -0.4809
 3706TIP3   OH232532   1.571   0.091  14.610 -0.1124 -0.7648  0.2682
 3706TIP3    H132533   1.621   0.149  14.553 -0.0839 -1.3866 -0.3415
 3706TIP3    H232534   1.621   0.088  14.691 -0.4722  0.6113  0.5507
 3707TIP3   OH232535   2.790   3.304  12.928  0.8535 -0.4202 -0.1190
 3707TIP3    H132536   2.755   3.390  12.907  1.7928 -0.1179 -0.4760
 3707TIP3    H232537   2.776   3.294  13.022 -0.5881 -0.4978 -0.3296
 3708TIP3   OH232538   0.561   4.257  15.473 -0.8571 -0.1628  0.4346
 3708TIP3    H132539   0.650   4.224  15.458 -1.4271 -1.1742 -0.9388
 3708TIP3    H232540   0.516   4.184  15.516 -1.0503  0.3132  1.0425
 3709TIP3   OH232541   1.173   5.406  15.474  0.0140  0.7452  0.1407
 3709TIP3    H132542   1.085   5.442  15.468 -0.7093 -0.7902  1.3957
 3709TIP3    H232543   1.178   5.343  15.402 -0.5538 -0.4948  1.1728
 3710TIP3   OH232544   2.608   4.129   1.256  0.8308 -0.2927 -0.0591
 3710TIP3    H132545   2.590   4.187   1.330 -3.8893 -0.8580 -0.6211
 3710TIP3    H232546   2.646   4.186   1.189 -2.1791  1.8656 -0.0016
 3711TIP3   OH232547   4.131   1.944   3.484  0.0902  0.0512  0.0129
 3711TIP3    H132548   4.151   2.035   3.508  1.1462  0.1597 -1.2332
 3711TIP3    H232549   4.216   1.901   3.483  0.0534 -0.0274 -3.1856
 3712TIP3   OH232550   0.830   6.683  14.099 -0.7122 -1.2003  0.1759
 3712TIP3    H132551   0.888   6.705  14.173  1.1942 -1.7432 -1.1226
 3712TIP3    H232552   0.830   6.761  14.044  0.2882 -1.8558 -0.7722
 3713TIP3   OH232553   6.680   3.334  13.454 -0.2089 -0.3560 -0.2114
 3713TIP3    H132554   6.617   3.287  13.509  1.0535  0.5466  2.0578
 3713TIP3    H232555   6.719   3.265  13.400 -0.6019 -1.4477  0.8649
 3714TIP3   OH232556   0.552   1.087  16.731  0.6192 -0.1686 -0.3143
 3714TIP3    H132557   0.512   1.091  16.645 -0.4943  0.1856  0.2177
 3714TIP3    H232558   0.643   1.061  16.714  1.1101  2.3578 -1.7813
 3715TIP3   OH232559   0.274   2.450  16.524 -0.0899  0.0592  0.3072
 3715TIP3    H132560   0.322   2.479  16.602  1.7263  0.5277 -0.9365
 3715TIP3    H232561   0.191   2.418  16.557  1.5216 -1.8110  2.6841
 3716TIP3   OH232562   5.304   6.638   5.826 -0.8296 -0.5282 -0.2298
 3716TIP3    H132563   5.277   6.676   5.910  0.5651 -0.8826  0.3914
 3716TIP3    H232564   5.240   6.671   5.763 -0.9398  1.0403  0.6793
 3717TIP3   OH232565   6.364   2.351   4.128  0.0121  0.3228 -0.2892
 3717TIP3    H132566   6.415   2.353   4.210  1.4736 -1.1662 -1.1218
 3717TIP3    H232567   6.425   2.314   4.064 -2.3537 -2.2408 -1.1552
 3718TIP3   OH232568   2.302   6.150  12.922  0.2957 -0.1954  0.4075
 3718TIP3    H132569   2.279   6.242  12.914  0.7650 -0.0557  0.7092
 3718TIP3    H232570   2.312   6.120  12.832  2.2001  0.5566  0.3638
 3719TIP3   OH232571   4.113   1.983  14.140  0.0221 -0.1468  0.3091
 3719TIP3    H132572   4.192   2.026  14.172  0.3510 -0.8497  0.4566
 3719TIP3    H232573   4.093   1.917  14.207 -1.8168  1.3426  1.2678
 3720TIP3   OH232574   0.224   3.044  12.461 -0.6933  0.3602 -0.0241
 3720TIP3    H132575   0.204   3.134  12.488  0.2377  0.4332  0.4141
 3720TIP3    H232576   0.160   2.991  12.508 -0.7640  0.7229  0.2908
 3721TIP3   OH232577   4.231   6.553   6.232  0.1762 -0.9288 -0.6611
 3721TIP3    H132578   4.309   6.502   6.212 -0.7470 -2.5635 -0.2600
 3721TIP3    H232579   4.160   6.488   6.233 -0.2935 -0.6157  5.1874
 3722TIP3   OH232580   0.906   0.028  14.563 -0.6644 -0.2855  0.4930
 3722TIP3    H132581   0.869  -0.030  14.630  0.7300 -2.0751 -0.2415
 3722TIP3    H232582   0.987   0.061  14.602 -1.2330  0.8487  0.7347
 3723TIP3   OH232583   6.015   0.987   5.171 -0.1874 -0.5805 -0.3346
 3723TIP3    H132584   6.011   0.906   5.222 -0.2078  0.3245  1.1244
 3723TIP3    H232585   5.954   0.972   5.098 -1.3856 -1.2941  0.7856
 3724TIP3   OH232586   1.421   3.005  16.700  0.3429 -0.2785  0.4514
 3724TIP3    H132587   1.363   2.999  16.624 -0.8981 -1.2815  1.4555
 3724TIP3    H232588   1.372   2.963  16.770  2.1541 -0.8211  1.4126
 3725TIP3   OH232589   0.029   6.787  13.465  0.1119  0.5548 -0.1311
 3725TIP3    H132590   0.117   6.753  13.451  0.2210  0.4797  0.6899
 3725TIP3    H232591  -0.028   6.711  13.452  0.3647 -0.0175  1.8289
 3726TIP3   OH232592   6.154   1.123  15.705  0.3045  0.1067 -0.1957
 3726TIP3    H132593   6.109   1.093  15.626  0.6225  1.5367 -0.9368
 3726TIP3    H232594   6.084   1.135  15.769 -0.0549 -0.2247 -0.5155
 3727TIP3   OH232595   6.322   4.619   2.091  0.0414  0.4405  0.7857
 3727TIP3    H132596   6.349   4.693   2.144 -0.4669  0.4944  0.9751
 3727TIP3    H232597   6.349   4.542   2.141  2.5968  0.4766 -0.4506
 3728TIP3   OH232598   1.699   4.552   4.942 -0.3676 -0.0240 -0.4617
 3728TIP3    H132599   1.759   4.627   4.942 -2.2211  1.4992  0.4799
 3728TIP3    H232600   1.691   4.528   5.035 -1.0879 -0.3344 -0.6040
 3729TIP3   OH232601   2.616   2.304  15.313 -0.4015 -0.5204 -0.1965
 3729TIP3    H132602   2.636   2.350  15.231 -0.9358  4.0337  2.0626
 3729TIP3    H232603   2.521   2.294  15.313 -0.2807 -1.7906 -0.7149
 3730TIP3   OH232604   0.445   1.658  13.012 -0.2130 -0.5794  0.4446
 3730TIP3    H132605   0.511   1.600  13.048 -1.6041 -1.4726  1.6289
 3730TIP3    H232606   0.381   1.599  12.971 -1.3683  0.1165  1.1981
 3731TIP3   OH232607   6.167   0.081  12.867 -0.2469 -0.1159 -0.4587
 3731TIP3    H132608   6.147  -0.005  12.903 -0.3211 -0.3064 -0.9521
 3731TIP3    H232609   6.244   0.068  12.812  0.4784  0.3700  0.4187
 3732TIP3   OH232610   2.051   2.181  17.121  0.3448  0.5848  0.4458
 3732TIP3    H132611   2.005   2.263  17.102 -0.2014  0.3851  0.9186
 3732TIP3    H232612   2.011   2.148  17.201  0.5728 -0.1440  0.2639
 3733TIP3   OH232613   1.743   1.788   2.636  0.3751 -0.1070 -0.7901
 3733TIP3    H132614   1.802   1.794   2.560  0.6898  0.3627 -0.5125
 3733TIP3    H232615   1.802   1.774   2.710 -0.0504 -2.4652 -0.8592
 3734TIP3   OH232616   2.523   5.706   4.625  0.0750  0.0377 -0.0758
 3734TIP3    H132617   2.491   5.670   4.708 -0.5133  2.1066  0.6333
 3734TIP3    H232618   2.618   5.691   4.628  0.0686  0.1524  1.0018
 3735TIP3   OH232619   3.778   2.058   4.973 -0.5209 -0.4388  0.3192
 3735TIP3    H132620   3.747   2.131   5.027  1.1059  0.3954  0.1829
 3735TIP3    H232621   3.848   2.018   5.025  0.5714 -0.0727 -0.8348
 3736TIP3   OH232622   0.220   5.338  13.689 -0.0836  0.1277 -0.6252
 3736TIP3    H132623   0.188   5.286  13.615  1.4442  0.5115 -1.5684
 3736TIP3    H232624   0.314   5.322  13.691  0.1476  1.5149  0.1308
 3737TIP3   OH232625   4.594   2.623   2.898 -0.1550  0.0475  0.4256
 3737TIP3    H132626   4.670   2.582   2.939 -0.3972  0.8374  1.6763
 3737TIP3    H232627   4.616   2.717   2.896  0.6619 -0.1437 -2.9277
 3738TIP3   OH232628   6.297   1.974  15.795  0.1284  0.3933 -0.2390
 3738TIP3    H132629   6.369   2.004  15.852 -0.0399 -0.5960  0.5073
 3738TIP3    H232630   6.296   2.037  15.723  0.2675  1.7528  0.9178
 3739TIP3   OH232631   2.415   6.746  16.584 -0.4768  0.3227 -1.0271
 3739TIP3    H132632   2.444   6.661  16.551 -1.1642 -0.6643  0.8413
 3739TIP3    H232633   2.436   6.807  16.514  2.5375 -0.9537 -1.2867
 3740TIP3   OH232634   5.589   4.618   2.056  0.5422 -0.3695 -0.2312
 3740TIP3    H132635   5.522   4.624   2.125  1.1255  1.7291  0.1869
 3740TIP3    H232636   5.645   4.545   2.083 -0.2023 -0.6251  0.6552
 3741TIP3   OH232637   1.123   2.139   4.683 -0.6074 -0.2318  0.0609
 3741TIP3    H132638   1.104   2.111   4.772  1.0196 -1.4654  0.0505
 3741TIP3    H232639   1.215   2.116   4.670 -0.5520  0.8385 -1.5978
 3742TIP3   OH232640   2.690   1.041   1.217 -0.2842  0.5066  0.1701
 3742TIP3    H132641   2.633   1.045   1.294  0.8465  0.0453  1.0333
 3742TIP3    H232642   2.742   1.121   1.222 -0.7078  0.8382 -0.5245
 3743TIP3   OH232643   2.022   3.157  13.917 -0.3373  0.3052  0.1016
 3743TIP3    H132644   2.014   3.099  13.842 -2.0005  0.2175  0.3189
 3743TIP3    H232645   2.071   3.107  13.982  2.0138  0.7570 -1.2620
 3744TIP3   OH232646   0.253   5.472   4.166  0.1037  0.0517 -0.4704
 3744TIP3    H132647   0.261   5.501   4.075 -1.2251 -0.4551 -0.7503
 3744TIP3    H232648   0.322   5.406   4.176  0.6864  0.5857 -0.9091
 3745TIP3   OH232649   3.964   6.449   1.183 -0.8578 -0.2876  0.0182
 3745TIP3    H132650   3.989   6.382   1.119  2.8683  1.8953 -0.9574
 3745TIP3    H232651   3.913   6.512   1.133  0.5338  0.5069 -0.4158
 3746TIP3   OH232652   1.589   4.836  11.996 -0.0466 -0.6392  0.1417
 3746TIP3    H132653   1.615   4.891  11.922  1.8375 -0.2492  1.0529
 3746TIP3    H232654   1.500   4.809  11.976 -0.1252  0.7537 -1.5026
 3747TIP3   OH232655   5.328   5.192   4.570  0.1328  0.0518  0.0236
 3747TIP3    H132656   5.349   5.282   4.547 -2.0090  0.6368  0.2160
 3747TIP3    H232657   5.324   5.193   4.666  1.2617 -0.5377  0.0861
 3748TIP3   OH232658   2.518   4.949  14.274 -0.6038  0.4696 -0.6583
 3748TIP3    H132659   2.530   5.002  14.353 -0.8368  0.4489 -0.6099
 3748TIP3    H232660   2.606   4.942  14.236 -0.6807  1.4901 -1.0462
 3749TIP3   OH232661   1.182   3.225  15.928  0.1859  0.6230 -0.6976
 3749TIP3    H132662   1.163   3.137  15.896  0.7557  0.5083 -0.7264
 3749TIP3    H232663   1.256   3.254  15.876  1.3118  0.3201  0.6793
 3750TIP3   OH232664   1.062   5.698  10.626  0.2691 -0.5284 -0.7166
 3750TIP3    H132665   1.024   5.784  10.647  1.3108 -0.6254  1.7246
 3750TIP3    H232666   0.991   5.636  10.643  1.2523 -0.6616  3.3761
 3751TIP3   OH232667   3.873   2.679   4.938  0.1795 -0.0176 -0.0171
 3751TIP3    H132668   3.843   2.591   4.916 -0.1627  0.1422 -0.2008
 3751TIP3    H232669   3.948   2.695   4.882 -0.2944  0.1417 -0.6182
 3752TIP3   OH232670   0.419   5.857  11.563  0.0495 -0.5696  0.0849
 3752TIP3    H132671   0.455   5.784  11.612 -0.9238 -1.5787 -0.6731
 3752TIP3    H232672   0.467   5.857  11.480  1.2598  0.7482  0.7618
 3753TIP3   OH232673   0.079   4.382   5.765  0.2132  0.6466  0.0526
 3753TIP3    H132674   0.164   4.341   5.778 -0.4856 -0.4133  1.4742
 3753TIP3    H232675   0.074   4.398   5.671  1.9928  0.7711 -0.0377
 3754TIP3   OH232676   0.759   6.725   5.889  0.3712  0.6610  0.1589
 3754TIP3    H132677   0.849   6.756   5.900 -0.0810  2.1321 -0.2420
 3754TIP3    H232678   0.716   6.747   5.972  0.0234  1.1894 -0.1633
 3755TIP3   OH232679   5.790   4.478  15.029  0.1324  0.3440 -0.2219
 3755TIP3    H132680   5.885   4.478  15.024  0.1072 -1.0520 -1.2086
 3755TIP3    H232681   5.770   4.516  15.115  1.5077  2.2772 -0.7390
 3756TIP3   OH232682   2.773   1.760   2.607 -0.6855  0.1267 -0.1933
 3756TIP3    H132683   2.740   1.847   2.629  0.0723  0.8014 -1.5853
 3756TIP3    H232684   2.858   1.777   2.565  0.4684 -1.4249  1.4503
 3757TIP3   OH232685   3.853   5.415   1.040 -0.5389  0.0740 -0.1339
 3757TIP3    H132686   3.922   5.426   0.975  0.1223  0.0200  0.5424
 3757TIP3    H232687   3.772   5.413   0.990 -0.1964  1.8223 -0.8171
 3758TIP3   OH232688   6.581   2.184  13.815 -0.1325 -0.3825 -0.1262
 3758TIP3    H132689   6.637   2.175  13.737  0.5858  2.0517  0.0770
 3758TIP3    H232690   6.548   2.274  13.811 -1.8030 -0.9119  1.2680
 3759TIP3   OH232691   6.539   0.249   6.110 -0.1959 -0.0287  0.3896
 3759TIP3    H132692   6.520   0.330   6.062 -1.0049 -1.2056 -1.3478
 3759TIP3    H232693   6.573   0.278   6.194  2.7242  2.1321 -1.4479
 3760TIP3   OH232694   4.358   1.686   1.459 -1.4330 -0.2895 -0.6633
 3760TIP3    H132695   4.410   1.618   1.416 -0.5715  0.4060 -0.7405
 3760TIP3    H232696   4.267   1.661   1.442 -1.1192 -0.7935 -1.6683
 3761TIP3   OH232697   4.771   6.381  14.712 -0.0318  0.3169  0.8739
 3761TIP3    H132698   4.811   6.465  14.736  1.0940  0.0192  0.0315
 3761TIP3    H232699   4.756   6.337  14.796  1.4184  0.4222  1.2024
 3762TIP3   OH232700   3.324   0.170  13.315 -0.9210 -0.2405 -0.3773
 3762TIP3    H132701   3.336   0.262  13.292 -3.5782 -0.0167 -1.0618
 3762TIP3    H232702   3.331   0.167  13.410  0.4578  0.4550 -0.4555
 3763TIP3   OH232703   3.806   5.666   1.140  0.4513  0.0903 -0.3557
 3763TIP3    H132704   3.724   5.658   1.092  0.1198 -1.7745  0.5010
 3763TIP3    H232705   3.850   5.582   1.127  1.1357  0.1981  1.1513
 3764TIP3   OH232706   5.176   6.456   4.801 -0.3375  0.0988  0.0784
 3764TIP3    H132707   5.207   6.514   4.870 -1.4465 -0.6987  1.2740
 3764TIP3    H232708   5.145   6.378   4.848  2.3625 -2.0602 -1.5485
 3765TIP3   OH232709   5.939   5.323   1.393 -0.4808  0.3938 -0.1497
 3765TIP3    H132710   5.885   5.319   1.472  0.8778  0.2137  0.7738
 3765TIP3    H232711   5.893   5.385   1.336 -0.3200  2.2414  1.6693
 3766TIP3   OH232712   2.269   1.900   0.132  0.0091 -0.0606  0.2588
 3766TIP3    H132713   2.263   1.937   0.044 -1.8646  0.5927  0.6245
 3766TIP3    H232714   2.344   1.944   0.172 -0.3828  1.1581 -0.3303
 3767TIP3   OH232715   1.552   2.584   2.917 -0.3678 -0.1899 -0.6508
 3767TIP3    H132716   1.591   2.618   2.837  2.1234 -1.5900 -0.0798
 3767TIP3    H232717   1.459   2.607   2.910 -0.0164  0.5638 -3.4476
 3768TIP3   OH232718   2.268   4.401   3.622  0.3709 -0.0422 -0.2308
 3768TIP3    H132719   2.341   4.441   3.574 -0.6255  1.8775 -0.1973
 3768TIP3    H232720   2.190   4.433   3.576 -0.5604  0.8670  1.9509
 3769TIP3   OH232721   3.946   5.769   3.453 -0.1903 -0.3235 -0.3618
 3769TIP3    H132722   3.997   5.789   3.374 -0.3832  0.1832 -0.3647
 3769TIP3    H232723   3.992   5.696   3.494  1.8386  1.5566  0.8076
 3770TIP3   OH232724   1.789   6.024  11.457  1.0495 -0.1683  0.4265
 3770TIP3    H132725   1.770   5.978  11.538 -0.1526  1.8442  1.3232
 3770TIP3    H232726   1.744   5.973  11.389 -2.0804  0.8320  1.6717
 3771TIP3   OH232727   2.304   3.371   0.121 -0.2856 -0.2672  0.2737
 3771TIP3    H132728   2.284   3.316   0.046 -1.3169 -1.6017  1.4899
 3771TIP3    H232729   2.300   3.311   0.196  3.6330  0.3758  1.1256
 3772TIP3   OH232730   0.627   1.267   5.813 -0.3041  0.3236  0.0732
 3772TIP3    H132731   0.573   1.343   5.834 -0.9558 -0.3919  1.0351
 3772TIP3    H232732   0.667   1.288   5.729 -0.4066  1.7678  0.3756
 3773TIP3   OH232733   2.278   4.977  12.597  0.2929 -0.1714 -0.6413
 3773TIP3    H132734   2.280   5.069  12.571 -0.9598  0.0526  0.0120
 3773TIP3    H232735   2.366   4.945  12.578  2.5919  2.6369  4.3673
 3774TIP3   OH232736   2.875   1.222  12.618  0.2035  0.0766 -0.3127
 3774TIP3    H132737   2.915   1.161  12.681 -1.4904 -4.2329 -3.1359
 3774TIP3    H232738   2.950   1.263  12.574  1.4655 -1.8471 -0.0469
 3775TIP3   OH232739   5.898   3.713  17.086  0.1659  0.2460  0.7325
 3775TIP3    H132740   5.978   3.697  17.135  0.9557  3.3510  0.5544
 3775TIP3    H232741   5.843   3.765  17.145 -0.6877  0.2594 -0.0570
 3776TIP3   OH232742   1.609   3.260  15.769 -0.3937  0.2029  0.3503
 3776TIP3    H132743   1.650   3.325  15.711 -1.4522  1.1463  0.6365
 3776TIP3    H232744   1.515   3.270  15.752 -0.4893 -2.9244 -1.3813
 3777TIP3   OH232745   6.333   5.229  13.727  0.1509  0.4319 -0.2826
 3777TIP3    H132746   6.290   5.293  13.784 -0.4779 -0.9318  0.8082
 3777TIP3    H232747   6.296   5.246  13.641  1.4877  2.8630 -0.4360
 3778TIP3   OH232748   1.921   3.794   1.818  0.9287 -0.0310  0.2351
 3778TIP3    H132749   2.007   3.767   1.786  1.0858 -0.1838  0.7782
 3778TIP3    H232750   1.935   3.815   1.910  0.2093 -0.9152  0.5603
 3779TIP3   OH232751   4.724   1.141   4.471  0.6679  0.0815 -0.0195
 3779TIP3    H132752   4.714   1.101   4.384 -0.3324 -0.0580  0.1477
 3779TIP3    H232753   4.817   1.159   4.479  0.6739  0.6656 -1.3765
 3780TIP3   OH232754   2.597   3.942   0.340  0.2633 -0.3378  0.3904
 3780TIP3    H132755   2.534   4.014   0.341  0.5889  0.0117 -1.4937
 3780TIP3    H232756   2.585   3.898   0.424 -1.6893  0.4247  0.5430
 3781TIP3   OH232757   2.185   3.229   3.948  0.3277  0.2807  0.1275
 3781TIP3    H132758   2.092   3.251   3.948  0.1805 -0.3348 -0.3304
 3781TIP3    H232759   2.211   3.233   4.040 -0.8449 -2.5225  0.6141
 3782TIP3   OH232760   0.562   0.411   0.322  0.5876 -0.1758 -0.0966
 3782TIP3    H132761   0.579   0.317   0.317  0.1149 -0.2775  0.2010
 3782TIP3    H232762   0.641   0.451   0.284  0.0822 -0.7267 -1.7924
 3783TIP3   OH232763   1.442   1.446  12.939  0.0995  0.2978 -0.0097
 3783TIP3    H132764   1.515   1.503  12.961 -0.6903  1.2679  0.1552
 3783TIP3    H232765   1.469   1.402  12.858  1.5536 -0.6384  0.9565
 3784TIP3   OH232766   0.287   0.663  11.363 -0.1225 -0.0753 -0.5080
 3784TIP3    H132767   0.309   0.606  11.289  0.8690  1.1254 -1.1427
 3784TIP3    H232768   0.207   0.707  11.336 -0.8135 -1.0412 -0.0743
 3785TIP3   OH232769   1.648   0.846  15.385  0.1631  0.2582  0.3240
 3785TIP3    H132770   1.675   0.898  15.309  2.0860  0.0691  0.8590
 3785TIP3    H232771   1.618   0.763  15.349  1.6165 -0.0472 -0.1875
 3786TIP3   OH232772   5.758   6.280  16.131  0.5686 -0.3488 -0.0764
 3786TIP3    H132773   5.819   6.302  16.060  1.8144  0.6002  1.2523
 3786TIP3    H232774   5.740   6.364  16.173 -0.8583 -0.7779  0.1891
 3787TIP3   OH232775   0.594   5.010   6.389  0.5461  0.4405  0.0946
 3787TIP3    H132776   0.689   5.003   6.388  0.5450 -0.4633 -3.9803
 3787TIP3    H232777   0.564   4.926   6.425  1.2647  0.5749  1.0170
 3788TIP3   OH232778   5.378   0.985   6.117  0.2308 -0.0436 -0.0219
 3788TIP3    H132779   5.405   0.898   6.088  1.2123  1.0940 -2.6242
 3788TIP3    H232780   5.448   1.044   6.089 -0.2001  1.5601  2.0860
 3789TIP3   OH232781   1.703   0.626   1.696 -0.7488  0.1453 -0.2357
 3789TIP3    H132782   1.727   0.702   1.643  2.3245  0.0639  0.9083
 3789TIP3    H232783   1.623   0.652   1.741 -0.0618  2.5269 -0.3111
 3790TIP3   OH232784   6.474   5.148  15.163 -0.3773  0.1279  0.0982
 3790TIP3    H132785   6.389   5.117  15.192 -0.6300 -1.0539 -1.8998
 3790TIP3    H232786   6.493   5.098  15.084  0.7154  2.6629 -1.2918
 3791TIP3   OH232787   0.141   2.325  11.575 -0.2583 -0.3075 -0.1992
 3791TIP3    H132788   0.140   2.255  11.510  2.3616 -1.4206  0.8890
 3791TIP3    H232789   0.064   2.308  11.630  0.6899 -2.7191  0.4203
 3792TIP3   OH232790   4.605   5.867  15.151 -0.1077  0.2192 -0.9063
 3792TIP3    H132791   4.614   5.958  15.123  1.3425  0.5809  0.6279
 3792TIP3    H232792   4.511   5.853  15.157 -0.3469  2.2890  0.9175
 3793TIP3   OH232793   5.610   0.948  16.205 -0.5082  0.2863  0.3253
 3793TIP3    H132794   5.616   1.026  16.261 -0.0596  0.5674 -0.1119
 3793TIP3    H232795   5.592   0.982  16.118 -1.4818 -0.1722  0.3408
 3794TIP3   OH232796   2.957   0.983  17.194  0.1242  0.2701  0.7435
 3794TIP3    H132797   2.980   1.076  17.187  0.8336 -0.0571 -1.6126
 3794TIP3    H232798   2.868   0.983  17.228 -0.6510  1.8790 -1.2262
 3795TIP3   OH232799   2.660   1.533   4.251 -0.0049  0.1219 -0.0563
 3795TIP3    H132800   2.702   1.565   4.171  1.1632 -3.3988 -0.9711
 3795TIP3    H232801   2.572   1.508   4.223 -0.3285  0.9008  0.2589
 3796TIP3   OH232802   2.171   1.939  11.164 -0.0609 -0.2346 -0.2838
 3796TIP3    H132803   2.207   2.012  11.114  1.4114  0.7880  2.1337
 3796TIP3    H232804   2.084   1.968  11.191  0.1531  0.2633 -0.1255
 3797TIP3   OH232805   2.115   0.467   2.444 -0.2306  0.5206 -0.0656
 3797TIP3    H132806   2.126   0.542   2.503  1.9435  0.4044 -0.2787
 3797TIP3    H232807   2.171   0.487   2.370  0.0158 -1.1110 -0.3304
 3798TIP3   OH232808   0.249   3.370  15.574  0.2971  0.2838  0.0082
 3798TIP3    H132809   0.156   3.371  15.595 -0.1672  2.0440 -1.9507
 3798TIP3    H232810   0.254   3.319  15.492  1.5169 -2.7147  1.8523
 3799TIP3   OH232811   5.467   5.603  15.959  0.6537 -0.5700 -0.0228
 3799TIP3    H132812   5.537   5.649  15.912  0.9145  0.6754  1.5411
 3799TIP3    H232813   5.440   5.533  15.900  3.1643 -1.0027 -0.6907
 3800TIP3   OH232814   2.437   4.472   5.963  0.2979 -0.2875  0.3000
 3800TIP3    H132815   2.476   4.474   6.051  0.8494  0.7716  0.0429
 3800TIP3    H232816   2.477   4.397   5.920  2.4848  1.0767 -0.1344
 3801TIP3   OH232817   4.861   1.645   1.412 -0.0866  0.1849  0.2973
 3801TIP3    H132818   4.879   1.672   1.502 -1.1282 -0.1686  0.6248
 3801TIP3    H232819   4.858   1.550   1.415 -0.7541  0.1917  0.0158
 3802TIP3   OH232820   5.009   1.180  17.108  0.5505 -0.3546 -0.1697
 3802TIP3    H132821   5.080   1.244  17.115  0.9540 -0.8807  0.5559
 3802TIP3    H232822   5.052   1.095  17.112 -0.2759 -0.7014  2.3081
 3803TIP3   OH232823   2.509   0.798  15.662 -0.1538 -0.0307 -0.1552
 3803TIP3    H132824   2.578   0.737  15.686  0.0261 -0.6255 -2.1216
 3803TIP3    H232825   2.529   0.878  15.711  1.0068 -0.7104  0.4964
 3804TIP3   OH232826   3.272   1.603  11.918 -0.3250 -0.5817  0.2751
 3804TIP3    H132827   3.303   1.661  11.848 -0.7356 -0.2754  0.3453
 3804TIP3    H232828   3.180   1.587  11.897 -0.1884 -1.2883  0.2035
 3805TIP3   OH232829   3.854   4.781  16.602 -0.5867  0.3611 -0.0911
 3805TIP3    H132830   3.887   4.823  16.523 -0.0168 -0.0053 -0.0491
 3805TIP3    H232831   3.844   4.689  16.578  0.3544  0.0994  0.5092
 3806TIP3   OH232832   4.647   5.577  13.674  0.4425 -0.7508  0.4805
 3806TIP3    H132833   4.673   5.618  13.757 -0.1491 -0.9997  0.7931
 3806TIP3    H232834   4.657   5.646  13.609 -2.4966  0.5598  1.3056
 3807TIP3   OH232835   6.671   6.101   3.899  0.1196  0.3529 -0.4787
 3807TIP3    H132836   6.632   6.034   3.844 -0.4617 -0.9324  1.4550
 3807TIP3    H232837   6.680   6.177   3.841 -3.0773 -0.0454 -1.6339
 3808TIP3   OH232838   3.762   0.893   2.891 -0.1181  0.1621  0.7203
 3808TIP3    H132839   3.799   0.809   2.917  3.5948  1.3299 -0.5280
 3808TIP3    H232840   3.800   0.911   2.805 -1.8426  2.5180  0.3968
 3809TIP3   OH232841   5.247   1.512   0.292 -0.1290 -0.5138 -0.3141
 3809TIP3    H132842   5.160   1.510   0.331  0.9375 -0.9186  2.1683
 3809TIP3    H232843   5.240   1.574   0.220 -2.4765 -0.6032 -0.2064
 3810TIP3   OH232844   2.422   6.395  12.396 -0.5986 -0.2080  0.1561
 3810TIP3    H132845   2.479   6.463  12.430 -2.8363  0.8087  2.0597
 3810TIP3    H232846   2.455   6.314  12.436  1.3622 -0.1152 -1.2095
 3811TIP3   OH232847   1.374   1.469   5.765  0.2304 -0.3445 -0.0472
 3811TIP3    H132848   1.407   1.550   5.725  0.2852  0.6203  1.9297
 3811TIP3    H232849   1.400   1.401   5.703 -0.1785  1.1690 -1.9569
 3812TIP3   OH232850   2.578   2.624  11.608 -0.4538 -0.3981 -0.7713
 3812TIP3    H132851   2.527   2.645  11.530 -0.1687  0.4669 -0.7377
 3812TIP3    H232852   2.567   2.530  11.620 -2.7856 -0.1025 -0.2397
 3813TIP3   OH232853   2.204   1.672   2.248  0.0193 -0.1045 -0.6126
 3813TIP3    H132854   2.136   1.616   2.287  1.6803 -1.1817  0.8026
 3813TIP3    H232855   2.174   1.761   2.264  0.2349 -0.5179  2.4806
 3814TIP3   OH232856   1.300   3.057  11.202  0.4457  0.2130  0.6459
 3814TIP3    H132857   1.233   2.996  11.233  0.0162 -0.7829 -2.1502
 3814TIP3    H232858   1.351   3.006  11.139  1.8258  1.9325  0.3478
 3815TIP3   OH232859   3.945   1.818  14.900  0.1796  0.1761 -0.2036
 3815TIP3    H132860   3.899   1.897  14.872  0.1488  0.0637 -0.4731
 3815TIP3    H232861   4.001   1.796  14.827  3.6840  2.5651  1.6280
 3816TIP3   OH232862   2.550   0.761   1.434 -0.3050 -0.6361 -0.3885
 3816TIP3    H132863   2.594   0.781   1.517 -3.9322  1.4377  1.1411
 3816TIP3    H232864   2.574   0.834   1.376 -1.2431  0.2067  0.2678
 3817TIP3   OH232865   4.710   4.523   2.868 -0.1558 -0.8479 -0.2130
 3817TIP3    H132866   4.741   4.561   2.785 -2.7169 -0.6745 -1.1175
 3817TIP3    H232867   4.687   4.599   2.922  0.7791 -0.9838  0.3941
 3818TIP3   OH232868   4.052   4.401  11.698  0.1321  0.1548  0.2358
 3818TIP3    H132869   4.020   4.424  11.785 -1.2097 -0.2831 -0.1299
 3818TIP3    H232870   4.099   4.479  11.668 -0.7920  0.8924  0.6907
 3819TIP3   OH232871   3.937   0.170   3.893  0.7615  0.3026 -0.1193
 3819TIP3    H132872   3.913   0.171   3.986  0.1109  0.7630 -0.2845
 3819TIP3    H232873   3.894   0.248   3.857 -0.1030 -0.6214 -1.0864
 3820TIP3   OH232874   5.714   2.956   0.207 -0.2739 -0.0530  0.1554
 3820TIP3    H132875   5.723   3.051   0.202  0.4248 -0.1797 -1.6235
 3820TIP3    H232876   5.636   2.941   0.260 -1.7990  1.5623 -1.5732
 3821TIP3   OH232877   1.313   0.684   6.055  0.2480  0.5252 -0.5069
 3821TIP3    H132878   1.379   0.751   6.074 -0.7377  1.3257  0.1265
 3821TIP3    H232879   1.364   0.603   6.047  1.4831  1.3692 -1.5329
 3822TIP3   OH232880   2.813   3.941   1.170  0.6835  0.3182  0.0146
 3822TIP3    H132881   2.723   3.973   1.174  0.8583  0.6795  1.4029
 3822TIP3    H232882   2.866   4.018   1.151  0.8579  0.3997  0.8275
 3823TIP3   OH232883   5.956   1.332  11.630  0.0339  0.1732  0.3353
 3823TIP3    H132884   5.891   1.346  11.562  0.2877 -0.0716  0.0407
 3823TIP3    H232885   5.941   1.403  11.693  0.6619  1.1915 -0.6428
 3824TIP3   OH232886   4.884   2.911  13.081  0.3585  0.7033  0.6884
 3824TIP3    H132887   4.863   2.900  13.174 -0.4273  1.2805  0.5833
 3824TIP3    H232888   4.818   2.973  13.048 -0.2275 -0.5587 -0.5679
 3825TIP3   OH232889   3.786   4.741   2.839  0.1604 -0.1085 -0.0974
 3825TIP3    H132890   3.833   4.748   2.923 -1.0310 -0.1032  0.5880
 3825TIP3    H232891   3.765   4.831   2.816 -0.2437 -0.1690  0.0287
 3826TIP3   OH232892   1.129   3.673  11.923  0.0548 -0.8827  0.1927
 3826TIP3    H132893   1.190   3.622  11.976  0.6852 -0.8288 -0.4790
 3826TIP3    H232894   1.042   3.641  11.949  0.4806 -3.1853 -1.1351
 3827TIP3   OH232895   6.425   2.613  14.781  0.0834  0.0094 -0.2453
 3827TIP3    H132896   6.426   2.646  14.691 -0.4352 -2.3439 -1.1517
 3827TIP3    H232897   6.506   2.563  14.789 -0.9246 -1.6813 -0.1786
 3828TIP3   OH232898   3.897   0.003   5.110 -0.0929  0.3391  0.0706
 3828TIP3    H132899   3.856   0.087   5.092 -0.0025  0.2617 -0.5132
 3828TIP3    H232900   3.834  -0.043   5.165 -0.2150  0.7219  0.2519
 3829TIP3   OH232901   5.785   6.296  12.977 -0.2152  0.1168 -0.5198
 3829TIP3    H132902   5.813   6.310  13.067  0.5313  0.5332 -0.8194
 3829TIP3    H232903   5.705   6.348  12.968  0.2663  0.8830 -0.3960
 3830TIP3   OH232904   3.112   1.829   0.487  0.3011  0.0535  0.0672
 3830TIP3    H132905   3.051   1.800   0.419 -0.3418  0.1752  0.5888
 3830TIP3    H232906   3.176   1.882   0.440  1.0827 -1.6299 -0.7777
 3831TIP3   OH232907   3.668   5.371   0.819  0.3961  0.2590  0.5256
 3831TIP3    H132908   3.697   5.366   0.727  0.1932  0.5148  0.4483
 3831TIP3    H232909   3.587   5.319   0.821  0.9647 -0.6226  0.7843
 3832TIP3   OH232910   5.970   5.134  14.069  0.8048  0.0554  0.0041
 3832TIP3    H132911   5.977   5.209  14.011 -2.6036  1.5306  1.3490
 3832TIP3    H232912   5.993   5.168  14.156 -0.0682 -0.6279  0.5144
 3833TIP3   OH232913   6.162   4.140  14.514  0.2132  0.3905 -0.0060
 3833TIP3    H132914   6.093   4.127  14.579  1.0966 -0.0413  0.8840
 3833TIP3    H232915   6.235   4.087  14.547  0.2995 -0.7533 -1.9703
 3834TIP3   OH232916   5.961   6.772  15.484  0.3800 -0.2489  0.3249
 3834TIP3    H132917   5.893   6.836  15.505  0.2886  0.0365 -0.8420
 3834TIP3    H232918   5.997   6.801  15.401  2.6526  0.2006  1.4267
 3835TIP3   OH232919   2.892   5.166   5.949  0.1701  0.2209 -0.0611
 3835TIP3    H132920   2.918   5.202   6.033 -1.9633 -3.2979  2.2305
 3835TIP3    H232921   2.972   5.129   5.913  0.5716 -0.6131  1.6731
 3836TIP3   OH232922   4.147   1.831  15.094  0.2077 -0.7791  0.3896
 3836TIP3    H132923   4.216   1.786  15.045  0.0994 -0.1459 -0.3465
 3836TIP3    H232924   4.074   1.839  15.032 -0.4261 -1.1834  1.0727
 3837TIP3   OH232925   4.529   4.799  10.557 -0.0724 -0.2041 -0.5844
 3837TIP3    H132926   4.469   4.764  10.623 -0.7689  1.5839 -0.2256
 3837TIP3    H232927   4.472   4.834  10.489  0.5405  1.5029 -0.2525
 3838TIP3   OH232928   6.005   0.902  14.892 -0.4976 -0.0667 -0.0431
 3838TIP3    H132929   6.051   0.916  14.809 -0.8472 -0.2768 -0.2763
 3838TIP3    H232930   5.929   0.959  14.887 -0.2865  0.2501  0.3241
 3839TIP3   OH232931   0.937   3.137  12.490 -0.1547  0.5444  0.0221
 3839TIP3    H132932   0.995   3.066  12.516 -1.3245  0.6212  3.0657
 3839TIP3    H232933   0.849   3.101  12.500 -0.7054  1.4717 -1.3591
 3840TIP3   OH232934   5.233   6.685   3.473 -0.5401 -0.0120 -0.3875
 3840TIP3    H132935   5.156   6.680   3.416  0.1807  1.7488 -1.5614
 3840TIP3    H232936   5.198   6.674   3.561 -1.7987 -1.8890 -1.0750
 3841TIP3   OH232937   2.760   4.985  15.614 -0.3509  0.4678 -0.2626
 3841TIP3    H132938   2.691   5.047  15.639 -0.1720  0.7410 -0.4476
 3841TIP3    H232939   2.807   4.967  15.695 -0.2541  0.7554 -0.2562
 3842TIP3   OH232940   2.149   6.635  10.921 -0.1059 -0.2807  0.1916
 3842TIP3    H132941   2.063   6.594  10.926  0.3479 -1.4234 -1.2204
 3842TIP3    H232942   2.150   6.680  10.836  0.4092  0.3845  0.5359
 3843TIP3   OH232943   3.332   5.897  15.751  0.0201  0.0169 -0.1080
 3843TIP3    H132944   3.381   5.884  15.669  0.4064 -1.1394  0.2876
 3843TIP3    H232945   3.357   5.822  15.805 -0.5947  0.5302  0.8958
 3844TIP3   OH232946   4.466   0.877   0.593  0.1768 -0.3838  0.3111
 3844TIP3    H132947   4.443   0.786   0.574 -2.7056 -0.3933  3.1836
 3844TIP3    H232948   4.484   0.877   0.688  0.0667  2.0352  0.3562
 3845TIP3   OH232949   6.676   3.343  12.423 -0.4444 -0.4215 -0.1393
 3845TIP3    H132950   6.768   3.366  12.409 -0.4166  0.5081  1.4405
 3845TIP3    H232951   6.677   3.289  12.502 -1.0737 -1.8418 -1.0834
 3846TIP3   OH232952   2.580   0.087   5.054 -0.0756 -0.2630 -0.2456
 3846TIP3    H132953   2.619   0.104   4.969 -0.2169 -2.1140 -0.7067
 3846TIP3    H232954   2.486   0.106   5.042  0.2183  1.4779  0.0909
 3847TIP3   OH232955   1.068   0.487   4.509 -0.1019  0.4250  0.0104
 3847TIP3    H132956   1.059   0.393   4.492  0.3152  0.1510  1.2845
 3847TIP3    H232957   1.150   0.511   4.465  0.1958  0.0291  0.3394
 3848TIP3   OH232958   0.455   2.198   1.593  0.2772  0.4159 -0.0587
 3848TIP3    H132959   0.373   2.163   1.557  2.1516 -2.1671 -2.0163
 3848TIP3    H232960   0.503   2.231   1.517  2.5142 -1.2863  0.5488
 3849TIP3   OH232961   1.206   5.651   0.894  0.5397  0.2831  0.1544
 3849TIP3    H132962   1.236   5.588   0.829  0.8737  0.6160 -0.0153
 3849TIP3    H232963   1.118   5.621   0.918  0.6582 -0.1817 -0.0049
 3850TIP3   OH232964   2.129   2.351  14.194  0.6695  0.4772  0.8044
 3850TIP3    H132965   2.218   2.346  14.161 -0.0431 -0.2423 -1.0639
 3850TIP3    H232966   2.137   2.334  14.288  2.4111 -0.2419  0.5390
 3851TIP3   OH232967   2.687   4.921  12.869 -0.3652 -0.2507 -0.2752
 3851TIP3    H132968   2.774   4.961  12.870 -0.3191 -0.3588  1.3467
 3851TIP3    H232969   2.703   4.828  12.886 -0.7697 -0.3368 -0.3609
 3852TIP3   OH232970   5.700   2.566  13.117  0.3122  0.7691 -0.1936
 3852TIP3    H132971   5.622   2.618  13.136  0.7601  1.1968  0.5200
 3852TIP3    H232972   5.667   2.489  13.070 -0.9070 -0.4743  2.5799
 3853TIP3   OH232973   5.617   2.822  15.557 -0.2149  0.2696 -0.0822
 3853TIP3    H132974   5.575   2.878  15.622  2.0097  1.4877  0.3339
 3853TIP3    H232975   5.643   2.882  15.487 -0.5068 -0.6991 -1.0387
 3854TIP3   OH232976   5.038   6.448   4.024 -0.2056 -0.0787 -0.5120
 3854TIP3    H132977   5.045   6.543   4.033  2.9338 -0.0607 -2.2264
 3854TIP3    H232978   5.056   6.432   3.931 -1.5687 -2.3197 -0.4389
 3855TIP3   OH232979   4.956   2.392   1.107 -0.1250 -0.3022  0.3684
 3855TIP3    H132980   4.929   2.423   1.021  1.3237 -0.0660 -0.0200
 3855TIP3    H232981   4.955   2.297   1.101  1.1600 -0.2853 -0.3128
 3856TIP3   OH232982   3.029   0.308  10.717 -0.5910 -0.2790 -0.1555
 3856TIP3    H132983   3.019   0.304  10.622  0.5524  0.9314 -0.3412
 3856TIP3    H232984   3.090   0.237  10.738 -1.0807 -0.7433 -0.2733
 3857TIP3   OH232985   4.498   3.359   5.874 -1.0643 -0.1003 -0.4899
 3857TIP3    H132986   4.463   3.444   5.900 -0.1974  0.4196 -1.0014
 3857TIP3    H232987   4.467   3.346   5.784  0.5720  0.6603 -1.1807
 3858TIP3   OH232988   3.442   3.498   5.218 -0.4924 -0.2688 -0.2035
 3858TIP3    H132989   3.457   3.403   5.226 -1.0636 -0.2454  1.3093
 3858TIP3    H232990   3.521   3.538   5.255  0.4646 -0.1172 -2.2941
 3859TIP3   OH232991   1.862   0.084   2.622 -1.2662  0.2974 -0.7872
 3859TIP3    H132992   1.804   0.083   2.698  1.8099 -2.1724  1.6820
 3859TIP3    H232993   1.905   0.170   2.627  0.1611 -0.4927  1.3430
 3860TIP3   OH232994   1.645   0.196   5.005  0.8024  0.0453  0.1304
 3860TIP3    H132995   1.637   0.117   5.058  1.2315 -0.0752  0.0189
 3860TIP3    H232996   1.593   0.177   4.927 -0.6646  0.6132  0.9457
 3861TIP3   OH232997   6.779   5.778   4.507  0.0226  0.1148  0.6906
 3861TIP3    H132998   6.759   5.870   4.488  0.0392 -0.1624 -0.7796
 3861TIP3    H232999   6.767   5.769   4.601 -0.5151  1.4947  0.7626
 3862TIP3   OH233000   6.456   5.068  11.832  0.4399 -0.2046 -0.1384
 3862TIP3    H133001   6.539   5.076  11.880  1.0286  1.1595 -1.3306
 3862TIP3    H233002   6.390   5.102  11.892  1.3264  2.6427 -0.6557
 3863TIP3   OH233003   6.190   2.202  12.209  0.0731 -0.1329  0.0927
 3863TIP3    H133004   6.281   2.229  12.211 -0.2708  1.0062  0.9946
 3863TIP3    H233005   6.193   2.109  12.188  1.3935  0.0788 -0.7129
 3864TIP3   OH233006   2.087   2.020   4.307 -0.3692  0.2580  0.4761
 3864TIP3    H133007   2.116   1.980   4.389  2.1599 -0.8897 -0.9338
 3864TIP3    H233008   2.128   2.107   4.308  1.0340 -0.3734 -0.2934
 3865TIP3   OH233009   2.366   5.744   3.554  0.6565  0.5088  0.2038
 3865TIP3    H133010   2.362   5.831   3.516 -0.0517  0.7996  0.9305
 3865TIP3    H233011   2.399   5.757   3.643  2.5609 -0.1960 -0.3653
 3866TIP3   OH233012   2.951   1.340   6.061  0.0738  0.1207 -0.2197
 3866TIP3    H133013   2.892   1.356   6.134 -1.9412 -2.3036 -1.2003
 3866TIP3    H233014   3.037   1.326   6.101 -0.7280  0.2244  1.5607
 3867TIP3   OH233015   4.055   5.630   2.976  0.0428 -0.5452  0.2230
 3867TIP3    H133016   4.065   5.704   2.917  1.0423 -0.8108  0.0425
 3867TIP3    H233017   3.966   5.636   3.009  0.4091  1.2561  0.9144
 3868TIP3   OH233018   0.491   3.402  13.995 -0.2459 -0.0896  0.5501
 3868TIP3    H133019   0.400   3.391  14.024  0.2141 -0.2982  1.9333
 3868TIP3    H233020   0.514   3.491  14.022  0.4446 -0.5711  1.5690
 3869TIP3   OH233021   1.885   6.219   4.460  0.0965  0.1206  1.0133
 3869TIP3    H133022   1.795   6.251   4.456 -0.3329 -1.1205  0.6500
 3869TIP3    H233023   1.887   6.142   4.403  1.1171 -0.5008  1.8500
 3870TIP3   OH233024   3.548   6.781  14.834 -0.2178  0.4259  0.3174
 3870TIP3    H133025   3.478   6.792  14.770 -0.2745  2.5784  0.7073
 3870TIP3    H233026   3.612   6.724  14.791 -2.0457 -1.3589 -0.1517
 3871TIP3   OH233027   2.486   4.547  16.763  0.6478  0.8809  0.2009
 3871TIP3    H133028   2.515   4.567  16.852  0.5817  1.2259  0.1473
 3871TIP3    H233029   2.444   4.462  16.770  2.1325  0.1271  0.1861
 3872TIP3   OH233030   6.535   3.892  15.644 -0.1531 -0.2179  0.4709
 3872TIP3    H133031   6.595   3.966  15.649 -0.8563  0.3288  1.0482
 3872TIP3    H233032   6.548   3.855  15.557 -1.1604  1.7793 -0.5582
 3873TIP3   OH233033   0.046   4.636   0.399  0.2608 -0.1150 -0.0076
 3873TIP3    H133034   0.083   4.552   0.427  0.2321 -0.1535 -0.0854
 3873TIP3    H233035   0.115   4.675   0.345  0.5625  0.2323  0.6108
 3874TIP3   OH233036   5.317   3.511  11.658 -0.1317 -0.3727 -0.7551
 3874TIP3    H133037   5.338   3.582  11.598  1.3782  0.2228  0.4354
 3874TIP3    H233038   5.402   3.480  11.689 -0.8562 -1.2676  0.3813
 3875TIP3   OH233039   5.515   3.602  13.472  0.2889  0.4596 -0.4010
 3875TIP3    H133040   5.559   3.579  13.554 -2.4312 -0.9227  0.7386
 3875TIP3    H233041   5.451   3.669  13.497  1.0757  1.8072 -1.8732
 3876TIP3   OH233042   3.102   2.504  13.412  0.3246  0.3501  0.0132
 3876TIP3    H133043   3.100   2.553  13.494 -0.6440 -0.6130  0.5815
 3876TIP3    H233044   3.028   2.537  13.362 -0.1355 -0.2867  0.2634
 3877TIP3   OH233045   5.535   2.075  11.932 -0.2443 -0.4293 -0.0120
 3877TIP3    H133046   5.450   2.040  11.961  0.2539 -1.9561 -0.3537
 3877TIP3    H233047   5.519   2.105  11.843 -0.7975  0.6601  0.4476
 3878TIP3   OH233048   5.875   2.249   2.002  0.3508 -0.2242 -0.0793
 3878TIP3    H133049   5.911   2.262   1.914  0.6086 -3.4922 -0.5143
 3878TIP3    H233050   5.781   2.241   1.987 -0.1687  3.6141  0.5273
 3879TIP3   OH233051   2.544   4.589  11.742  0.1486 -0.5394  0.0732
 3879TIP3    H133052   2.637   4.586  11.719  0.4369 -1.9508  1.3836
 3879TIP3    H233053   2.517   4.497  11.747 -1.3629 -0.1419 -0.4384
 3880TIP3   OH233054   5.985   6.564   4.716  0.4920 -0.1123  0.1059
 3880TIP3    H133055   5.898   6.526   4.704  0.3465  0.4374 -0.5558
 3880TIP3    H233056   6.046   6.490   4.707  0.1597 -0.3195 -0.3903
 3881TIP3   OH233057   0.474   3.156  11.024 -0.5058 -0.5308 -0.0142
 3881TIP3    H133058   0.385   3.138  11.053 -0.5831 -0.4916 -0.2287
 3881TIP3    H233059   0.525   3.161  11.105 -1.0719  1.5424  0.2371
 3882TIP3   OH233060   4.579   4.970   5.863  0.6292 -0.1842 -0.0341
 3882TIP3    H133061   4.665   4.945   5.896  0.6187 -1.1155 -0.7008
 3882TIP3    H233062   4.517   4.935   5.927  0.7563  0.9470  0.7287
 3883TIP3   OH233063   4.455   3.244   0.635  0.4551  0.3414  0.0078
 3883TIP3    H133064   4.436   3.268   0.726  0.6472  0.8924 -0.0925
 3883TIP3    H233065   4.545   3.274   0.621  0.4500  0.1874 -0.3409
 3884TIP3   OH233066   0.944   4.975  17.022  0.0253 -0.0146  0.0250
 3884TIP3    H133067   0.918   5.006  17.108 -2.7872  1.0953 -1.1644
 3884TIP3    H233068   0.892   4.896  17.008 -0.8344  0.7712 -1.3327
 3885TIP3   OH233069   3.768   4.650  13.495  0.0559  0.5858  0.1049
 3885TIP3    H133070   3.840   4.587  13.506  0.6059  0.9156 -1.4526
 3885TIP3    H233071   3.812   4.734  13.480 -0.5575  0.4001 -3.2235
 3886TIP3   OH233072   0.321   4.763   5.002 -0.1912  0.7846  0.2608
 3886TIP3    H133073   0.256   4.732   5.065 -0.6705  0.3001 -0.4640
 3886TIP3    H233074   0.282   4.842   4.964 -0.1412  0.7706  0.1811
 3887TIP3   OH233075   2.835   3.414  12.179  0.7594  0.3850 -0.3571
 3887TIP3    H133076   2.744   3.437  12.201  0.9259 -0.7124  1.6541
 3887TIP3    H233077   2.887   3.448  12.252  1.3957 -3.0334  0.9068
 3888TIP3   OH233078   4.269   6.330  15.414  0.1238  0.2039 -0.4048
 3888TIP3    H133079   4.200   6.266  15.433  0.4900 -0.0096  0.2367
 3888TIP3    H233080   4.348   6.277  15.402 -0.1600  0.3113 -2.8818
 3889TIP3   OH233081   0.240   0.740  15.044 -0.0109  0.4451  0.0508
 3889TIP3    H133082   0.182   0.700  14.980 -0.3103  1.6407 -0.4334
 3889TIP3    H233083   0.204   0.713  15.129 -0.3841 -0.0563 -0.2635
 3890TIP3   OH233084   1.831   0.521  15.256 -0.3699  0.0191  0.1000
 3890TIP3    H133085   1.893   0.491  15.189 -0.6424  1.0092 -0.6081
 3890TIP3    H233086   1.884   0.575  15.315 -0.3205 -0.1064  0.1720
 3891TIP3   OH233087   1.245   3.874  12.997  0.5976 -0.3864  0.0999
 3891TIP3    H133088   1.328   3.835  12.969  1.5298  1.5131  0.1809
 3891TIP3    H233089   1.229   3.837  13.084  1.0649 -1.1709 -0.1391
 3892TIP3   OH233090   2.597   3.188  12.062 -0.2293  0.0682 -0.2375
 3892TIP3    H133091   2.620   3.272  12.023  2.1167 -0.3620  0.1758
 3892TIP3    H233092   2.611   3.200  12.156 -0.4448 -0.6174 -0.1098
 3893TIP3   OH233093   1.924   2.073  14.064 -0.1754 -0.2698  0.3264
 3893TIP3    H133094   1.946   2.028  13.983  1.9413  1.1015  0.1012
 3893TIP3    H233095   1.883   2.155  14.036  1.7432  0.8043  0.5848
 3894TIP3   OH233096   0.176   4.809  14.328 -0.0636  0.4607 -0.7076
 3894TIP3    H133097   0.224   4.849  14.256  0.2391  0.8135 -0.3131
 3894TIP3    H233098   0.118   4.879  14.360  0.0311  0.3994 -0.4055
 3895TIP3   OH233099   2.417   6.091  15.034  0.6734 -0.0267 -0.0113
 3895TIP3    H133100   2.423   6.015  15.091  0.9920 -1.2972 -1.7193
 3895TIP3    H233101   2.446   6.060  14.949 -2.1468  1.1976 -1.4817
 3896TIP3   OH233102   5.106   4.135   1.663 -0.0195  0.3553 -0.0588
 3896TIP3    H133103   5.154   4.217   1.650  0.3231 -0.1421 -2.0777
 3896TIP3    H233104   5.014   4.160   1.653  0.0645  0.5664 -0.3155
 3897TIP3   OH233105   6.451   5.401  11.728 -0.7037  0.0861  0.0325
 3897TIP3    H133106   6.458   5.332  11.793  0.4571  1.4952  1.4253
 3897TIP3    H233107   6.357   5.422  11.725 -0.6940  0.3907  1.6598
 3898TIP3   OH233108   5.361   3.686  15.980 -0.5078  0.1571 -0.1581
 3898TIP3    H133109   5.361   3.772  16.023 -1.9339  0.1547 -0.1214
 3898TIP3    H233110   5.369   3.623  16.052 -2.1849  0.1768  0.0555
 3899TIP3   OH233111   0.828   2.317  14.987  0.0659  0.3058  0.7013
 3899TIP3    H133112   0.895   2.385  14.986 -0.3333  0.7031  0.2536
 3899TIP3    H233113   0.745   2.365  14.977 -0.3742 -0.0794  2.4315
 3900TIP3   OH233114   2.024   0.898  16.535 -0.2060  0.5695  0.1969
 3900TIP3    H133115   1.998   0.806  16.531  1.1773  0.2473 -2.5286
 3900TIP3    H233116   2.103   0.897  16.589  1.1406 -0.2480 -1.6860
 3901TIP3   OH233117   0.255   3.925  10.703  0.4308  0.5345  0.2181
 3901TIP3    H133118   0.188   3.992  10.720  1.8788  2.1917 -0.4847
 3901TIP3    H233119   0.215   3.869  10.637 -0.9395  0.4770  1.0616
 3902TIP3   OH233120   5.595   2.127  16.576  0.8409  0.6200  0.0847
 3902TIP3    H133121   5.626   2.102  16.663  0.6199  2.0767  0.6070
 3902TIP3    H233122   5.670   2.171  16.536  0.9050  0.0541 -0.4113
 3903TIP3   OH233123   3.026   1.900  12.074  0.0007 -0.3015 -0.2943
 3903TIP3    H133124   3.037   1.821  12.127  3.6856  0.3366  0.0037
 3903TIP3    H233125   3.020   1.868  11.984 -0.1799 -1.0000 -0.0346
 3904TIP3   OH233126   6.291   6.633  16.353 -0.4157  0.4041  0.5504
 3904TIP3    H133127   6.197   6.639  16.337 -0.3800  0.6560  0.4330
 3904TIP3    H233128   6.310   6.539  16.352 -0.7434  0.3284  1.0169
 3905TIP3   OH233129   5.981   6.267   1.737  0.3275 -0.7197 -0.1192
 3905TIP3    H133130   5.907   6.289   1.794 -0.9718  0.8122 -2.3277
 3905TIP3    H233131   5.979   6.172   1.730  0.2151 -0.9004  1.9547
 3906TIP3   OH233132   5.963   5.808  14.747  0.0532 -0.0232 -0.1901
 3906TIP3    H133133   5.930   5.738  14.691  1.7382  1.0425 -2.6067
 3906TIP3    H233134   5.988   5.764  14.829 -1.6204 -1.7487 -0.5852
 3907TIP3   OH233135   6.149   5.557   2.098  0.2493  0.2419  0.0449
 3907TIP3    H133136   6.134   5.592   2.009 -0.8252  0.4583  0.3001
 3907TIP3    H233137   6.115   5.468   2.094  0.2015  0.2527  0.2380
 3908TIP3   OH233138   1.934   2.904  16.082 -0.0083 -0.2410 -0.2444
 3908TIP3    H133139   1.988   2.968  16.128 -1.9499  0.1366  1.5936
 3908TIP3    H233140   1.860   2.956  16.049 -0.2473 -1.0767 -1.0120
 3909TIP3   OH233141   3.792   0.968   5.397  0.0594 -0.1044  0.3795
 3909TIP3    H133142   3.738   0.969   5.317  1.3473  0.0849 -0.5013
 3909TIP3    H233143   3.824   0.878   5.402 -0.1075 -0.1440  0.7524
 3910TIP3   OH233144   1.700   1.165   2.991 -0.1517  0.0417  0.4590
 3910TIP3    H133145   1.691   1.123   2.905  1.3310 -0.9230  0.7440
 3910TIP3    H233146   1.663   1.101   3.052  0.2022  0.0456  0.6814
 3911TIP3   OH233147   0.347   2.313  16.938  0.8367  0.0204  0.2784
 3911TIP3    H133148   0.379   2.378  17.001  0.1896  1.0009 -0.3819
 3911TIP3    H233149   0.259   2.291  16.968  0.1922  1.1269 -0.7302
 3912TIP3   OH233150   2.392   0.675   2.414 -0.2593  0.2596 -0.3555
 3912TIP3    H133151   2.403   0.637   2.501 -1.2566  1.1010  0.1489
 3912TIP3    H233152   2.436   0.759   2.419  1.5853 -0.6235 -1.3489
 3913TIP3   OH233153   6.407   0.243  14.614  0.8396  0.4306  0.3075
 3913TIP3    H133154   6.357   0.252  14.533 -1.6472  0.3971  1.8211
 3913TIP3    H233155   6.478   0.307  14.606 -1.1532  2.5661 -0.5727
 3914TIP3   OH233156   3.436   4.493  16.319 -0.1125  0.3130  0.4012
 3914TIP3    H133157   3.365   4.430  16.314 -1.4739  1.8801 -0.1942
 3914TIP3    H233158   3.435   4.539  16.236  2.1762 -0.2203  0.0246
 3915TIP3   OH233159   2.576   4.347  14.640 -0.5379 -0.0641 -0.4835
 3915TIP3    H133160   2.502   4.398  14.674  0.0951  0.2845  0.4180
 3915TIP3    H233161   2.536   4.279  14.586 -1.5469 -0.1538  0.3478
 3916TIP3   OH233162   5.338   1.690   0.782 -0.1975 -0.1364 -0.4356
 3916TIP3    H133163   5.286   1.759   0.740 -1.4041 -1.0451 -0.4652
 3916TIP3    H233164   5.285   1.611   0.773  0.7162 -0.8730  0.4815
 3917TIP3   OH233165   4.809   5.303   0.970  0.5233  0.3172 -0.4465
 3917TIP3    H133166   4.755   5.285   0.894 -1.6703 -0.6722  1.2730
 3917TIP3    H233167   4.892   5.260   0.952  0.2254  0.5771 -2.4949
 3918TIP3   OH233168   3.539   3.258   5.273 -0.6615 -0.5092  0.1028
 3918TIP3    H133169   3.589   3.184   5.307  1.8126  0.3862 -1.4621
 3918TIP3    H233170   3.521   3.236   5.182 -0.3978  0.5688 -0.2192
 3919TIP3   OH233171   6.209   5.698   6.110  0.0481  0.7146  0.3443
 3919TIP3    H133172   6.212   5.603   6.105  0.1400  0.8092 -1.7312
 3919TIP3    H233173   6.208   5.717   6.204  2.4054 -1.2542  0.8279
 3920TIP3   OH233174   2.008   4.221  10.437 -0.7104  0.0140 -0.4974
 3920TIP3    H133175   1.975   4.131  10.450 -0.5822 -0.2975 -2.2442
 3920TIP3    H233176   2.102   4.215  10.453 -0.9248  0.1778  0.9426
 3921TIP3   OH233177   2.649   3.260  10.861  0.1514  1.1426  0.4763
 3921TIP3    H133178   2.696   3.194  10.810 -1.8940  0.1704 -0.2000
 3921TIP3    H233179   2.653   3.339  10.807  0.4491  0.8845  0.1182
 3922TIP3   OH233180   4.167   0.523  11.871 -0.3069  0.4847 -0.7156
 3922TIP3    H133181   4.198   0.467  11.943 -1.3929  0.4093 -0.2970
 3922TIP3    H233182   4.072   0.518  11.876 -0.3983  1.1103 -1.6803
 3923TIP3   OH233183   0.204   4.195  11.899  0.0962 -0.0503  0.0568
 3923TIP3    H133184   0.204   4.203  11.995  1.5090  0.0467  0.0699
 3923TIP3    H233185   0.148   4.120  11.882 -1.6481  1.0397  0.8362
 3924TIP3   OH233186   0.243   2.564   0.399  0.1745 -0.0980 -0.0886
 3924TIP3    H133187   0.180   2.634   0.417  0.0876 -0.3974  0.7809
 3924TIP3    H233188   0.306   2.569   0.471 -0.4605 -1.6261  0.5847
 3925TIP3   OH233189   6.569   1.413  12.774  0.7639 -0.7385  0.6525
 3925TIP3    H133190   6.648   1.436  12.823  1.0792  0.2200 -0.2741
 3925TIP3    H233191   6.599   1.398  12.685 -0.0762 -0.5265  0.3223
 3926TIP3   OH233192   2.199   4.219   3.239  1.0780 -0.0272  0.4752
 3926TIP3    H133193   2.231   4.292   3.187 -1.7721  0.8241 -0.1704
 3926TIP3    H233194   2.255   4.145   3.214  1.5580  1.0472 -1.7122
 3927TIP3   OH233195   5.924   2.026   1.010 -0.2730  0.4864  0.1503
 3927TIP3    H133196   5.879   2.062   1.086 -0.5334  1.1180 -0.2995
 3927TIP3    H233197   5.922   1.931   1.024  0.7059  0.6471  1.5034
 3928TIP3   OH233198   3.096   6.161  11.278  0.8824  0.2216  0.5467
 3928TIP3    H133199   3.147   6.239  11.301 -0.6387  1.4548 -0.0761
 3928TIP3    H233200   3.092   6.110  11.359  1.5228  1.0199  1.0969
 3929TIP3   OH233201   0.943   4.266   0.823 -0.0488 -0.0853 -1.0046
 3929TIP3    H133202   0.995   4.191   0.852 -2.4320 -1.9769 -1.4479
 3929TIP3    H233203   0.966   4.336   0.884  4.2598 -0.2993 -2.1927
 3930TIP3   OH233204   4.264   1.440   0.613 -0.2331 -0.5300 -0.0306
 3930TIP3    H133205   4.303   1.356   0.639  3.0533  1.8316  3.2524
 3930TIP3    H233206   4.190   1.451   0.672 -0.4976 -0.9813 -0.2749
 3931TIP3   OH233207   0.856   0.715   1.307  0.1645 -0.3581 -0.4686
 3931TIP3    H133208   0.866   0.748   1.218  0.6522 -0.1914 -0.3497
 3931TIP3    H233209   0.761   0.709   1.320  0.0870  0.4547 -0.6830
 3932TIP3   OH233210   6.296   6.181   1.242  0.3523 -0.8987  0.2064
 3932TIP3    H133211   6.224   6.179   1.305  1.5708 -1.7750  1.6346
 3932TIP3    H233212   6.335   6.093   1.248  1.1850 -0.6168 -0.9351
 3933TIP3   OH233213   3.582   1.310   0.442  0.5295 -0.0198 -0.3888
 3933TIP3    H133214   3.664   1.317   0.393  0.9486 -3.8899 -0.4302
 3933TIP3    H233215   3.607   1.320   0.533  1.1121 -1.3026 -0.3944
 3934TIP3   OH233216   4.659   3.150  11.216 -0.0509  0.6769  0.0202
 3934TIP3    H133217   4.606   3.184  11.144  0.6273  1.7638  0.0140
 3934TIP3    H233218   4.651   3.216  11.285 -1.3736 -0.7657  1.2754
 3935TIP3   OH233219   2.221   1.557   0.393  0.6944  0.2434 -0.0823
 3935TIP3    H133220   2.196   1.467   0.373 -1.9438  0.8344  0.2686
 3935TIP3    H233221   2.179   1.608   0.323 -0.4595  1.4441  1.4513
 3936TIP3   OH233222   2.978   1.555   0.775  0.0827 -0.7722  0.1362
 3936TIP3    H133223   3.009   1.494   0.842  1.1654 -1.9923 -1.4191
 3936TIP3    H233224   2.941   1.498   0.707 -0.2310  0.3792 -0.6677
 3937TIP3   OH233225   4.008   6.210  11.988  0.1438  0.1157  0.0216
 3937TIP3    H133226   3.915   6.196  12.005  0.0930 -0.9605 -1.0400
 3937TIP3    H233227   4.050   6.199  12.073 -0.4394 -1.9062  0.0801
 3938TIP3   OH233228   5.087   4.352  13.946 -0.0375 -0.6278 -0.0687
 3938TIP3    H133229   5.046   4.370  14.031  0.2915 -0.0999 -0.0188
 3938TIP3    H233230   5.017   4.314  13.893 -0.3118 -0.7212  0.3580
 3939TIP3   OH233231   3.223   3.278   3.049 -0.2038 -0.4568  0.1441
 3939TIP3    H133232   3.307   3.235   3.039  0.2692  0.6888 -0.9527
 3939TIP3    H233233   3.224   3.349   2.984 -1.6885  0.0513  0.6478
 3940TIP3   OH233234   1.586   1.273  11.492  0.1666 -0.0758  0.5438
 3940TIP3    H133235   1.626   1.193  11.525  0.9492 -1.1733 -2.7837
 3940TIP3    H233236   1.660   1.333  11.481  0.3037 -0.5608 -1.3798
 3941TIP3   OH233237   2.553   2.929  11.042  0.5193 -0.3845 -0.2683
 3941TIP3    H133238   2.500   2.850  11.046 -1.0215  0.6607  0.3363
 3941TIP3    H233239   2.569   2.942  10.949 -1.6480  0.1618 -0.5892
 3942TIP3   OH233240   2.119   1.644   4.504  0.0464 -0.1698  0.4136
 3942TIP3    H133241   2.042   1.611   4.550 -1.1110  0.2116 -1.2080
 3942TIP3    H233242   2.106   1.617   4.414  1.8084 -0.0565  0.1107
 3943TIP3   OH233243   4.593   0.938  14.848  0.1168 -0.5288 -0.5779
 3943TIP3    H133244   4.675   0.982  14.872  1.0419 -1.9706 -0.9697
 3943TIP3    H233245   4.580   0.962  14.756 -0.7509  0.9601 -0.0806
 3944TIP3   OH233246   5.787   4.604  11.806  0.2337 -0.4876 -0.8629
 3944TIP3    H133247   5.720   4.547  11.768 -0.6939 -0.7031  1.0559
 3944TIP3    H233248   5.836   4.548  11.866  0.3526  0.3477 -0.1763
 3945TIP3   OH233249   0.894   1.011   6.111  0.1676 -0.2145 -0.6350
 3945TIP3    H133250   0.975   1.043   6.151  0.3092 -0.4997 -0.6969
 3945TIP3    H233251   0.830   1.080   6.130  0.3235 -0.1752 -0.2368
 3946TIP3   OH233252   5.538   4.781  14.263  0.0875  0.1545 -0.7295
 3946TIP3    H133253   5.597   4.844  14.221  1.4172 -1.4266 -1.2531
 3946TIP3    H233254   5.477   4.836  14.312 -0.1010  1.9619 -2.8755
 3947TIP3   OH233255   4.554   5.160  16.382 -0.0107 -0.3738 -0.0536
 3947TIP3    H133256   4.468   5.168  16.342 -0.1499 -2.3713 -0.2037
 3947TIP3    H233257   4.571   5.246  16.420 -1.7978  0.2185 -0.5553
 3948TIP3   OH233258   1.209   0.812   2.064 -0.3060  0.1118  0.0537
 3948TIP3    H133259   1.255   0.871   2.003 -2.5628  1.1582 -0.6823
 3948TIP3    H233260   1.204   0.729   2.017  1.9983 -0.4200  0.6880
 3949TIP3   OH233261   3.712   5.223  16.625 -0.1962  0.3328  0.1570
 3949TIP3    H133262   3.669   5.227  16.710 -0.3062  0.3776  0.1013
 3949TIP3    H233263   3.660   5.160  16.575  1.3849 -1.6704  0.9627
 3950TIP3   OH233264   2.997   5.338  17.145  0.2184 -0.3571 -0.2129
 3950TIP3    H133265   3.050   5.277  17.093  1.4056  0.4474  0.0216
 3950TIP3    H233266   2.948   5.389  17.081 -0.6632 -1.4505 -0.4175
 3951TIP3   OH233267   4.978   4.842   5.283 -0.2855  0.0967  0.2446
 3951TIP3    H133268   5.001   4.813   5.195  0.1347 -1.8992  0.9884
 3951TIP3    H233269   4.891   4.806   5.298  0.5232 -1.4321  1.4403
 3952TIP3   OH233270   0.332   1.931   2.218 -0.2192 -0.9750 -0.5810
 3952TIP3    H133271   0.261   1.982   2.258  1.1912  0.9631 -0.4953
 3952TIP3    H233272   0.287   1.857   2.176 -2.6007  1.6785 -2.9068
 3953TIP3   OH233273   4.603   0.365  17.121  0.8860 -0.0702  0.1148
 3953TIP3    H133274   4.576   0.452  17.151  0.5311 -0.3895  0.7477
 3953TIP3    H233275   4.533   0.336  17.063  1.2262  0.2509 -0.4630
 3954TIP3   OH233276   3.541   3.331  12.692 -0.4618  0.0745 -0.2996
 3954TIP3    H133277   3.546   3.392  12.765 -1.7413  1.0893 -1.0349
 3954TIP3    H233278   3.618   3.350  12.639 -1.0068  1.2309 -0.6694
 3955TIP3   OH233279   0.394   2.547   5.440  0.1806  0.0126  0.5581
 3955TIP3    H133280   0.309   2.593   5.438  0.5067  0.6984  1.8121
 3955TIP3    H233281   0.456   2.612   5.407  0.4453  0.0205  1.0777
 3956TIP3   OH233282   3.409   3.445  11.511  0.1873  0.3837  0.3535
 3956TIP3    H133283   3.407   3.378  11.443  0.0516 -1.4055  2.0630
 3956TIP3    H233284   3.321   3.442  11.550  0.5740  0.6427  1.2712
 3957TIP3   OH233285   6.376   1.174  12.634 -0.0957 -0.3578  0.2393
 3957TIP3    H133286   6.324   1.243  12.593  0.5793 -1.2484 -2.1813
 3957TIP3    H233287   6.310   1.115  12.672 -0.6687  2.1245  3.3839
 3958TIP3   OH233288   2.551   3.778   3.270 -0.0103  0.1559  0.2089
 3958TIP3    H133289   2.588   3.787   3.182  0.1224 -1.1425  0.1176
 3958TIP3    H233290   2.584   3.694   3.301 -0.4675  0.3753  1.3062
 3959TIP3   OH233291   0.524   0.820  16.097 -0.1184 -0.0480  0.1866
 3959TIP3    H133292   0.481   0.893  16.052 -1.5469 -0.6462  0.5499
 3959TIP3    H233293   0.617   0.838  16.087 -0.4286  0.7982 -1.4051
 3960TIP3   OH233294   6.311   0.032  14.778  0.1796 -0.8610 -0.0012
 3960TIP3    H133295   6.238   0.075  14.823  0.9591  1.3826 -0.7805
 3960TIP3    H233296   6.346   0.100  14.719  0.2176 -3.1834 -2.7687
 3961TIP3   OH233297   0.709   2.351  11.840  0.4363  0.2782 -0.5994
 3961TIP3    H133298   0.757   2.299  11.777  0.5469 -0.4958  0.1124
 3961TIP3    H233299   0.768   2.422  11.864  1.0899 -0.4650  0.0033
 3962TIP3   OH233300   2.154   4.348  16.879  0.2334  0.1405 -0.2515
 3962TIP3    H133301   2.132   4.368  16.970 -1.5352 -4.4223  0.4437
 3962TIP3    H233302   2.245   4.319  16.882 -0.5372 -2.3523  0.5532
 3963TIP3   OH233303   5.290   2.769  15.278 -0.3025  0.5295 -0.5140
 3963TIP3    H133304   5.362   2.707  15.264 -0.2024  0.4634  0.2441
 3963TIP3    H233305   5.328   2.838  15.333 -1.7156 -1.3296  2.9943
 3964TIP3   OH233306   3.851   3.977  14.136  0.3515  0.0739  0.2158
 3964TIP3    H133307   3.884   4.060  14.101  0.4464  1.0717  2.5485
 3964TIP3    H233308   3.926   3.941  14.185 -0.1485 -0.6518  0.4476
 3965TIP3   OH233309   0.533   5.407  13.203 -0.0876 -0.3541  0.1079
 3965TIP3    H133310   0.490   5.352  13.137 -0.4139 -0.5351  0.4624
 3965TIP3    H233311   0.554   5.488  13.158  1.8047 -1.3392 -0.8575
 3966TIP3   OH233312   3.323   5.663  12.138  0.1992 -0.8189 -0.2138
 3966TIP3    H133313   3.279   5.578  12.149  0.3925 -0.9926 -0.7864
 3966TIP3    H233314   3.416   5.641  12.131  0.1632 -0.6252 -1.2542
 3967TIP3   OH233315   0.544   6.693  13.681 -0.4809  0.4052  0.7188
 3967TIP3    H133316   0.596   6.748  13.623 -0.5589 -0.1910  0.0741
 3967TIP3    H233317   0.607   6.656  13.743 -0.3720  0.9220  0.9137
 3968TIP3   OH233318   3.602   6.647   0.414 -0.5175 -0.7949 -0.4992
 3968TIP3    H133319   3.611   6.555   0.437  1.5142 -0.6900 -0.7876
 3968TIP3    H233320   3.598   6.648   0.319  3.1254 -0.3674 -0.7269
 3969TIP3   OH233321   2.030   1.013  17.207  0.3043 -0.5502  0.0139
 3969TIP3    H133322   2.116   1.054  17.217 -0.5568  1.6449 -1.2412
 3969TIP3    H233323   2.002   0.995  17.296  1.1380  0.7273  0.5497
 3970TIP3   OH233324   0.276   5.264   3.866  0.0961 -0.4293 -0.0724
 3970TIP3    H133325   0.371   5.253   3.858 -0.2027 -2.1356 -1.7569
 3970TIP3    H233326   0.265   5.356   3.889  2.0244  0.9289 -4.0760
 3971TIP3   OH233327   0.611   2.742   5.658 -0.7026 -0.3616  0.6064
 3971TIP3    H133328   0.550   2.785   5.718  0.2865 -0.0426  1.3907
 3971TIP3    H233329   0.649   2.671   5.710  0.3955  0.1132  0.4633
 3972TIP3   OH233330   5.617   5.208   4.615  0.7350 -0.2985  0.3148
 3972TIP3    H133331   5.549   5.164   4.563  0.8267 -0.1445  0.0601
 3972TIP3    H233332   5.682   5.236   4.550 -0.6822  2.6977  0.1198
 3973TIP3   OH233333   0.103   6.118  11.747  0.5439  0.1923  0.0500
 3973TIP3    H133334   0.051   6.194  11.719  0.8323 -0.0815 -1.2462
 3973TIP3    H233335   0.098   6.057  11.673  1.0711 -0.6679  0.7245
 3974TIP3   OH233336   6.681   5.769  17.204  0.3289 -0.2924 -0.1925
 3974TIP3    H133337   6.663   5.863  17.207  2.6847  0.1968  0.1308
 3974TIP3    H233338   6.660   5.744  17.114 -0.7074  0.4693 -0.1674
 3975TIP3   OH233339   6.742   2.765  13.031  0.4019 -0.1044 -0.1268
 3975TIP3    H133340   6.822   2.780  12.981  0.7834  1.1195  0.8498
 3975TIP3    H233341   6.736   2.839  13.091 -1.1995 -0.4383  0.1582
 3976TIP3   OH233342   2.316   2.854   5.766 -0.1653  0.1568 -0.3736
 3976TIP3    H133343   2.356   2.934   5.731 -0.7618  0.8102  0.4057
 3976TIP3    H233344   2.223   2.864   5.748 -0.1280 -0.7873 -1.0826
 3977TIP3   OH233345   0.726   0.331  13.605  0.1098 -1.1478 -0.1050
 3977TIP3    H133346   0.750   0.386  13.678 -0.3464  0.4225 -1.1195
 3977TIP3    H233347   0.785   0.357  13.534 -2.1653  0.3064 -1.5534
 3978TIP3   OH233348   1.106   4.056   2.115 -0.3561 -0.4024  0.5188
 3978TIP3    H133349   1.145   4.047   2.029 -0.3398 -1.1016  0.6003
 3978TIP3    H233350   1.020   4.094   2.099 -0.8644 -1.7264  0.0911
 3979TIP3   OH233351   0.031   4.737   1.127 -0.0695  0.5633  0.2692
 3979TIP3    H133352   0.075   4.656   1.155 -0.6705  0.0449 -0.2680
 3979TIP3    H233353   0.098   4.805   1.138  0.6335 -0.0994  0.1794
 3980TIP3   OH233354   0.894   2.620  16.243  0.5658  0.3562  0.7210
 3980TIP3    H133355   0.988   2.607  16.254  0.6674  0.9938  0.6706
 3980TIP3    H233356   0.882   2.626  16.148  0.0688 -2.5048  0.5774
 3981TIP3   OH233357   6.216   3.500  12.750 -0.3602 -0.8750  0.5313
 3981TIP3    H133358   6.191   3.435  12.815 -1.9223  0.1157  0.9332
 3981TIP3    H233359   6.277   3.453  12.692 -1.4404 -2.6922  0.8148
 3982TIP3   OH233360   1.247   0.365   5.963  0.0461 -0.2428 -0.0686
 3982TIP3    H133361   1.337   0.392   5.981 -0.4677  1.4785  0.0696
 3982TIP3    H233362   1.253   0.272   5.942  2.1379  0.3479 -2.2691
 3983TIP3   OH233363   4.262   3.499   5.143 -0.3422 -0.0775 -0.1358
 3983TIP3    H133364   4.259   3.427   5.206  0.9934  3.6114  4.4203
 3983TIP3    H233365   4.170   3.516   5.122 -0.7082 -2.6324 -0.8182
 3984TIP3   OH233366   4.212   2.481   5.552  0.7566  0.0495  0.1826
 3984TIP3    H133367   4.267   2.405   5.532  1.0725  0.1763  0.5506
 3984TIP3    H233368   4.272   2.555   5.554  0.0254  0.7706 -2.9362
 3985TIP3   OH233369   5.005   6.353  16.519  0.1606 -0.6936  0.1704
 3985TIP3    H133370   4.930   6.302  16.486 -2.4971  1.6597  2.3053
 3985TIP3    H233371   5.048   6.294  16.581 -2.1603 -0.7974  1.7240
 3986TIP3   OH233372   2.627   4.269   0.437 -0.1310  0.2090 -0.0040
 3986TIP3    H133373   2.574   4.217   0.497 -0.8304  0.6415 -0.2309
 3986TIP3    H233374   2.602   4.237   0.350 -0.4123  0.7661 -0.1342
 3987TIP3   OH233375   0.423   6.348  14.456 -0.2273 -0.7082 -0.3319
 3987TIP3    H133376   0.442   6.438  14.482 -1.2129 -1.2734  2.5559
 3987TIP3    H233377   0.330   6.338  14.475 -0.0195 -2.4734 -0.2198
 3988TIP3   OH233378   4.413   2.562   1.577  0.3512 -0.3296  0.2339
 3988TIP3    H133379   4.364   2.581   1.657  0.7233 -1.7640  0.8200
 3988TIP3    H233380   4.403   2.641   1.523  0.6981  0.9562  1.9982
 3989TIP3   OH233381   3.844   1.419   6.154  0.3100  0.5824  0.0398
 3989TIP3    H133382   3.915   1.398   6.093  0.2845  1.5298 -0.3154
 3989TIP3    H233383   3.814   1.333   6.185  1.0218  0.1379 -0.4740
 3990TIP3   OH233384   4.799   5.376   1.950  0.5719 -0.4270  0.2950
 3990TIP3    H133385   4.786   5.286   1.922  0.0454 -0.4515  0.6108
 3990TIP3    H233386   4.890   5.379   1.981  1.0651 -0.4630 -1.1355
 3991TIP3   OH233387   3.384   6.484  10.364 -0.3445 -0.1280 -0.2342
 3991TIP3    H133388   3.311   6.514  10.310  0.4166  0.8174 -0.7723
 3991TIP3    H233389   3.391   6.391  10.345 -1.5652 -0.2755  0.0122
 3992TIP3   OH233390   1.883   5.831  10.301 -0.3351  0.0096 -0.9414
 3992TIP3    H133391   1.920   5.769  10.363 -0.5533 -0.9614 -1.7779
 3992TIP3    H233392   1.840   5.897  10.356  0.2563 -0.3463 -0.0445
 3993TIP3   OH233393   1.608   6.218   6.355  0.6553  0.1920  0.1249
 3993TIP3    H133394   1.530   6.175   6.390  0.7409  0.4044  0.5682
 3993TIP3    H233395   1.617   6.298   6.407 -0.4809  1.6213 -1.7989
 3994TIP3   OH233396   4.028   0.551  15.640 -0.2006  0.1909  0.6187
 3994TIP3    H133397   3.950   0.560  15.585 -0.0418  0.6508  0.4740
 3994TIP3    H233398   4.055   0.640  15.660  0.3980  0.0325  0.5229
 3995TIP3   OH233399   5.256   5.955   0.282  0.5688  0.6937  0.4456
 3995TIP3    H133400   5.335   5.904   0.263  0.6412 -0.0555  2.6736
 3995TIP3    H233401   5.185   5.890   0.283  0.3273  0.9649  1.0744
 3996TIP3   OH233402   0.581   0.689   1.351  0.0548  0.2505 -0.5385
 3996TIP3    H133403   0.528   0.768   1.368  1.6278  1.4305 -1.0034
 3996TIP3    H233404   0.534   0.619   1.396 -0.6115  1.7055  1.0866
 3997TIP3   OH233405   5.122   4.843  10.903  0.3185  0.1021  0.0562
 3997TIP3    H133406   5.039   4.810  10.940 -0.3325 -0.3035 -1.7198
 3997TIP3    H233407   5.104   4.935  10.883 -0.0662 -0.2633 -1.3281
 3998TIP3   OH233408   1.625   1.068   5.619  0.2867 -0.6267  0.4315
 3998TIP3    H133409   1.683   1.045   5.547 -1.2543 -0.0881 -1.0223
 3998TIP3    H233410   1.538   1.040   5.590 -0.6959  1.5773  1.1512
 3999TIP3   OH233411   1.421   3.519   2.460 -0.0683 -0.0398 -0.4727
 3999TIP3    H133412   1.474   3.442   2.481 -0.0328  0.4123  1.1893
 3999TIP3    H233413   1.337   3.502   2.503  1.1212  2.4243  3.0742
 4000TIP3   OH233414   2.813   3.539   6.021 -0.4919  0.3200  0.6368
 4000TIP3    H133415   2.805   3.531   5.926 -0.9064  0.5751  0.6449
 4000TIP3    H233416   2.775   3.625   6.040  0.8396  0.8629  0.8831
 4001TIP3   OH233417   1.020   6.476   5.127  0.0644  0.1323 -0.2936
 4001TIP3    H133418   1.060   6.506   5.046  0.3924  1.8144  0.4553
 4001TIP3    H233419   0.942   6.531   5.137 -1.2251 -1.5879 -0.5950
 4002TIP3   OH233420   1.586   3.019  10.568 -0.4388  0.0603  0.0645
 4002TIP3    H133421   1.651   2.960  10.528  0.3196  0.6973  0.3383
 4002TIP3    H233422   1.521   3.034  10.500  0.4784  0.5920 -0.7053
 4003TIP3   OH233423   4.986   4.334  14.551 -0.4681  0.2153  0.0828
 4003TIP3    H133424   4.977   4.388  14.630  0.3860  0.6879 -0.1404
 4003TIP3    H233425   5.073   4.354  14.518 -0.1174 -1.3597  0.0307
 4004TIP3   OH233426   5.207   4.687   3.936  0.2990  0.2886  0.5144
 4004TIP3    H133427   5.245   4.758   3.988 -0.5773  1.3915 -0.3225
 4004TIP3    H233428   5.135   4.728   3.889 -0.7797 -1.3636  0.6785
 4005TIP3   OH233429   2.175   3.241  17.074  0.0593  0.4868 -0.0741
 4005TIP3    H133430   2.108   3.240  17.006 -0.6018  0.8906  0.5657
 4005TIP3    H233431   2.256   3.219  17.028 -0.4517  0.3371 -0.9112
 4006TIP3   OH233432   0.251   4.673  11.226 -0.1292 -0.2133 -0.5070
 4006TIP3    H133433   0.251   4.750  11.169 -0.8028 -0.5559 -0.9710
 4006TIP3    H233434   0.171   4.680  11.277  0.6139  0.2492  0.6353
 4007TIP3   OH233435   5.557   2.682   5.591  0.2456  0.2913  0.1472
 4007TIP3    H133436   5.488   2.615   5.587 -0.0908  0.7249 -1.7506
 4007TIP3    H233437   5.511   2.764   5.574  1.3705  0.4606 -2.3255
 4008TIP3   OH233438   5.926   3.636  13.293 -0.3548  0.2744  0.4021
 4008TIP3    H133439   5.952   3.545  13.305 -1.5600 -0.0667  0.5332
 4008TIP3    H233440   5.842   3.630  13.247  0.7863  1.3760 -1.9136
 4009TIP3   OH233441   3.302   1.717   0.190 -0.0662  0.3271  0.0627
 4009TIP3    H133442   3.332   1.750   0.105 -0.5762 -0.7674 -0.5544
 4009TIP3    H233443   3.380   1.717   0.245 -0.1874  3.2212  0.3127
 4010TIP3   OH233444   1.119   0.161   3.749  0.6189  0.3799  0.0178
 4010TIP3    H133445   1.044   0.154   3.808  0.0502  3.7936 -0.1997
 4010TIP3    H233446   1.112   0.084   3.692 -1.9718 -0.0418  0.8610
 4011TIP3   OH233447   5.705   3.951  11.126 -0.0019  0.0758 -0.5098
 4011TIP3    H133448   5.727   3.921  11.214 -1.4688  2.3002  0.6390
 4011TIP3    H233449   5.693   3.870  11.076  1.5756 -1.2052  1.1285
 4012TIP3   OH233450   4.083   5.780  14.888 -0.2423 -0.6059  0.1902
 4012TIP3    H133451   4.052   5.797  14.799 -0.2324  1.0450  0.4980
 4012TIP3    H233452   4.057   5.690  14.905  0.5992 -1.2750 -1.8445
 4013TIP3   OH233453   0.824   1.409  11.032  0.1314  0.2352 -0.3499
 4013TIP3    H133454   0.886   1.357  10.981 -0.2671 -0.8796  0.2862
 4013TIP3    H233455   0.747   1.353  11.041  0.7673 -0.2274  2.7811
 4014TIP3   OH233456   4.360   3.514  16.744  0.2675  0.0386  0.2805
 4014TIP3    H133457   4.282   3.543  16.790 -0.6458 -0.5046 -0.8986
 4014TIP3    H233458   4.403   3.455  16.805 -0.2440  0.3460  0.9418
 4015TIP3   OH233459   3.401   0.534  14.038  0.0521  0.3849  0.5025
 4015TIP3    H133460   3.375   0.444  14.054 -1.1529  0.6115 -0.1226
 4015TIP3    H233461   3.351   0.585  14.102 -0.9444  0.8104 -0.6045
 4016TIP3   OH233462   3.374   1.974  14.511 -0.4093  0.1096  0.2029
 4016TIP3    H133463   3.337   2.053  14.550 -1.0804 -0.9814  1.8048
 4016TIP3    H233464   3.369   1.908  14.580  0.2441 -1.3122 -1.0792
 4017TIP3   OH233465   1.179   5.539   0.065  0.1982  0.0254  0.2103
 4017TIP3    H133466   1.177   5.609  -0.001 -0.8812  1.1963  1.4400
 4017TIP3    H233467   1.222   5.578   0.141  0.9530 -1.1357  0.3864
 4018TIP3   OH233468   5.408   1.767   1.328 -1.4707  0.3314 -0.4476
 4018TIP3    H133469   5.467   1.817   1.271 -0.5246  1.4462  1.4575
 4018TIP3    H233470   5.320   1.785   1.293 -0.7905 -0.3376 -2.5465
 4019TIP3   OH233471   4.748   1.697   3.200 -0.2022  0.4911  0.1502
 4019TIP3    H133472   4.783   1.663   3.117 -2.1893 -0.6624 -0.2804
 4019TIP3    H233473   4.770   1.630   3.264 -1.6532 -0.3283 -0.1565
 4020TIP3   OH233474   1.932   3.217   2.060 -0.2922  0.0841  0.3214
 4020TIP3    H133475   1.865   3.149   2.048 -0.2408 -0.0097  0.5678
 4020TIP3    H233476   1.984   3.187   2.134  0.6893 -0.3667 -0.5403
 4021TIP3   OH233477   3.850   1.149   4.490  0.8587  0.0319  0.1955
 4021TIP3    H133478   3.799   1.215   4.537  0.0751  0.0727 -0.6947
 4021TIP3    H233479   3.901   1.200   4.426 -2.9185 -0.4918 -3.4402
 4022TIP3   OH233480   1.909   3.215  12.105 -0.5454 -0.1853  0.0379
 4022TIP3    H133481   1.973   3.213  12.033  0.2912  1.4461  0.6954
 4022TIP3    H233482   1.924   3.300  12.147 -1.0003 -1.1462  2.1676
 4023TIP3   OH233483   4.415   6.038  11.943  0.1680 -0.0971 -0.0816
 4023TIP3    H133484   4.329   6.059  11.906  0.2921 -2.0546 -1.6040
 4023TIP3    H233485   4.410   6.067  12.034 -2.3447 -0.7421  0.0215
 4024TIP3   OH233486   2.084   1.170   5.857  0.6190  0.4379  0.4578
 4024TIP3    H133487   2.118   1.155   5.768  0.1296  0.0439  0.3354
 4024TIP3    H233488   2.004   1.119   5.860 -0.1089  1.5830  0.6590
 4025TIP3   OH233489   2.870   4.875  16.146 -0.0201  0.7676 -0.2634
 4025TIP3    H133490   2.832   4.813  16.209  1.7745 -0.0392  0.0501
 4025TIP3    H233491   2.855   4.961  16.184 -0.2566  0.3674  0.5468
 4026TIP3   OH233492   1.697   3.796  17.148  0.4171  0.5718 -0.2358
 4026TIP3    H133493   1.756   3.776  17.221 -0.0752 -0.6069 -0.1426
 4026TIP3    H233494   1.646   3.871  17.177  2.8138  2.4877 -0.8488
 4027TIP3   OH233495   3.912   6.564   5.699 -0.0201  0.6740 -0.0023
 4027TIP3    H133496   3.866   6.482   5.718 -0.8319  1.7950  3.1919
 4027TIP3    H233497   3.981   6.568   5.765  2.6301  0.6345 -2.6872
 4028TIP3   OH233498   4.564   0.624  11.235 -0.1134 -0.5782 -0.3629
 4028TIP3    H133499   4.561   0.529  11.239  0.7237 -0.5872  0.0919
 4028TIP3    H233500   4.585   0.644  11.143 -1.7457 -0.7831 -0.8053
 4029TIP3   OH233501   6.253   0.698   2.526  0.3890  0.9357 -0.3957
 4029TIP3    H133502   6.244   0.702   2.430  0.5051 -0.3900 -0.4687
 4029TIP3    H233503   6.274   0.607   2.544  1.5042  1.4129  0.8086
 4030TIP3   OH233504   1.414   4.060   6.047 -0.1062 -0.0362 -0.3150
 4030TIP3    H133505   1.400   4.039   5.955 -1.4906  0.5291 -0.2365
 4030TIP3    H233506   1.367   3.992   6.095  0.7780 -0.4456 -0.0176
 4031TIP3   OH233507   3.406   6.207  16.362  0.3131 -0.1430  0.2291
 4031TIP3    H133508   3.488   6.255  16.377 -0.2429  0.9159 -0.0959
 4031TIP3    H233509   3.395   6.154  16.441  0.1721  1.3957  1.2751
 4032TIP3   OH233510   3.203   4.600   0.184 -0.2914  0.1553  0.0175
 4032TIP3    H133511   3.181   4.547   0.260 -1.4811 -0.5024 -0.7645
 4032TIP3    H233512   3.161   4.684   0.199  1.6856  0.9635  1.3118
 4033TIP3   OH233513   4.180   0.183  11.450  0.5835  0.4723  0.0001
 4033TIP3    H133514   4.157   0.152  11.538  0.7543 -1.1822 -0.5061
 4033TIP3    H233515   4.161   0.108  11.393  1.5491  1.1353 -1.2199
 4034TIP3   OH233516   2.575   2.964   3.356  0.0915  0.3811  0.3461
 4034TIP3    H133517   2.523   2.891   3.388  0.0427  0.2916  0.0643
 4034TIP3    H233518   2.512   3.035   3.342  0.0678  0.3292  0.1777
 4035TIP3   OH233519   0.738   3.717   6.484 -0.4351 -0.2137 -0.4653
 4035TIP3    H133520   0.780   3.631   6.481 -1.3624 -0.6913 -0.0568
 4035TIP3    H233521   0.778   3.761   6.559  0.1319 -0.2294 -0.7526
 4036TIP3   OH233522   2.688   6.478   3.449 -0.2947  0.4466  0.7230
 4036TIP3    H133523   2.701   6.442   3.536 -2.4046  1.8335  1.6494
 4036TIP3    H233524   2.731   6.563   3.451  3.7574 -1.3912 -1.1335
 4037TIP3   OH233525   6.640   5.998   4.431 -0.0408 -0.3158  0.1405
 4037TIP3    H133526   6.557   5.970   4.393 -0.9118 -0.8685  2.4071
 4037TIP3    H233527   6.616   6.048   4.508  1.7404 -1.5979  1.5766
 4038TIP3   OH233528   1.696   3.550  13.578  0.2197 -0.5127  0.0461
 4038TIP3    H133529   1.641   3.490  13.628  0.8560 -1.8481 -0.8250
 4038TIP3    H233530   1.662   3.637  13.599 -1.3101 -1.2259  0.5982
 4039TIP3   OH233531   1.588   1.545   3.593  0.6914 -0.2589  0.0413
 4039TIP3    H133532   1.555   1.630   3.623 -1.4121 -0.5508 -1.3856
 4039TIP3    H233533   1.607   1.557   3.500  0.9190 -1.1938 -0.0421
 4040TIP3   OH233534   3.440   5.207   0.696 -0.2894 -0.3835 -0.3186
 4040TIP3    H133535   3.352   5.218   0.661 -0.5022  0.6448  0.5303
 4040TIP3    H233536   3.432   5.140   0.763 -0.2022 -1.1018 -1.0119
 4041TIP3   OH233537   6.156   2.761   0.331  0.1300  0.6605  0.5843
 4041TIP3    H133538   6.164   2.692   0.397 -1.0719  1.1569  1.2520
 4041TIP3    H233539   6.063   2.764   0.309  0.3996  1.0115 -0.5979
 4042TIP3   OH233540   0.529   5.278  12.495  0.3732  0.1860 -0.4941
 4042TIP3    H133541   0.552   5.353  12.440 -1.1073  1.1694  0.1798
 4042TIP3    H233542   0.558   5.202  12.445  3.3570  1.2436 -0.4776
 4043TIP3   OH233543   2.438   1.860  15.131 -0.5617  0.2614 -0.1893
 4043TIP3    H133544   2.361   1.831  15.180 -0.2728  0.6025  0.4563
 4043TIP3    H233545   2.408   1.937  15.082 -1.0743 -0.5647 -1.1925
 4044TIP3   OH233546   1.040   4.039   0.113 -0.4717 -0.2670 -0.4858
 4044TIP3    H133547   1.054   4.041   0.019 -1.0786 -1.9110 -0.6206
 4044TIP3    H233548   0.946   4.024   0.124 -0.3051 -0.7375  0.3697
 4045TIP3   OH233549   6.613   4.370   0.866  0.4240 -0.3612  0.1223
 4045TIP3    H133550   6.610   4.274   0.864  0.4231 -0.3854  1.2901
 4045TIP3    H233551   6.696   4.391   0.823  2.3079 -1.0416  3.2713
 4046TIP3   OH233552   3.099   4.287  15.424  1.1094  0.3150 -0.5192
 4046TIP3    H133553   3.080   4.248  15.509 -0.0341  1.1809 -0.3560
 4046TIP3    H233554   3.168   4.233  15.387  2.0162  0.2682  1.1981
 4047TIP3   OH233555   5.300   3.643   1.285 -0.3538 -0.3105 -0.1830
 4047TIP3    H133556   5.269   3.600   1.365 -2.2338  0.2973 -0.5630
 4047TIP3    H233557   5.316   3.571   1.224  1.2641 -0.7920  0.7683
 4048TIP3   OH233558   4.560   3.009   4.373 -0.0050 -0.1273 -0.4169
 4048TIP3    H133559   4.538   3.025   4.464  2.5237  2.4861 -0.1841
 4048TIP3    H233560   4.480   2.975   4.334 -1.4338 -0.2294  2.5044
 4049TIP3   OH233561   1.926   4.538  11.702 -0.3330  0.1739 -0.5550
 4049TIP3    H133562   1.998   4.499  11.752 -0.6772  0.7014  0.3716
 4049TIP3    H233563   1.948   4.522  11.611  1.3130  0.9205 -0.3037
 4050TIP3   OH233564   0.814   6.328   5.647 -0.6963  0.1377  0.1720
 4050TIP3    H133565   0.828   6.356   5.737 -0.4288 -0.5468  0.3475
 4050TIP3    H233566   0.719   6.333   5.634 -0.6553  1.0340  0.2266
 4051TIP3   OH233567   1.386   4.060   1.351 -0.3588  0.5293  0.1299
 4051TIP3    H133568   1.471   4.045   1.393 -0.7940 -2.3284  0.1096
 4051TIP3    H233569   1.395   4.145   1.307  2.4049  0.3545  0.2892
 4052TIP3   OH233570   5.933   2.809   1.367 -0.2577  0.0479 -0.5511
 4052TIP3    H133571   5.838   2.800   1.374 -0.5235  0.1476 -3.4233
 4052TIP3    H233572   5.949   2.903   1.368 -0.4190  0.1153 -2.0200
 4053TIP3   OH233573   2.966   4.213   1.790 -0.0235  0.3600 -0.2320
 4053TIP3    H133574   3.030   4.145   1.770 -0.8515 -0.7940  0.9259
 4053TIP3    H233575   3.003   4.293   1.753  0.7258 -0.8100 -2.0448
 4054TIP3   OH233576   2.142   0.977   0.822  0.5046 -0.1052 -0.5120
 4054TIP3    H133577   2.206   0.906   0.832  1.0768  0.4555 -0.1673
 4054TIP3    H233578   2.139   0.993   0.728 -0.5049 -1.3925 -0.7030
 4055TIP3   OH233579   4.437   0.756  11.734 -0.0894 -0.1682  0.5570
 4055TIP3    H133580   4.513   0.703  11.756  0.0503 -1.0654 -1.9048
 4055TIP3    H233581   4.473   0.843  11.714  0.3614 -0.6987 -0.9967
 4056TIP3   OH233582   5.286   2.255   3.050  0.1196 -0.0531 -0.0598
 4056TIP3    H133583   5.223   2.186   3.028 -0.2822  0.6543 -1.2162
 4056TIP3    H233584   5.314   2.289   2.965 -0.5806  2.0088  0.5103
 4057TIP3   OH233585   5.082   0.834   0.356 -0.0110 -0.0051 -0.4438
 4057TIP3    H133586   5.144   0.807   0.425  0.6670  0.6762 -0.7884
 4057TIP3    H233587   4.998   0.838   0.401  0.7593  2.4499  0.8561
 4058TIP3   OH233588   6.220   4.853   5.698 -0.2251  0.1772 -0.4999
 4058TIP3    H133589   6.245   4.934   5.653  0.4083 -0.4376 -1.2665
 4058TIP3    H233590   6.257   4.784   5.644  0.6736 -0.5782  1.0494
 4059TIP3   OH233591   6.715   2.356  16.252 -0.1062  0.3891 -0.2532
 4059TIP3    H133592   6.734   2.273  16.207  0.0846 -1.5005  3.1247
 4059TIP3    H233593   6.621   2.353  16.269  0.1417  0.1419  1.1688
 4060TIP3   OH233594   0.521   0.438  11.217 -0.1991  0.1959 -0.1295
 4060TIP3    H133595   0.616   0.429  11.227 -0.0261 -0.0245 -1.8427
 4060TIP3    H233596   0.510   0.508  11.153 -1.1984 -0.0724 -0.2590
 4061TIP3   OH233597   6.636   5.777  12.697  0.8302  0.4675 -0.2293
 4061TIP3    H133598   6.652   5.830  12.775  2.0224  0.2192 -0.2879
 4061TIP3    H233599   6.668   5.831  12.625  1.6002 -0.1140 -0.3349
 4062TIP3   OH233600   5.430   1.993   1.012  0.6406 -0.5762 -0.1891
 4062TIP3    H133601   5.370   2.049   0.963 -0.4099 -0.1429  1.5913
 4062TIP3    H233602   5.473   1.940   0.944 -0.0976  0.6808 -1.6682
 4063TIP3   OH233603   2.538   5.672   6.193  0.1241  0.4200  0.1334
 4063TIP3    H133604   2.474   5.702   6.257  0.7870  1.6766  0.2111
 4063TIP3    H233605   2.607   5.738   6.195  0.5307  0.0513 -1.3037
 4064TIP3   OH233606   0.953   0.582   3.553 -0.0009  0.3055 -0.4971
 4064TIP3    H133607   0.992   0.541   3.475 -0.1176 -0.1281 -0.3313
 4064TIP3    H233608   1.007   0.552   3.625  0.1750  0.8023 -0.4241
 4065TIP3   OH233609   6.757   2.182  13.591 -0.5292 -0.3893  0.1263
 4065TIP3    H133610   6.688   2.180  13.525 -2.4547  0.3749  2.0864
 4065TIP3    H233611   6.784   2.274  13.594  0.5692 -0.6746 -0.5918
 4066TIP3   OH233612   5.530   5.578  16.385 -0.0581 -0.0505  0.7208
 4066TIP3    H133613   5.583   5.643  16.339 -1.7398  1.1062  0.4003
 4066TIP3    H233614   5.440   5.602  16.366 -0.7288 -1.3738  2.1346
 4067TIP3   OH233615   1.126   2.905   1.521 -0.2650  0.2608 -0.0494
 4067TIP3    H133616   1.050   2.935   1.471 -1.7595 -3.0196  0.1501
 4067TIP3    H233617   1.089   2.848   1.588  2.3486 -0.9736  0.3932
 4068TIP3   OH233618   6.548   2.463  15.677 -0.4110  0.2469 -0.4904
 4068TIP3    H133619   6.538   2.403  15.751 -1.9678 -0.3308 -1.1358
 4068TIP3    H233620   6.611   2.528  15.707 -0.9246 -0.0405  1.3066
 4069TIP3   OH233621   2.016   1.116  13.882 -0.0300  0.3436 -0.6634
 4069TIP3    H133622   2.085   1.050  13.876  0.3787  0.7322 -0.2701
 4069TIP3    H233623   2.042   1.184  13.819 -0.4547  0.1269 -1.0746
 4070TIP3   OH233624   6.704   5.393   5.220 -0.1104  0.2937  0.7923
 4070TIP3    H133625   6.683   5.300   5.229  0.7884 -0.0396 -0.5385
 4070TIP3    H233626   6.618   5.436   5.219 -0.5471 -0.5495  0.9803
 4071TIP3   OH233627   3.382   1.682   1.510  0.0022 -0.2071 -0.1133
 4071TIP3    H133628   3.342   1.686   1.597  0.1610 -0.2076 -0.0403
 4071TIP3    H233629   3.450   1.615   1.517 -0.4939 -0.7522 -0.4494
 4072TIP3   OH233630   4.375   0.769  12.749  0.0297  0.4238  0.2610
 4072TIP3    H133631   4.309   0.706  12.779 -1.4949  0.2947 -3.1818
 4072TIP3    H233632   4.436   0.716  12.697  0.8605  1.1643  0.4717
 4073TIP3   OH233633   1.354   0.156  16.289  0.1748 -0.1005  0.0675
 4073TIP3    H133634   1.377   0.095  16.359  1.2288  0.5487  0.2968
 4073TIP3    H233635   1.399   0.122  16.212 -0.7787 -0.6722 -0.2408
 4074TIP3   OH233636   2.171   2.954   1.184  0.3382 -0.6240  0.1204
 4074TIP3    H133637   2.115   3.022   1.147  0.2703  0.0797  1.4911
 4074TIP3    H233638   2.237   2.939   1.116  0.4569  0.9304 -0.1280
 4075TIP3   OH233639   5.774   0.247   5.221  0.6035 -0.1256  0.4094
 4075TIP3    H133640   5.862   0.256   5.185  0.5240 -2.6056 -0.4692
 4075TIP3    H233641   5.716   0.254   5.145  0.1773 -0.9313  0.6623
 4076TIP3   OH233642   6.075   0.435   5.905  0.0529  0.1978  0.2014
 4076TIP3    H133643   6.007   0.377   5.940 -1.0747  0.9993 -0.5845
 4076TIP3    H233644   6.118   0.471   5.982 -1.3321  0.7192  0.7490
 4077TIP3   OH233645   5.322   0.920   0.959  0.4733  0.3254 -0.3383
 4077TIP3    H133646   5.332   0.950   1.050  0.1301 -1.0666  0.1789
 4077TIP3    H233647   5.230   0.895   0.953  0.3473  1.0121 -1.2634
 4078TIP3   OH233648   1.582   0.379  15.380  0.5224 -0.2303  0.7344
 4078TIP3    H133649   1.613   0.293  15.410  0.2240 -1.6128 -2.6741
 4078TIP3    H233650   1.658   0.417  15.336  0.1344  0.4979  0.6930
 4079TIP3   OH233651   6.451   0.531  11.746  0.6361 -0.0196  0.1727
 4079TIP3    H133652   6.452   0.475  11.823  1.0123 -0.5146 -0.1898
 4079TIP3    H233653   6.532   0.582  11.753  2.3583 -2.3899 -1.5822
 4080TIP3   OH233654   1.789   1.753   6.531  0.4528  0.5389  0.2738
 4080TIP3    H133655   1.801   1.712   6.616  1.2904  0.7515  0.2650
 4080TIP3    H233656   1.861   1.816   6.524  0.7860  0.0561 -0.8679
 4081TIP3   OH233657   3.796   2.395   5.339 -0.1144  0.8472  0.1338
 4081TIP3    H133658   3.824   2.434   5.421 -0.8540  2.1977 -0.2392
 4081TIP3    H233659   3.836   2.450   5.271 -2.2446  1.7614 -0.3991
 4082TIP3   OH233660   1.882   1.559  16.354 -0.5438 -0.8424 -0.3999
 4082TIP3    H133661   1.863   1.553  16.260 -2.1712 -0.2894 -0.1282
 4082TIP3    H233662   1.900   1.651  16.369  2.2518 -1.3252 -0.6058
 4083TIP3   OH233663   6.282   3.809  14.846 -0.2540  0.0479  0.2345
 4083TIP3    H133664   6.270   3.742  14.778  0.7583 -0.2903  0.3745
 4083TIP3    H233665   6.197   3.815  14.889 -0.6773 -0.3133 -0.5444
 4084TIP3   OH233666   0.469   5.273  14.056 -0.3071  0.3919 -0.0684
 4084TIP3    H133667   0.486   5.226  14.138  1.0354  1.9879  0.6222
 4084TIP3    H233668   0.556   5.289  14.020 -0.8034  1.1820 -0.9403
 4085TIP3   OH233669   2.148   5.420  14.457  0.2729 -0.7183  0.0614
 4085TIP3    H133670   2.085   5.491  14.451  1.6647  0.5989  0.7475
 4085TIP3    H233671   2.169   5.398  14.366  0.6457  0.4849 -0.1478
 4086TIP3   OH233672   0.016   1.844   0.476 -0.5445 -0.0154 -0.1780
 4086TIP3    H133673   0.077   1.909   0.511 -1.4010 -0.2207  1.7792
 4086TIP3    H233674   0.046   1.827   0.387  2.1544 -0.0227  0.7113
 4087TIP3   OH233675   6.054   6.413   3.779 -0.2741  0.4014  0.1351
 4087TIP3    H133676   6.044   6.370   3.864 -0.0111 -0.1673 -0.1214
 4087TIP3    H233677   6.109   6.353   3.729  2.1834  2.1678  0.6244
 4088TIP3   OH233678   0.209   5.233   5.856 -0.5236  0.1539 -0.3932
 4088TIP3    H133679   0.287   5.268   5.899 -0.2396 -0.0221 -0.7676
 4088TIP3    H233680   0.187   5.297   5.789 -0.2793 -0.1568 -0.7661
 4089TIP3   OH233681   1.404   2.609  13.526  0.3930 -0.3241  0.2375
 4089TIP3    H133682   1.316   2.588  13.558 -0.1466 -0.2310 -1.1566
 4089TIP3    H233683   1.411   2.704  13.535 -0.9784  0.1288 -2.8732
 4090TIP3   OH233684   2.053   4.859   5.712  0.2707  0.6413 -0.7285
 4090TIP3    H133685   1.995   4.876   5.786 -0.4490  1.0100 -1.3707
 4090TIP3    H233686   2.031   4.927   5.648  0.1697 -0.2936 -1.7030
 4091TIP3   OH233687   2.262   5.988   2.035  0.6681 -0.1136 -0.2754
 4091TIP3    H133688   2.337   5.970   2.092  0.6707  1.7393  0.3555
 4091TIP3    H233689   2.294   6.058   1.977 -0.3490  0.2093 -0.4445
 4092TIP3   OH233690   3.183   5.699  11.893 -0.1535  0.2364 -0.5314
 4092TIP3    H133691   3.234   5.697  11.974 -1.3891  0.4944  0.2651
 4092TIP3    H233692   3.235   5.649  11.831 -0.0508 -1.5425  0.9419
 4093TIP3   OH233693   0.972   0.035   2.049 -0.0043  0.2074  0.0621
 4093TIP3    H133694   1.009  -0.053   2.053 -2.2503 -0.7012  2.1289
 4093TIP3    H233695   0.903   0.029   1.982  0.7350  0.7510 -0.7486
 4094TIP3   OH233696   2.400   4.843  14.854 -0.2001 -0.8244  0.3419
 4094TIP3    H133697   2.431   4.820  14.766  0.1723 -0.3600  0.3484
 4094TIP3    H233698   2.321   4.791  14.866 -0.7516 -0.2339 -0.6170
 4095TIP3   OH233699   4.219   3.701   2.219 -0.1779  0.2470  0.3786
 4095TIP3    H133700   4.238   3.754   2.141  2.3274 -1.4573 -0.2302
 4095TIP3    H233701   4.304   3.692   2.263 -0.5458 -3.0303  0.5551
 4096TIP3   OH233702   4.429   4.040  13.889  0.4548  0.4176  0.5287
 4096TIP3    H133703   4.522   4.037  13.908  0.6946  2.2894 -0.2169
 4096TIP3    H233704   4.424   4.066  13.797 -0.7667 -3.2339 -0.5245
 4097TIP3   OH233705   6.543   3.409   2.409  0.5020 -0.0131 -0.1717
 4097TIP3    H133706   6.467   3.359   2.379  0.4380  0.6192 -1.0978
 4097TIP3    H233707   6.514   3.500   2.407  0.8740  0.1255  0.7227
 4098TIP3   OH233708   1.882   6.454   0.801  0.3172 -0.4408  0.4738
 4098TIP3    H133709   1.926   6.521   0.749  0.9044 -0.9699  0.2720
 4098TIP3    H233710   1.794   6.448   0.765  0.7501 -0.8704 -0.5314
 4099TIP3   OH233711   0.330   5.949   1.160 -0.2287 -0.2246  0.5000
 4099TIP3    H133712   0.314   6.026   1.215  0.8200  1.1807 -1.1044
 4099TIP3    H233713   0.425   5.948   1.147 -0.4687 -0.3560 -1.4659
 4100TIP3   OH233714   1.933   1.959   0.060 -0.1869 -0.3104 -0.0266
 4100TIP3    H133715   1.848   1.957   0.016 -0.6341  1.4789  0.7174
 4100TIP3    H233716   1.988   1.898   0.010 -1.4922 -0.3913 -1.3703
 4101TIP3   OH233717   2.666   0.369   5.047 -0.5624  0.8643  0.3416
 4101TIP3    H133718   2.685   0.384   4.955  0.4090  0.7161  0.5072
 4101TIP3    H233719   2.587   0.420   5.064 -0.9939  0.5368 -0.6734
 4102TIP3   OH233720   3.128   5.811   2.905  0.0603  0.3023 -0.0743
 4102TIP3    H133721   3.213   5.846   2.932 -0.3167  1.1875 -0.0029
 4102TIP3    H233722   3.065   5.861   2.956 -0.4748 -0.8609  0.4022
 4103TIP3   OH233723   1.963   1.300   6.162 -0.7460 -0.2538 -0.2511
 4103TIP3    H133724   1.878   1.300   6.206 -1.5912  2.0267 -1.8268
 4103TIP3    H233725   2.008   1.378   6.195  0.2914 -0.8322 -0.2666
 4104TIP3   OH233726   4.535   4.803   0.144  0.3884  0.0393  0.1299
 4104TIP3    H133727   4.454   4.786   0.192 -0.2052 -0.5379 -1.0624
 4104TIP3    H233728   4.594   4.732   0.168  0.8108  0.8390  1.5471
 4105TIP3   OH233729   6.710   2.077  16.126  0.3410 -0.1322 -0.0585
 4105TIP3    H133730   6.755   1.994  16.145 -0.8117 -0.9972 -1.0058
 4105TIP3    H233731   6.760   2.115  16.053 -0.6690 -1.2998 -1.3971
 4106TIP3   OH233732   1.299   1.305   2.877 -0.4150  0.6212 -0.1788
 4106TIP3    H133733   1.283   1.225   2.827 -1.0134  2.0939 -2.4086
 4106TIP3    H233734   1.360   1.278   2.947 -1.7601 -2.0633  0.0146
 4107TIP3   OH233735   4.650   1.383   5.401 -0.1139  0.1595 -0.4823
 4107TIP3    H133736   4.648   1.373   5.496  1.7635  0.5204 -0.3963
 4107TIP3    H233737   4.720   1.325   5.371  0.4608  1.3209 -1.4589
 4108TIP3   OH233738   2.761   0.040   4.509  0.2275 -0.3161 -0.4503
 4108TIP3    H133739   2.727  -0.047   4.525  0.6776 -0.1684  1.3769
 4108TIP3    H233740   2.790   0.038   4.418  1.0523 -2.3480 -0.1680
 4109TIP3   OH233741   2.438   5.926  15.735 -0.0368  0.3165  0.3558
 4109TIP3    H133742   2.352   5.967  15.742 -0.7962 -1.3027  0.8558
 4109TIP3    H233743   2.479   5.943  15.820 -0.8635 -1.0342  1.0497
 4110TIP3   OH233744   3.937   1.899  12.722 -0.0352  0.4841 -0.0128
 4110TIP3    H133745   3.889   1.823  12.757  0.4988  0.8637  1.5862
 4110TIP3    H233746   3.963   1.872  12.634 -1.0202 -0.6749  0.0271
 4111TIP3   OH233747   5.527   6.372  12.812 -0.0635 -0.0038 -0.0361
 4111TIP3    H133748   5.491   6.399  12.728 -2.4104 -1.4684  0.4601
 4111TIP3    H233749   5.529   6.452  12.865 -1.3129  0.3705 -0.5440
 4112TIP3   OH233750   2.949   2.147  11.967  0.0228  0.3983 -0.4737
 4112TIP3    H133751   2.867   2.132  11.920 -0.8392  1.0538  0.8019
 4112TIP3    H233752   2.967   2.064  12.010 -0.2011  0.3953 -0.3868
 4113TIP3   OH233753   4.338   4.882  14.863  0.4061 -0.4733 -0.3710
 4113TIP3    H133754   4.383   4.966  14.860 -1.1672  0.4588  0.8081
 4113TIP3    H233755   4.385   4.826  14.801  2.1945  0.9106 -0.2952
 4114TIP3   OH233756   4.231   3.132   5.879 -0.5117 -0.0718  0.0245
 4114TIP3    H133757   4.234   3.224   5.852 -1.0029  0.2556  1.0373
 4114TIP3    H233758   4.144   3.102   5.854 -0.9828  0.2433  1.2318
 4115TIP3   OH233759   1.832   2.742  12.513 -0.1415  0.2078 -0.1426
 4115TIP3    H133760   1.782   2.694  12.447  0.9451  0.3456 -1.0771
 4115TIP3    H233761   1.909   2.688  12.529 -0.8646 -0.2960  1.7323
 4116TIP3   OH233762   1.761   6.740  16.034  0.6038  0.0664 -0.1469
 4116TIP3    H133763   1.823   6.771  15.968 -1.1750 -0.8006 -2.2800
 4116TIP3    H233764   1.681   6.789  16.016 -0.0419 -0.5447  1.0573
 4117TIP3   OH233765   6.089   5.984   6.207  0.3139  0.8451  0.0022
 4117TIP3    H133766   6.136   5.921   6.262 -0.1990  1.3668  1.0487
 4117TIP3    H233767   6.159   6.034   6.164  0.7284  1.1617  1.0264
 4118TIP3   OH233768   0.702   5.994  15.018 -0.4014 -0.2653 -0.6724
 4118TIP3    H133769   0.684   6.036  14.934  0.5760  1.3307 -0.1130
 4118TIP3    H233770   0.731   5.906  14.995 -3.1478 -0.9035 -1.8459
 4119TIP3   OH233771   5.185   5.265  15.293 -0.1928 -0.0655  0.1397
 4119TIP3    H133772   5.216   5.270  15.383 -0.5645 -1.2102  0.3288
 4119TIP3    H233773   5.127   5.341  15.284 -0.8892 -0.4792  1.1370
 4120TIP3   OH233774   1.661   5.923   1.026  0.1905  0.1984 -0.0134
 4120TIP3    H133775   1.608   5.989   0.981 -0.7573 -0.1961  0.5292
 4120TIP3    H233776   1.724   5.974   1.077 -0.6940  0.6838  0.5932
 4121TIP3   OH233777   1.529   4.286  11.496  1.1341  0.2165 -0.5243
 4121TIP3    H133778   1.555   4.378  11.505  0.7708  0.3367 -0.6996
 4121TIP3    H233779   1.473   4.284  11.419 -0.0380  0.1064  0.3108
 4122TIP3   OH233780   6.188   4.356   5.392  0.2610 -0.1499  0.0307
 4122TIP3    H133781   6.170   4.311   5.475 -0.6697 -1.6534 -0.9632
 4122TIP3    H233782   6.266   4.313   5.358  0.7691  0.6140  0.2129
 4123TIP3   OH233783   5.521   4.576  11.956  0.0804 -0.4683  0.8723
 4123TIP3    H133784   5.533   4.491  11.913 -1.2604 -0.1248 -0.2426
 4123TIP3    H233785   5.460   4.622  11.899  0.2949  1.0019  1.8201
 4124TIP3   OH233786   1.680   4.292   3.061  0.5219  0.0950  0.2418
 4124TIP3    H133787   1.628   4.227   3.109  0.9401 -0.8121 -0.5212
 4124TIP3    H233788   1.657   4.375   3.103 -2.2989 -0.1439 -0.6895
 4125TIP3   OH233789   2.690   4.048   5.191  0.0293 -0.1789 -0.0761
 4125TIP3    H133790   2.772   4.002   5.210  0.0070 -0.1373  0.1219
 4125TIP3    H233791   2.708   4.139   5.214 -0.5482 -0.4248  1.4103
 4126TIP3   OH233792   1.391   5.164   3.290 -0.2382  0.4320  0.1120
 4126TIP3    H133793   1.436   5.086   3.325 -1.0024 -0.6452 -1.2809
 4126TIP3    H233794   1.463   5.223   3.266  0.3345  0.5848  2.0652
 4127TIP3   OH233795   1.225   3.733   3.597 -0.2474 -0.1976  0.0130
 4127TIP3    H133796   1.208   3.826   3.580  0.4877 -0.1769 -0.6149
 4127TIP3    H233797   1.263   3.732   3.685 -0.4482  0.0767  0.1041
 4128TIP3   OH233798   6.553   6.581   1.981  0.2028 -0.1274  0.7121
 4128TIP3    H133799   6.476   6.555   1.931 -1.2750  1.5401  2.0436
 4128TIP3    H233800   6.600   6.641   1.924 -1.4808  1.7799  1.2729
 4129TIP3   OH233801   1.162   4.605   3.139 -0.2981 -0.4652  0.0076
 4129TIP3    H133802   1.084   4.660   3.133  0.7048  0.8764 -1.1630
 4129TIP3    H233803   1.206   4.634   3.219  0.5384  0.8781 -0.9229
 4130TIP3   OH233804   3.419   6.477  13.297 -0.6348  0.2703  0.4964
 4130TIP3    H133805   3.448   6.555  13.345 -0.4184 -0.2652  1.2304
 4130TIP3    H233806   3.391   6.415  13.364  0.0718 -0.6409 -0.0310
 4131TIP3   OH233807   1.375   2.662   4.110 -0.3818 -0.5955  0.0024
 4131TIP3    H133808   1.391   2.579   4.154 -1.0592 -0.3669  0.7109
 4131TIP3    H233809   1.437   2.723   4.150 -1.1519 -0.3350  0.8200
 4132TIP3   OH233810   3.826   1.155   6.223 -0.5081 -0.2511 -0.2149
 4132TIP3    H133811   3.857   1.193   6.305 -1.8710  1.6849 -0.5479
 4132TIP3    H233812   3.902   1.113   6.185  0.5620  0.3735  1.1993
 4133TIP3   OH233813   2.023   4.925   2.012  0.0643  0.7468 -0.3339
 4133TIP3    H133814   2.079   4.987   1.965 -0.3756  1.6257  0.2880
 4133TIP3    H233815   1.936   4.966   2.011 -0.8576 -1.1158 -2.2976
 4134TIP3   OH233816   2.474   6.000  11.754  0.6083  0.0048  0.2203
 4134TIP3    H133817   2.536   5.965  11.817 -0.0197  0.2280  0.9725
 4134TIP3    H233818   2.388   5.982  11.792  0.1762 -1.0200 -1.1875
 4135TIP3   OH233819   4.718   3.524   3.535  0.3485 -0.1783 -0.3292
 4135TIP3    H133820   4.645   3.475   3.572 -1.1828  2.7325  0.6266
 4135TIP3    H233821   4.775   3.541   3.610 -0.2712  1.4516 -0.2228
 4136TIP3   OH233822   5.897   2.411  13.255  0.1630 -0.9666 -0.0611
 4136TIP3    H133823   5.968   2.394  13.193  0.7752 -1.0215  0.6463
 4136TIP3    H233824   5.836   2.466  13.207  0.7711 -0.7766 -0.6261
 4137TIP3   OH233825   3.303   1.778  11.690  0.8123  0.1167 -0.0953
 4137TIP3    H133826   3.227   1.818  11.648  0.4574 -0.7027 -0.2414
 4137TIP3    H233827   3.349   1.852  11.731 -0.9245  0.4399  1.3618
 4138TIP3   OH233828   1.878   5.189   0.641  0.2982  0.4230 -0.2276
 4138TIP3    H133829   1.962   5.186   0.686  1.0119  2.7281 -1.3339
 4138TIP3    H233830   1.827   5.255   0.688 -1.1405 -1.3604  0.7910
 4139TIP3   OH233831   1.952   2.852  11.632  0.1680 -0.2066 -0.1607
 4139TIP3    H133832   2.046   2.833  11.633  0.1147 -0.4731  1.3738
 4139TIP3    H233833   1.942   2.918  11.564  1.3689 -0.6743 -0.8069
 4140TIP3   OH233834   1.332   2.333  15.337 -0.0528 -0.6702  0.6078
 4140TIP3    H133835   1.365   2.246  15.315 -0.8024 -1.0339  0.9116
 4140TIP3    H233836   1.376   2.355  15.420 -0.5680 -1.1539  1.0114
 4141TIP3   OH233837   3.586   5.284  12.850 -0.0107 -0.1932  0.1154
 4141TIP3    H133838   3.572   5.280  12.756 -0.5286 -0.1663  0.1881
 4141TIP3    H233839   3.508   5.328  12.884 -0.3244 -1.1613  0.6731
 4142TIP3   OH233840   2.468   5.470  17.029  0.3593  0.0633 -0.0994
 4142TIP3    H133841   2.515   5.387  17.041 -0.5547 -0.5340 -0.5808
 4142TIP3    H233842   2.463   5.508  17.117  0.7958 -0.3925  0.1214
 4143TIP3   OH233843   5.042   1.900  15.618  0.0705  0.1161 -0.2687
 4143TIP3    H133844   4.968   1.931  15.567 -1.9575 -1.4524  1.6157
 4143TIP3    H233845   5.086   1.979  15.648  0.8451  1.0562 -3.6947
 4144TIP3   OH233846   2.129   1.910   4.550 -0.3289 -0.4285 -0.2746
 4144TIP3    H133847   2.104   1.833   4.498  0.0271  0.8408 -2.3822
 4144TIP3    H233848   2.203   1.880   4.603 -0.3373 -1.5951 -0.9062
 4145TIP3   OH233849   5.772   4.325  13.356 -0.0526  0.0886  0.6758
 4145TIP3    H133850   5.860   4.323  13.319  0.7127 -2.1064  2.4669
 4145TIP3    H233851   5.723   4.261  13.304  0.0783 -0.4456  1.2033
 4146TIP3   OH233852   1.404   4.716   3.641  0.4797 -0.4290 -0.0136
 4146TIP3    H133853   1.326   4.714   3.697 -1.3650  0.9364 -2.3843
 4146TIP3    H233854   1.408   4.807   3.611  3.0580 -0.4800  0.1135
 4147TIP3   OH233855   2.198   4.281  14.006  0.3553  0.0180 -0.2351
 4147TIP3    H133856   2.153   4.308  13.927 -0.9106 -0.6458  0.2424
 4147TIP3    H233857   2.138   4.302  14.077  1.4386  0.5268  0.5458
 4148TIP3   OH233858   1.194   1.254  11.950  0.2485  0.4168  0.0713
 4148TIP3    H133859   1.209   1.259  12.044  1.2684 -0.8935 -0.0047
 4148TIP3    H233860   1.270   1.296  11.911 -0.4735  1.5167 -0.1643
 4149TIP3   OH233861   1.862   4.952   3.211 -0.1210 -0.0408 -0.3956
 4149TIP3    H133862   1.819   5.018   3.156 -2.6766 -0.6046  0.8557
 4149TIP3    H233863   1.868   4.993   3.297 -1.3395 -1.2718  0.2841
 4150TIP3   OH233864   5.930   3.013   3.242 -0.0253 -0.5377  0.2176
 4150TIP3    H133865   5.972   3.030   3.327  0.2050  1.9324 -0.3537
 4150TIP3    H233866   5.992   2.955   3.197  1.3292  0.5664  0.5910
 4151TIP3   OH233867   4.364   6.553   1.483  0.0934  0.0363 -0.3778
 4151TIP3    H133868   4.332   6.550   1.573 -0.5681  0.0025 -0.6082
 4151TIP3    H233869   4.367   6.646   1.462 -0.9994 -0.0007 -0.7477
 4152TIP3   OH233870   2.350   1.243  15.330 -0.0713  0.1413  0.5034
 4152TIP3    H133871   2.328   1.234  15.237 -0.6779  1.5658  0.4980
 4152TIP3    H233872   2.384   1.332  15.338 -0.7034  0.2744  1.7795
 4153TIP3   OH233873   4.345   1.737  14.945 -0.1813  0.2928 -0.4390
 4153TIP3    H133874   4.369   1.774  14.861  0.0787  0.8280 -0.1289
 4153TIP3    H233875   4.341   1.642  14.929 -0.9432  0.4553 -1.2503
 4154TIP3   OH233876   4.381   0.661  16.593 -1.1229 -0.0910  0.1632
 4154TIP3    H133877   4.427   0.678  16.511 -0.0532  0.7547  0.9274
 4154TIP3    H233878   4.364   0.567  16.592  0.3538 -0.3592 -0.2760
 4155TIP3   OH233879   4.411   0.883  10.988  0.8795  0.0973 -0.4022
 4155TIP3    H133880   4.443   0.926  10.908  0.6146  0.4916 -0.2951
 4155TIP3    H233881   4.416   0.951  11.055  0.5062 -0.0528 -0.2234
 4156TIP3   OH233882   2.427   1.165  11.282  0.0795  0.2354  0.7431
 4156TIP3    H133883   2.371   1.241  11.269 -1.5729 -1.1271 -0.3128
 4156TIP3    H233884   2.474   1.154  11.199  1.4648  0.9846  1.4048
 4157TIP3   OH233885   0.211   0.579  16.403  0.4902 -0.0268 -0.2925
 4157TIP3    H133886   0.269   0.642  16.362  0.3262  0.4571  0.2150
 4157TIP3    H233887   0.126   0.590  16.359  1.1629 -1.8147 -2.1243
 4158TIP3   OH233888   6.611   3.685  12.606  0.2604 -0.4301 -0.0557
 4158TIP3    H133889   6.545   3.755  12.607 -0.8395 -1.4496 -0.5366
 4158TIP3    H233890   6.561   3.605  12.589  1.5820 -1.2644 -0.0620
 4159TIP3   OH233891   2.297   2.996  13.605  0.6517 -0.3176 -0.5758
 4159TIP3    H133892   2.294   2.938  13.530  2.4271 -3.0392  1.3385
 4159TIP3    H233893   2.378   3.047  13.593 -0.0856  0.6513 -1.4683
 4160TIP3   OH233894   6.267   2.835   2.166 -0.1841 -0.2831  0.8887
 4160TIP3    H133895   6.223   2.809   2.247 -0.9192 -0.3395  0.4791
 4160TIP3    H233896   6.214   2.907   2.132 -0.2098 -0.6301  0.1703
 4161TIP3   OH233897   1.573   3.113  14.322 -0.2154 -0.7564 -0.3199
 4161TIP3    H133898   1.529   3.195  14.343 -0.8073 -1.0770 -0.2878
 4161TIP3    H233899   1.665   3.128  14.343 -0.2861 -0.0318 -0.5180
 4162TIP3   OH233900   6.456   2.050  16.005 -0.2165  0.5177  0.2534
 4162TIP3    H133901   6.517   2.081  16.071 -0.0843  0.2517  0.2556
 4162TIP3    H233902   6.377   2.028  16.053  0.0493 -0.1506  0.3906
 4163TIP3   OH233903   4.142   3.540  13.601 -0.2899 -0.0834  0.6554
 4163TIP3    H133904   4.062   3.588  13.624  1.0597  1.8827  1.4178
 4163TIP3    H233905   4.156   3.482  13.676 -1.7893 -1.5400 -0.1515
 4164TIP3   OH233906   4.624   4.672   4.152 -0.0224  0.0365  0.3685
 4164TIP3    H133907   4.683   4.731   4.199 -0.0499  1.3512 -1.2164
 4164TIP3    H233908   4.591   4.724   4.079 -0.3767 -1.8179 -0.8251
 4165TIP3   OH233909   0.575   2.859  15.754 -0.0579  0.2519  0.3361
 4165TIP3    H133910   0.488   2.868  15.794  0.4526  1.6718  1.1623
 4165TIP3    H233911   0.558   2.864  15.660 -0.9053  0.2189  0.4824
 4166TIP3   OH233912   4.384   2.902   5.282  0.3370  0.6414  0.1660
 4166TIP3    H133913   4.435   2.824   5.260  1.5243  2.1355 -2.6390
 4166TIP3    H233914   4.308   2.899   5.223  0.1915  1.4025  0.3007
 4167TIP3   OH233915   2.091   6.254   1.282  0.4703  0.4899  0.2252
 4167TIP3    H133916   2.122   6.169   1.248 -1.4172  0.1283 -0.6323
 4167TIP3    H233917   2.156   6.277   1.348  1.0152 -1.6376  0.4875
 4168TIP3   OH233918   4.056   6.641   1.677  0.0277  0.1212 -0.0863
 4168TIP3    H133919   4.140   6.608   1.708  0.1726  1.7326  1.2953
 4168TIP3    H233920   4.079   6.711   1.616 -0.3345  0.5065  0.2254
 4169TIP3   OH233921   3.012   3.753   1.152 -0.4273 -0.1184 -0.3078
 4169TIP3    H133922   2.969   3.685   1.101 -1.6197 -0.3237  0.9408
 4169TIP3    H233923   2.950   3.826   1.151 -0.7207 -0.3283  1.3014
 4170TIP3   OH233924   2.699   1.176  14.261 -0.2482  0.5985  0.2568
 4170TIP3    H133925   2.694   1.151  14.169  4.2446  0.1809  0.0112
 4170TIP3    H233926   2.757   1.111  14.301 -2.1173  0.7632  3.4361
 4171TIP3   OH233927   5.260   5.485  10.728 -0.3591  0.1119 -0.3753
 4171TIP3    H133928   5.283   5.576  10.748 -1.0985  0.1540  0.3171
 4171TIP3    H233929   5.212   5.490  10.646 -0.0722  0.3016 -0.5344
 4172TIP3   OH233930   6.031   5.543  15.993  0.7879  0.2295 -0.0837
 4172TIP3    H133931   6.108   5.486  15.999  0.0421 -0.7954  0.0183
 4172TIP3    H233932   6.004   5.539  15.902 -0.0178 -0.6165  0.1798
 4173TIP3   OH233933   3.283   2.733   0.821 -0.3983 -0.2132 -0.3844
 4173TIP3    H133934   3.195   2.695   0.814 -0.9733  0.9490  0.4153
 4173TIP3    H233935   3.288   2.797   0.751 -0.5695  0.4545  0.2068
 4174TIP3   OH233936   2.202   2.500  10.796  0.2743  0.3314 -0.1583
 4174TIP3    H133937   2.228   2.408  10.797  0.5088  0.3957 -0.4909
 4174TIP3    H233938   2.264   2.543  10.738  0.5669  0.8191  0.5010
 4175TIP3   OH233939   0.441   6.128  11.064  0.4579 -0.3978  0.6949
 4175TIP3    H133940   0.452   6.111  11.158  0.5913 -2.2955  0.3539
 4175TIP3    H233941   0.504   6.197  11.045  0.6160 -0.1845  1.9499
 4176TIP3   OH233942   0.986   0.148  14.932  0.8576 -0.1076 -0.1071
 4176TIP3    H133943   1.015   0.073  14.984  0.9766  0.6452  0.9504
 4176TIP3    H233944   0.977   0.219  14.996  0.2146  0.6324 -0.9998
 4177TIP3   OH233945   0.993   0.285   4.174 -0.1642  0.9450  0.4347
 4177TIP3    H133946   1.070   0.228   4.182 -1.5037 -1.1496 -1.1305
 4177TIP3    H233947   1.026   0.364   4.132  1.0342 -0.2448 -0.9412
 4178TIP3   OH233948   1.339   6.516  14.786  0.1928  0.3108  0.1119
 4178TIP3    H133949   1.269   6.467  14.830 -0.0543  0.1305 -0.4847
 4178TIP3    H233950   1.418   6.467  14.805 -0.1041 -0.5338 -0.7903
 4179TIP3   OH233951   3.842   1.442  14.703 -0.1640 -0.0946 -0.0705
 4179TIP3    H133952   3.923   1.392  14.694 -0.4826 -0.4744 -0.8571
 4179TIP3    H233953   3.843   1.503  14.629  0.4594  1.4251  1.1394
 4180TIP3   OH233954   4.215   4.886   1.112 -0.0260 -0.0670 -0.0793
 4180TIP3    H133955   4.218   4.981   1.101  1.4775  0.0216  1.0767
 4180TIP3    H233956   4.123   4.864   1.097 -0.3872  1.5594 -0.3781
 4181TIP3   OH233957   0.933   0.573  13.183  0.4880 -0.2602  0.8960
 4181TIP3    H133958   0.918   0.666  13.199 -0.0411 -0.3844  1.1286
 4181TIP3    H233959   1.028   0.566  13.171  0.6441  0.1746  1.8153
 4182TIP3   OH233960   0.143   2.412  13.622 -0.0306  0.3110 -0.5795
 4182TIP3    H133961   0.208   2.343  13.607 -0.2409  0.0684 -0.3801
 4182TIP3    H233962   0.188   2.474  13.680 -0.8158 -1.1213  1.6448
 4183TIP3   OH233963   1.650   4.619  14.920 -0.0668 -0.7922 -0.0334
 4183TIP3    H133964   1.581   4.638  14.983  0.2060 -2.4657  0.8117
 4183TIP3    H233965   1.708   4.695  14.923 -1.4471  0.2907 -0.2029
 4184TIP3   OH233966   2.254   3.906  13.014 -0.3595  0.4027  0.0101
 4184TIP3    H133967   2.291   3.820  13.036 -0.2953  0.7213  1.1399
 4184TIP3    H233968   2.162   3.889  12.997 -0.5414  0.2552  1.1378
 4185TIP3   OH233969   4.506   1.166   4.844 -0.4168 -0.4402  0.0759
 4185TIP3    H133970   4.542   1.085   4.808  1.2559 -1.0788  3.0859
 4185TIP3    H233971   4.513   1.156   4.939 -0.4679  3.1141  0.5134
 4186TIP3   OH233972   5.587   4.354  12.288 -0.1298  0.0799 -0.8303
 4186TIP3    H133973   5.659   4.411  12.264 -1.3258  1.1550 -1.9438
 4186TIP3    H233974   5.616   4.311  12.368  0.9703  1.9011 -0.2247
 4187TIP3   OH233975   3.649   1.688  12.244  0.3780 -0.1385 -0.1743
 4187TIP3    H133976   3.674   1.779  12.259 -0.9397 -0.0035  1.4112
 4187TIP3    H233977   3.557   1.693  12.217  0.2791 -0.9919 -0.0145
 4188TIP3   OH233978   6.178   4.173   5.632  0.2370 -0.5182 -0.2122
 4188TIP3    H133979   6.251   4.192   5.690 -0.2046  1.2849 -0.2154
 4188TIP3    H233980   6.103   4.163   5.690  0.1089 -0.3774 -0.3531
 4189TIP3   OH233981   1.396   3.761  15.980 -0.3714  0.3812  0.6376
 4189TIP3    H133982   1.438   3.842  16.009 -0.7443  0.5838  0.6223
 4189TIP3    H233983   1.467   3.708  15.944 -0.2094  0.9178  0.1595
 4190TIP3   OH233984   1.705   3.863  13.940 -0.4501 -0.4259  0.0506
 4190TIP3    H133985   1.698   3.771  13.965  0.7475 -1.0969 -1.9203
 4190TIP3    H233986   1.786   3.893  13.981  0.6878 -1.0925 -1.6257
 4191TIP3   OH233987   1.788   5.057  15.525 -0.4608 -0.0967 -0.4219
 4191TIP3    H133988   1.744   5.037  15.442  1.7138 -1.8148 -1.1843
 4191TIP3    H233989   1.790   4.974  15.572  1.5638  0.0363 -0.2277
 4192TIP3   OH233990   0.927   0.363   2.916 -0.2588 -0.0517  0.2479
 4192TIP3    H133991   0.922   0.436   2.854 -0.4244 -0.9833 -0.8415
 4192TIP3    H233992   0.975   0.295   2.869  0.6768 -0.3321  1.5867
 4193TIP3   OH233993   3.573   4.258   3.329 -0.1523 -1.0336 -0.5605
 4193TIP3    H133994   3.644   4.306   3.287  1.0957 -2.2442  0.1308
 4193TIP3    H233995   3.613   4.220   3.408 -1.6510 -1.4331  0.0283
 4194TIP3   OH233996   2.304   2.632   5.457  0.1915  0.1201  0.4231
 4194TIP3    H133997   2.378   2.571   5.450 -0.0052 -0.1818  0.9029
 4194TIP3    H233998   2.333   2.711   5.412  0.7023 -0.0970  0.3685
 4195TIP3   OH233999   1.774   5.281   5.508  0.5411 -0.0191 -0.1100
 4195TIP3    H134000   1.744   5.233   5.585  2.6739 -0.9132  0.2134
 4195TIP3    H234001   1.851   5.330   5.539  0.6292  0.6633 -1.3604
 4196TIP3   OH234002   2.149   3.100  16.183  0.1162  0.1085 -0.7207
 4196TIP3    H134003   2.072   3.129  16.232 -0.1200  0.2062 -1.1463
 4196TIP3    H234004   2.223   3.130  16.236 -0.1384 -0.4328 -0.0534
 4197TIP3   OH234005   5.406   5.543  16.985 -0.2076 -0.5122  0.1191
 4197TIP3    H134006   5.436   5.540  16.894 -1.6828  0.8432 -0.4176
 4197TIP3    H234007   5.311   5.545  16.979 -0.3573 -1.9187  1.7536
 4198TIP3   OH234008   5.342   1.769  12.456 -0.0896  0.4220 -0.1491
 4198TIP3    H134009   5.418   1.813  12.494  0.5123 -2.1220  1.7043
 4198TIP3    H234010   5.272   1.784  12.520 -1.4793  3.4754 -2.2396
 4199TIP3   OH234011   5.017   3.194   1.796  0.1162 -0.0970  0.0464
 4199TIP3    H134012   4.962   3.116   1.785  0.2374 -0.1411 -0.2532
 4199TIP3    H234013   5.084   3.185   1.728  0.7498 -0.2603  0.6970
 4200TIP3   OH234014   4.996   6.697  13.010 -0.0220  0.1145 -0.4100
 4200TIP3    H134015   5.019   6.763  12.945  2.5688 -0.5726 -0.2554
 4200TIP3    H234016   5.022   6.735  13.094  0.6862 -0.7185 -0.2369
 4201TIP3   OH234017   6.010   6.338  14.336  0.1930 -0.7247  0.2353
 4201TIP3    H134018   5.973   6.269  14.390 -0.1589 -0.8694 -0.1830
 4201TIP3    H234019   6.101   6.345  14.363  0.7169 -2.6083 -0.9785
 4202TIP3   OH234020   4.824   0.610   2.863  0.1425  0.2734 -0.4640
 4202TIP3    H134021   4.896   0.672   2.868  0.0764  0.3113  0.0959
 4202TIP3    H234022   4.787   0.609   2.952  2.6184 -3.4870  0.6253
 4203TIP3   OH234023   4.851   6.536  10.991 -0.0278  0.3212 -0.1381
 4203TIP3    H134024   4.829   6.574  10.906 -1.3512 -0.4285 -0.1554
 4203TIP3    H234025   4.916   6.595  11.029  0.4441  0.7429 -1.6008
 4204TIP3   OH234026   5.252   1.437   0.687  0.0019 -0.8245 -0.4891
 4204TIP3    H134027   5.319   1.368   0.695  0.1164 -0.7792 -1.0610
 4204TIP3    H234028   5.169   1.389   0.687 -0.0138 -0.8155  1.1567
 4205TIP3   OH234029   3.868   3.681   3.077 -0.2963  0.2487 -0.2853
 4205TIP3    H134030   3.807   3.608   3.075 -0.2509  0.1758  0.5003
 4205TIP3    H234031   3.814   3.759   3.066 -0.4401  0.1409 -0.3325
 4206TIP3   OH234032   2.481   4.064   3.460  0.4713 -0.1788 -0.1968
 4206TIP3    H134033   2.473   3.972   3.436 -2.4116 -0.5549  1.8464
 4206TIP3    H234034   2.407   4.106   3.416  0.5440  0.7629  0.5729
 4207TIP3   OH234035   3.759   1.833  11.267  0.7180 -0.1127 -0.0022
 4207TIP3    H134036   3.787   1.870  11.183 -1.1957  0.2181 -0.5231
 4207TIP3    H234037   3.745   1.740  11.249 -1.3541  0.2733 -0.5171
 4208TIP3   OH234038   1.997   0.402  16.347  0.3427  0.0113  0.6318
 4208TIP3    H134039   1.903   0.398  16.365  0.2404  2.6242  0.7501
 4208TIP3    H234040   2.037   0.357  16.421 -0.7963 -1.1088  0.5850
 4209TIP3   OH234041   4.081   4.821  13.392 -0.3327  0.0971  0.8089
 4209TIP3    H134042   4.155   4.830  13.453 -2.1803 -1.6609  3.4085
 4209TIP3    H234043   4.108   4.752  13.331 -0.2372 -1.3311  2.4294
 4210TIP3   OH234044   5.779   2.355  15.462  0.0879  0.0521 -0.1320
 4210TIP3    H134045   5.863   2.400  15.454 -1.3747  3.0291  0.5655
 4210TIP3    H234046   5.732   2.403  15.530 -1.6856 -2.3620  0.4131
 4211TIP3   OH234047   0.593   1.554  15.437 -0.6246 -0.1836 -0.2359
 4211TIP3    H134048   0.583   1.490  15.508 -1.6226 -0.2845 -0.4606
 4211TIP3    H234049   0.663   1.519  15.382 -0.4854 -0.5772  0.1913
 4212TIP3   OH234050   3.897   4.313   4.617 -0.5520 -0.3003 -0.0267
 4212TIP3    H134051   3.885   4.302   4.523  0.9984  0.3765 -0.3070
 4212TIP3    H234052   3.941   4.397   4.627 -2.3331  0.5179  1.4384
 4213TIP3   OH234053   4.056   0.586   2.618  0.0894  0.2339 -0.3721
 4213TIP3    H134054   4.104   0.669   2.622  2.0551 -0.8461 -0.6459
 4213TIP3    H234055   4.024   0.582   2.528 -0.3095  0.8559 -0.2604
 4214TIP3   OH234056   4.785   6.088   5.040 -0.4847 -0.0694 -0.2450
 4214TIP3    H134057   4.805   6.002   5.004 -0.0192  0.1266 -0.4643
 4214TIP3    H234058   4.832   6.149   4.983  0.0176  0.2608  0.5127
 4215TIP3   OH234059   4.057   4.982  16.467 -0.1224 -0.0436 -0.0749
 4215TIP3    H134060   3.999   5.054  16.440 -0.9335 -0.8797 -0.6168
 4215TIP3    H234061   4.093   5.011  16.550 -2.3343 -0.0293  0.9330
 4216TIP3   OH234062   0.007   4.067  11.733 -0.2578  0.5309  0.5581
 4216TIP3    H134063   0.015   4.160  11.711 -2.7341  0.6960  0.2203
 4216TIP3    H234064   0.016   4.022  11.649 -1.0300  0.6090  0.4271
 4217TIP3   OH234065   1.893   3.614   3.162  0.1487  0.4892  0.1652
 4217TIP3    H134066   1.834   3.594   3.088 -1.2560  0.6323  1.2257
 4217TIP3    H234067   1.858   3.695   3.199  0.7828  0.3513  1.0569
 4218TIP3   OH234068   5.046   1.475   1.715 -0.3653 -0.5285  0.1713
 4218TIP3    H134069   4.977   1.535   1.688 -0.1921 -0.9346 -1.2647
 4218TIP3    H234070   5.102   1.526   1.772 -0.4965  0.5369 -0.6325
 4219TIP3   OH234071   1.549   5.990  12.534 -0.2954 -0.2294  0.0275
 4219TIP3    H134072   1.635   6.028  12.516 -0.5599  0.1262 -0.5119
 4219TIP3    H234073   1.553   5.963  12.625 -0.2051  1.3746  0.5165
 4220TIP3   OH234074   2.303   5.960  13.261 -0.1732  0.0958 -0.2382
 4220TIP3    H134075   2.246   5.949  13.185  1.3347 -0.0306 -1.3831
 4220TIP3    H234076   2.363   5.886  13.257 -1.3400 -1.0091  2.2398
 4221TIP3   OH234077   1.487   1.429  14.559 -0.4801 -0.0621 -0.4521
 4221TIP3    H134078   1.488   1.470  14.646 -2.1776  0.9582 -0.9045
 4221TIP3    H234079   1.421   1.477  14.510  0.0631 -1.0000 -2.1524
 4222TIP3   OH234080   2.114   4.162   4.444 -0.1016  0.6173  0.0526
 4222TIP3    H134081   2.163   4.243   4.430 -0.1940  0.7692  0.5983
 4222TIP3    H234082   2.181   4.096   4.461 -0.0419  0.6347 -0.1121
 4223TIP3   OH234083   5.465   3.002  11.998 -0.3544  0.4539  0.2914
 4223TIP3    H134084   5.505   2.997  11.911 -2.0357  0.0427 -0.4749
 4223TIP3    H234085   5.405   3.076  11.993 -2.1861 -0.9945  0.3533
 4224TIP3   OH234086   2.650   4.038  16.779  0.2769  0.4658 -0.1070
 4224TIP3    H134087   2.689   3.997  16.856  1.7800  0.5295 -0.8162
 4224TIP3    H234088   2.630   3.965  16.720  0.7575  0.5395 -0.3718
 4225TIP3   OH234089   5.594   2.897   3.624  0.8243  0.0165 -0.1155
 4225TIP3    H134090   5.505   2.863   3.624  0.2823  1.3722 -0.6326
 4225TIP3    H234091   5.636   2.857   3.701 -0.2407 -0.5760  0.1628
 4226TIP3   OH234092   1.794   5.867   0.661  0.1945 -0.4155  0.3105
 4226TIP3    H134093   1.839   5.945   0.695 -0.6472 -0.2869  1.1365
 4226TIP3    H234094   1.773   5.890   0.570 -1.0170  0.7659  0.8615
 4227TIP3   OH234095   1.983   2.404   4.463 -0.2075 -0.0410 -0.2925
 4227TIP3    H134096   1.906   2.377   4.413 -1.3241  0.5086  1.0917
 4227TIP3    H234097   1.992   2.498   4.444 -0.1241 -0.0139 -0.1202
 4228TIP3   OH234098   5.352   0.431  13.901 -0.2533  0.5943 -0.3595
 4228TIP3    H134099   5.362   0.383  13.983  0.1370 -0.2402 -0.8883
 4228TIP3    H234100   5.349   0.364  13.834 -0.7054  1.2657 -1.0250
 4229TIP3   OH234101   3.708   1.192  12.549 -0.1872  0.3805 -0.1359
 4229TIP3    H134102   3.694   1.109  12.504  1.4588  1.9798 -3.8551
 4229TIP3    H234103   3.621   1.222  12.574 -0.8565 -2.0423  0.5438
 4230TIP3   OH234104   6.424   4.902   3.056  0.1502  0.2986  0.4250
 4230TIP3    H134105   6.373   4.925   2.978  0.1813  0.0117  0.3174
 4230TIP3    H234106   6.426   4.806   3.055  2.6697  0.3113 -0.8797
 4231TIP3   OH234107   1.228   0.932  14.853 -0.7072 -0.0279  0.3453
 4231TIP3    H134108   1.261   0.871  14.787  0.2846 -1.6392  2.2753
 4231TIP3    H234109   1.133   0.923  14.849 -0.5702 -1.6048  0.5312
 4232TIP3   OH234110   3.126   4.983   3.497  0.2210  0.2813 -0.2841
 4232TIP3    H134111   3.146   4.974   3.590 -1.4538 -1.6883 -0.0826
 4232TIP3    H234112   3.096   5.074   3.487  0.0423  0.3832  1.1423
 4233TIP3   OH234113   6.775   5.472   1.703  0.2258  0.1182  0.5716
 4233TIP3    H134114   6.692   5.518   1.721 -0.6198 -0.7186 -1.0801
 4233TIP3    H234115   6.841   5.541   1.708 -0.5792  0.8413  1.7283
 4234TIP3   OH234116   5.724   3.555  16.088  0.1316 -0.6872 -0.7407
 4234TIP3    H134117   5.770   3.600  16.158 -0.9833 -0.0137 -0.4353
 4234TIP3    H234118   5.794   3.524  16.030  0.8991  1.6733 -1.1130
 4235TIP3   OH234119   6.049   0.092   2.644  0.1309  0.2965 -0.3725
 4235TIP3    H134120   6.072   0.003   2.619  0.4343  0.5309 -0.9435
 4235TIP3    H234121   5.965   0.083   2.690  0.0819 -0.2633 -0.5642
 4236TIP3   OH234122   4.375   0.922   3.978 -0.3492 -0.2807 -0.4773
 4236TIP3    H134123   4.431   0.877   3.915  0.0044 -0.9540  0.3071
 4236TIP3    H234124   4.288   0.920   3.938  0.0669  0.2397 -1.4263
 4237TIP3   OH234125   4.462   0.344  14.858  0.5547  0.1530  0.5662
 4237TIP3    H134126   4.488   0.329  14.767  0.7113 -0.8853  0.7818
 4237TIP3    H234127   4.433   0.435  14.860  2.6122  0.8489 -0.0620
 4238TIP3   OH234128   6.243   0.600  15.823  0.4520 -0.2566  0.0210
 4238TIP3    H134129   6.247   0.693  15.801  1.6964  0.1730  1.9661
 4238TIP3    H234130   6.320   0.584  15.877  0.4161 -2.5013 -0.5295
 4239TIP3   OH234131   0.390   0.142  14.900 -0.4593  0.0643 -0.0411
 4239TIP3    H134132   0.355   0.119  14.813 -0.9851 -0.0594  0.2034
 4239TIP3    H234133   0.346   0.223  14.923  0.4742  0.6720 -0.3544
 4240TIP3   OH234134   1.219   6.347   4.194 -0.4432  0.0545  0.1585
 4240TIP3    H134135   1.213   6.417   4.129 -1.7096 -1.5785 -1.5045
 4240TIP3    H234136   1.162   6.375   4.265  0.3407  1.4692  0.2592
 4241TIP3   OH234137   2.909   5.376   0.859  0.1332 -0.5049  0.1197
 4241TIP3    H134138   2.975   5.443   0.874 -0.0613  0.1912 -2.0350
 4241TIP3    H234139   2.877   5.355   0.947  1.0303  1.3638  0.9323
 4242TIP3   OH234140   6.706   3.053  13.914 -0.2023  0.1410  0.4914
 4242TIP3    H134141   6.664   2.968  13.921 -0.5649  0.0679 -2.1474
 4242TIP3    H234142   6.768   3.055  13.987 -1.6765 -1.5151  1.8112
 4243TIP3   OH234143   4.761   0.814  11.680  0.2044 -0.1380 -0.0097
 4243TIP3    H134144   4.747   0.789  11.772 -0.0804  0.4595  0.1151
 4243TIP3    H234145   4.728   0.740  11.630  3.5950 -2.0592  0.3958
 4244TIP3   OH234146   3.717   0.323   3.102  0.2793  0.8334  0.3403
 4244TIP3    H134147   3.710   0.412   3.137  0.5431  0.4100  1.4979
 4244TIP3    H234148   3.741   0.270   3.178 -0.9333 -0.4017 -0.1278
 4245TIP3   OH234149   3.329   2.426   1.463 -0.2518 -0.0889 -0.1259
 4245TIP3    H134150   3.275   2.502   1.444 -0.8678 -0.8061 -1.2388
 4245TIP3    H234151   3.402   2.432   1.401 -0.3104 -0.4128 -0.2277
 4246TIP3   OH234152   4.668   2.250   1.309  0.0021  0.3275 -0.3864
 4246TIP3    H134153   4.697   2.332   1.269  3.8420 -0.3540  0.7695
 4246TIP3    H234154   4.749   2.203   1.328 -2.1382 -4.1344 -1.7865
 4247TIP3   OH234155   4.028   1.759  15.324 -0.6834  0.2123  0.0647
 4247TIP3    H134156   4.070   1.780  15.241  2.3881  2.0601  1.9991
 4247TIP3    H234157   4.045   1.665  15.337  1.6026  0.6133  0.1038
 4248TIP3   OH234158   0.215   0.818  12.929 -0.0031 -0.0275 -0.0106
 4248TIP3    H134159   0.143   0.871  12.893 -0.0428  0.3957  0.6856
 4248TIP3    H234160   0.265   0.879  12.983  1.1708 -0.2069 -0.8751
 4249TIP3   OH234161   2.343   0.676  11.861 -0.1295 -0.5476  0.7284
 4249TIP3    H134162   2.308   0.701  11.947 -0.8754  0.0071  0.2647
 4249TIP3    H234163   2.300   0.593  11.841 -0.0986 -0.5809  0.7963
 4250TIP3   OH234164   2.585   5.266   2.638  0.1149  0.1461  0.4393
 4250TIP3    H134165   2.521   5.262   2.567  0.8901  0.3419 -0.2757
 4250TIP3    H234166   2.532   5.261   2.718 -0.7761  0.1142 -0.1440
 4251TIP3   OH234167   2.919   4.509   0.020 -0.3362  0.4507  0.1487
 4251TIP3    H134168   2.975   4.581  -0.008  0.2871 -0.5237 -1.2055
 4251TIP3    H234169   2.854   4.500  -0.050 -0.2922 -0.4258  0.2123
 4252TIP3   OH234170   2.379   3.815   5.830 -0.0211 -0.0821 -0.1267
 4252TIP3    H134171   2.309   3.820   5.764  0.3319  1.1168 -0.4234
 4252TIP3    H234172   2.352   3.877   5.898  1.7550  1.9793 -1.2320
 4253TIP3   OH234173   2.148   3.501   6.859 -0.3708  0.4829 -0.0325
 4253TIP3    H134174   2.128   3.550   6.780 -2.0700  0.9772  0.6848
 4253TIP3    H234175   2.070   3.510   6.914  0.3446 -0.7709  1.2376
 4254TIP3   OH234176   0.124   1.425   3.733 -0.0665  0.0972  0.1243
 4254TIP3    H134177   0.216   1.424   3.706  0.8192 -2.3179  3.0330
 4254TIP3    H234178   0.126   1.452   3.825 -2.1011 -1.6921  0.7363
 4255TIP3   OH234179   4.385   1.165  11.484  0.2151 -0.2229 -0.6247
 4255TIP3    H134180   4.436   1.203  11.413  0.6253 -0.8983 -0.6889
 4255TIP3    H234181   4.416   1.075  11.492 -1.3462 -0.8269 -1.0474
 4256TIP3   OH234182   3.999   4.604  13.628 -0.4570  0.3034  0.1530
 4256TIP3    H134183   4.083   4.646  13.611 -0.4759 -0.1414 -1.0910
 4256TIP3    H234184   3.964   4.650  13.704 -0.0602  1.8979 -0.6263
 4257TIP3   OH234185   2.652   3.203   3.728  0.4018  0.2825  0.1062
 4257TIP3    H134186   2.630   3.116   3.762  0.8738  0.1372  0.0462
 4257TIP3    H234187   2.705   3.185   3.650  0.9663  0.6298  0.4116
 4258TIP3   OH234188   3.444   0.851  17.209 -0.1086 -0.1187 -0.0280
 4258TIP3    H134189   3.508   0.829  17.277  0.6288 -2.7286 -1.4869
 4258TIP3    H234190   3.394   0.770  17.195 -2.3852  1.3073 -0.3397
 4259TIP3   OH234191   4.722   2.888   5.223 -0.5226 -0.2574  0.0999
 4259TIP3    H134192   4.753   2.974   5.250 -1.5112 -0.1369  0.9042
 4259TIP3    H234193   4.801   2.840   5.200  0.1592  0.4079  1.0243
 4260TIP3   OH234194   4.217   5.324   2.681  0.2626 -0.5086 -0.0724
 4260TIP3    H134195   4.263   5.242   2.663 -1.5434 -1.7891  1.0094
 4260TIP3    H234196   4.203   5.324   2.776 -2.5193 -0.5094 -0.4237
 4261TIP3   OH234197   6.565   3.654   5.905  0.2113  0.3680 -0.4893
 4261TIP3    H134198   6.522   3.724   5.856  0.3408 -0.7127 -2.1769
 4261TIP3    H234199   6.496   3.619   5.961  0.7126  3.3533  2.1358
 4262TIP3   OH234200   2.626   4.489   0.600  0.9251 -0.1406  0.0956
 4262TIP3    H134201   2.594   4.417   0.546 -2.9011  1.0114  0.7274
 4262TIP3    H234202   2.625   4.565   0.542  0.3303  0.3674  0.7691
 4263TIP3   OH234203   1.833   1.670   0.449 -0.0763  0.2195  0.0491
 4263TIP3    H134204   1.829   1.679   0.354  1.0247  1.0938  0.0665
 4263TIP3    H234205   1.922   1.698   0.472 -1.4838  3.7005  1.6777
 4264TIP3   OH234206   2.335   4.860   2.336 -0.4615 -0.2373  0.3063
 4264TIP3    H134207   2.314   4.917   2.410  1.3104 -0.0623  0.6933
 4264TIP3    H234208   2.340   4.772   2.375  0.1536 -0.1903  0.3315
 4265TIP3   OH234209   6.750   3.032  14.733 -0.1864  0.4330  0.0139
 4265TIP3    H134210   6.673   3.081  14.703  0.7615  2.1788  0.3591
 4265TIP3    H234211   6.786   3.085  14.804 -0.1629 -1.6976  1.6292
 4266TIP3   OH234212   3.434   3.550   2.779 -1.0512 -0.5601 -0.0822
 4266TIP3    H134213   3.513   3.524   2.826 -0.7924  0.7694  0.2386
 4266TIP3    H234214   3.457   3.539   2.686 -0.8035 -1.0372  0.0343
 4267TIP3   OH234215   6.586   4.777   3.462  0.2423 -0.0416 -0.1914
 4267TIP3    H134216   6.539   4.835   3.403 -0.3903 -0.5128 -0.1563
 4267TIP3    H234217   6.598   4.828   3.542 -0.0452  0.1478 -0.2703
 4268TIP3   OH234218   0.580   2.252  15.859 -0.0828 -0.3633 -0.3723
 4268TIP3    H134219   0.642   2.324  15.867 -0.2376 -0.4846  2.5525
 4268TIP3    H234220   0.502   2.291  15.820  0.2969  0.7410 -0.0421
 4269TIP3   OH234221   1.906   6.466  12.278 -0.7092 -0.0372  0.4845
 4269TIP3    H134222   1.986   6.444  12.229 -0.2327  2.3649  0.1467
 4269TIP3    H234223   1.903   6.400  12.348  1.1133 -0.6692  0.0071
 4270TIP3   OH234224   0.221   3.102  11.085  0.3080  0.9346 -0.1523
 4270TIP3    H134225   0.249   3.012  11.104  0.5097  1.2521  1.0712
 4270TIP3    H234226   0.199   3.139  11.170  0.5975  2.1747 -0.6038
 4271TIP3   OH234227   3.960   4.222   4.925  0.2820 -0.0748 -0.4062
 4271TIP3    H134228   3.911   4.257   4.850 -0.2337 -1.2803 -0.6375
 4271TIP3    H234229   3.894   4.189   4.985  0.7048  0.7253  0.5180
 4272TIP3   OH234230   0.960   5.794  13.657  0.0379 -0.3494 -0.3432
 4272TIP3    H134231   0.886   5.767  13.601  0.6535  0.6892 -1.7009
 4272TIP3    H234232   1.010   5.854  13.602  1.1580  0.0114  1.0495
 4273TIP3   OH234233   4.929   5.379  16.475 -0.3358  0.1045 -0.6270
 4273TIP3    H134234   4.958   5.451  16.419 -0.8217  1.8509  1.3140
 4273TIP3    H234235   4.997   5.373  16.542 -1.7129  0.6500  0.8411
 4274TIP3   OH234236   0.422   3.176  16.769  0.4174 -0.2694 -0.2034
 4274TIP3    H134237   0.447   3.084  16.768 -2.9347 -1.2241 -0.1773
 4274TIP3    H234238   0.331   3.176  16.797 -0.1467  2.9513 -1.8481
 4275TIP3   OH234239   5.537   6.760   4.169 -0.2315  0.0783  0.4297
 4275TIP3    H134240   5.571   6.786   4.083 -1.2273 -1.2362 -0.3871
 4275TIP3    H234241   5.464   6.821   4.185 -1.3355 -0.9243 -0.6069
 4276TIP3   OH234242   3.207   0.085   4.898  0.1446 -0.3882 -0.2808
 4276TIP3    H134243   3.228   0.168   4.940 -0.5127  0.0720 -0.8384
 4276TIP3    H234244   3.287   0.060   4.852  0.6946 -0.6314  0.8037
 4277TIP3   OH234245   2.779   3.697   0.524  0.3481 -0.2266  0.1076
 4277TIP3    H134246   2.787   3.772   0.466 -1.7019 -0.2709 -0.2584
 4277TIP3    H234247   2.822   3.626   0.477  0.1192  0.1262 -0.6404
 4278TIP3   OH234248   1.144   6.219   3.519 -0.5898  0.2296 -0.6648
 4278TIP3    H134249   1.222   6.164   3.513 -0.9989 -0.4623  0.3027
 4278TIP3    H234250   1.077   6.171   3.471 -0.5614  0.6001 -1.0871
 4279TIP3   OH234251   6.443   0.400   3.585  0.5512 -0.0982  0.0656
 4279TIP3    H134252   6.457   0.494   3.579 -0.3977  0.0930  0.6846
 4279TIP3    H234253   6.515   0.368   3.639 -0.7019  0.6859  2.2531
 4280TIP3   OH234254   2.648   4.754  15.521 -0.2879  0.0560  0.4114
 4280TIP3    H134255   2.707   4.724  15.451 -1.8841  2.2937 -1.9951
 4280TIP3    H234256   2.698   4.822  15.566 -1.1615  2.4005 -2.0248
 4281TIP3   OH234257   3.970   3.622  15.993  0.4454 -0.4629  0.3980
 4281TIP3    H134258   3.877   3.602  16.002  0.6028 -1.0103  0.8294
 4281TIP3    H234259   4.008   3.544  15.953  0.9794 -0.8272  1.6190
 4282TIP3   OH234260   6.520   2.819   6.602 -0.7295 -0.0856  0.5763
 4282TIP3    H134261   6.528   2.906   6.564  1.0135 -1.0545 -1.3281
 4282TIP3    H234262   6.464   2.771   6.541  0.0755 -0.9242  0.4841
 4283TIP3   OH234263   2.645   6.530   2.215 -0.8577 -0.5156 -0.0123
 4283TIP3    H134264   2.655   6.624   2.197 -1.3615 -0.6164 -0.8742
 4283TIP3    H234265   2.701   6.487   2.150 -1.0693 -0.8224  0.0057
 4284TIP3   OH234266   5.753   1.769  11.412  0.0477  0.0824  0.0516
 4284TIP3    H134267   5.833   1.818  11.389  0.8638 -0.8844  0.8125
 4284TIP3    H234268   5.725   1.730  11.329  0.3700  0.4222 -0.2239
 4285TIP3   OH234269   1.496   1.775  12.457 -0.8051  0.0815  0.3223
 4285TIP3    H134270   1.522   1.727  12.535 -0.7411 -0.5935 -0.1161
 4285TIP3    H234271   1.440   1.845  12.490  1.7446  1.7358  1.3218
 4286TIP3   OH234272   5.305   5.562   2.242 -0.6640 -0.6864 -0.1764
 4286TIP3    H134273   5.393   5.526   2.230 -0.8413 -0.8756 -0.9786
 4286TIP3    H234274   5.319   5.656   2.253 -0.2179 -0.9538  1.6350
 4287TIP3   OH234275   3.563   3.683  12.861 -0.0638  0.0469 -0.1694
 4287TIP3    H134276   3.511   3.719  12.790 -1.9846  0.3218  1.3404
 4287TIP3    H234277   3.513   3.607  12.891  0.4447  0.2534  1.2404
 4288TIP3   OH234278   0.336   0.962  10.618 -0.0441  0.2114 -0.2948
 4288TIP3    H134279   0.423   0.998  10.598 -0.0474  0.9960  1.0676
 4288TIP3    H234280   0.305   0.928  10.534  1.7159 -0.3735 -0.7319
 4289TIP3   OH234281   2.096   4.740   2.195  0.2144  0.5414 -0.1338
 4289TIP3    H134282   2.188   4.751   2.220  0.3394  0.2917 -0.4769
 4289TIP3    H234283   2.077   4.814   2.138  1.0446 -0.9293 -2.4117
 4290TIP3   OH234284   1.857   5.903  16.277 -0.3482 -0.0525  0.0793
 4290TIP3    H134285   1.939   5.860  16.251 -2.2478 -1.0239 -4.6496
 4290TIP3    H234286   1.885   5.987  16.313  2.8403 -1.2800  0.6444
 4291TIP3   OH234287   6.149   4.556   4.461  0.1499  0.1893  0.0485
 4291TIP3    H134288   6.084   4.577   4.528  1.3205  0.5826  1.0798
 4291TIP3    H234289   6.137   4.462   4.445 -2.0197  0.6565 -1.2640
 4292TIP3   OH234290   0.346   1.655   2.557  0.4584  0.4842 -0.4945
 4292TIP3    H134291   0.368   1.661   2.650  2.4974 -1.4066 -0.7964
 4292TIP3    H234292   0.391   1.729   2.517  0.1430  0.9115 -0.0612
 4293TIP3   OH234293   5.270   0.999   4.118 -0.0058  0.3791  0.4939
 4293TIP3    H134294   5.296   0.920   4.070  0.8980  0.2225  1.2258
 4293TIP3    H234295   5.176   1.006   4.104 -0.1485 -1.0172  0.6923
 4294TIP3   OH234296   2.068   2.265   4.665 -0.3176 -0.1171  0.5157
 4294TIP3    H134297   2.025   2.182   4.645  0.2622  0.2270 -2.3578
 4294TIP3    H234298   2.052   2.320   4.588  1.6075  1.5061  1.2102
 4295TIP3   OH234299   1.253   3.793   2.780  0.0451  0.2335 -0.3967
 4295TIP3    H134300   1.334   3.842   2.769 -0.9663  1.9064 -0.4669
 4295TIP3    H234301   1.184   3.852   2.749 -1.1286 -1.4908 -1.1850
 4296TIP3   OH234302   0.410   2.902  13.143 -0.2761  0.1356 -0.4605
 4296TIP3    H134303   0.328   2.946  13.163  0.3580  0.9113  0.4652
 4296TIP3    H234304   0.415   2.904  13.047 -1.0484  0.6032 -0.4980
 4297TIP3   OH234305   2.989   2.927   2.854  0.3078 -0.6886 -0.2565
 4297TIP3    H134306   2.941   3.006   2.877 -0.8195 -1.3291 -0.3806
 4297TIP3    H234307   3.080   2.955   2.850  0.4105 -0.1812  3.3850
 4298TIP3   OH234308   2.006   1.969   3.801 -0.3100  0.0437 -0.1425
 4298TIP3    H134309   2.039   1.917   3.875 -0.3223 -0.9346 -0.8193
 4298TIP3    H234310   1.911   1.965   3.809 -0.3229  2.0053  1.2081
 4299TIP3   OH234311   0.322   6.053   3.201  0.3723 -0.8028 -0.1338
 4299TIP3    H134312   0.229   6.058   3.179  0.5480  1.5930 -0.4670
 4299TIP3    H234313   0.365   6.038   3.116  0.4399  0.0586 -0.2491
 4300TIP3   OH234314   5.888   4.444  13.056  0.1275 -0.7017 -0.3600
 4300TIP3    H134315   5.806   4.450  13.006  0.2723 -1.0465 -0.6404
 4300TIP3    H234316   5.925   4.360  13.030  1.3585  0.1702 -1.4295
 4301TIP3   OH234317   2.707   5.333  12.438  0.1566 -0.0270  0.0599
 4301TIP3    H134318   2.699   5.299  12.349  0.2675  0.0294  0.0294
 4301TIP3    H234319   2.741   5.422  12.428  2.3417 -0.8223  0.2735
 4302TIP3   OH234320   3.045   6.654  11.434  0.0590  0.5321  0.0488
 4302TIP3    H134321   3.089   6.687  11.512 -0.8620  0.5161  0.5878
 4302TIP3    H234322   3.063   6.560  11.435  0.2668  0.5704  0.0986
 4303TIP3   OH234323   3.166   3.352  11.229 -0.2033 -0.4701 -0.5860
 4303TIP3    H134324   3.096   3.308  11.181 -1.6998  1.5686 -0.3047
 4303TIP3    H234325   3.126   3.380  11.311  1.0020  0.4925 -0.2987
 4304TIP3   OH234326   2.718   1.495   2.872 -0.1976  0.0107  0.2422
 4304TIP3    H134327   2.743   1.403   2.879 -3.2023 -0.7844  0.8681
 4304TIP3    H234328   2.699   1.522   2.962  0.2988  1.1604  0.0183
 4305TIP3   OH234329   0.179   3.009  17.129 -0.1317  0.2473 -0.0263
 4305TIP3    H134330   0.106   2.989  17.188 -1.4762  1.6479 -1.1690
 4305TIP3    H234331   0.236   3.065  17.182 -0.2753 -0.2066  0.6243
 4306TIP3   OH234332   5.947   2.558  12.597  0.2070 -0.0876  0.2075
 4306TIP3    H134333   6.011   2.503  12.553 -0.2682 -1.4296  1.1475
 4306TIP3    H234334   5.995   2.637  12.621  1.0020 -0.2682 -0.7821
 4307TIP3   OH234335   0.073   4.607   1.838 -0.1579 -0.0303 -0.4754
 4307TIP3    H134336   0.002   4.667   1.862  0.1999  0.0024  0.5441
 4307TIP3    H234337   0.053   4.526   1.886  1.1686  0.3996  0.8309
 4308TIP3   OH234338   4.369   3.941   5.763  0.3438 -0.1675 -0.1469
 4308TIP3    H134339   4.453   3.986   5.763  0.8648 -1.1071  1.0924
 4308TIP3    H234340   4.389   3.854   5.728 -0.0380 -0.5021  0.4561
 4309TIP3   OH234341   1.857   6.202   5.005 -0.4875 -0.7825 -0.3689
 4309TIP3    H134342   1.925   6.249   5.053 -1.7184 -2.9242  3.6850
 4309TIP3    H234343   1.785   6.265   4.996  0.2429  0.0314 -0.5962
 4310TIP3   OH234344   3.170   4.124   1.361  0.4832  0.0534 -0.2480
 4310TIP3    H134345   3.140   4.210   1.332 -0.3446 -0.2680 -0.3439
 4310TIP3    H234346   3.195   4.079   1.281 -1.1839 -0.5963 -0.4108
 4311TIP3   OH234347   2.723   0.530  10.566 -0.0683 -0.2988  0.5258
 4311TIP3    H134348   2.678   0.587  10.629 -1.9493  1.2334 -2.0762
 4311TIP3    H234349   2.789   0.586  10.526 -0.9406 -0.3142 -1.0002
 4312TIP3   OH234350   3.535   5.763  11.161  0.1404 -0.0629 -0.2179
 4312TIP3    H134351   3.586   5.820  11.104  1.2608  0.5443  1.3405
 4312TIP3    H234352   3.458   5.816  11.184  0.0665 -0.0200 -0.5639
 4313TIP3   OH234353   5.466   2.546   3.998 -0.6086 -0.0795  0.3862
 4313TIP3    H134354   5.391   2.506   3.955  0.2222 -1.0171 -0.1910
 4313TIP3    H234355   5.529   2.475   4.009  0.4553  0.8321  0.3003
 4314TIP3   OH234356   6.715   3.687  16.547  0.0313  0.1364 -0.0278
 4314TIP3    H134357   6.785   3.654  16.604 -0.6819 -0.0348  0.7495
 4314TIP3    H234358   6.761   3.742  16.484  1.0351 -1.0526 -0.3583
 4315TIP3   OH234359   1.347   4.774   4.712 -0.0815  0.0387  0.2530
 4315TIP3    H134360   1.312   4.778   4.624  0.1984  0.7822  0.1724
 4315TIP3    H234361   1.290   4.832   4.764  0.7896  0.9613  0.1962
 4316TIP3   OH234362   2.993   6.230  15.141 -0.4834  0.3161 -0.1598
 4316TIP3    H134363   2.925   6.271  15.195  0.0501  1.4124 -0.2996
 4316TIP3    H234364   3.012   6.147  15.185 -0.2028  1.0917  1.2348
 4317TIP3   OH234365   1.060   1.008  12.671 -0.4996 -0.8086 -0.3310
 4317TIP3    H134366   1.114   0.966  12.738 -1.0149 -1.7635 -0.4986
 4317TIP3    H234367   1.059   1.101  12.695  1.1429 -0.7795 -0.2814
 4318TIP3   OH234368   4.929   6.751   1.641 -0.1442  0.0164  0.1737
 4318TIP3    H134369   4.909   6.735   1.549 -0.9112  1.6914  0.0342
 4318TIP3    H234370   5.023   6.735   1.648  0.1622  1.1139 -1.1979
 4319TIP3   OH234371   1.024   1.691   0.276  0.5589  0.4567  0.0843
 4319TIP3    H134372   1.047   1.601   0.299  2.1735  1.2835  1.8318
 4319TIP3    H234373   0.984   1.727   0.354 -0.0677  1.2684 -0.6030
 4320TIP3   OH234374   2.494   5.182   0.051  0.3701  0.1873  0.0212
 4320TIP3    H134375   2.399   5.195   0.052  0.1580 -0.6389 -3.1426
 4320TIP3    H234376   2.511   5.124   0.125 -1.6305  0.1373  0.4730
 4321TIP3   OH234377   3.556   5.567  15.305 -0.9306 -0.6750  0.3041
 4321TIP3    H134378   3.620   5.538  15.370  0.4294  2.4355  0.4529
 4321TIP3    H234379   3.579   5.520  15.225  2.0680  0.9906  0.1431
 4322TIP3   OH234380   2.874   4.176  17.060  0.3234 -0.0026  0.1202
 4322TIP3    H134381   2.920   4.243  17.009 -0.8836 -0.5746 -1.7981
 4322TIP3    H234382   2.781   4.200  17.051  0.1351  0.3016  2.6897
 4323TIP3   OH234383   5.749   1.531   5.129  0.1335 -0.1333  0.9346
 4323TIP3    H134384   5.737   1.467   5.059  1.9034 -0.5288  0.9490
 4323TIP3    H234385   5.718   1.486   5.208  1.4785 -1.0603  0.9654
 4324TIP3   OH234386   3.155   1.154  16.825 -0.4392  0.2862 -0.0227
 4324TIP3    H134387   3.242   1.151  16.865  0.3695 -1.8859 -1.7910
 4324TIP3    H234388   3.118   1.068  16.844 -1.9393  0.9645  0.1398
 4325TIP3   OH234389   1.783   4.326   1.320 -0.0504 -0.8547 -0.0227
 4325TIP3    H134390   1.798   4.234   1.295  0.8472 -1.4502  2.5842
 4325TIP3    H234391   1.719   4.321   1.391 -0.2771  0.5864 -0.1267
 4326TIP3   OH234392   2.518   0.559   2.664 -0.0499  0.0541  0.8041
 4326TIP3    H134393   2.554   0.630   2.717  0.2970 -0.6047  1.4603
 4326TIP3    H234394   2.593   0.503   2.644  0.2160  1.3064 -2.0410
 4327TIP3   OH234395   1.751   3.811   3.515  0.5484  0.0677 -0.3347
 4327TIP3    H134396   1.846   3.817   3.513  0.7486 -2.7897 -1.2871
 4327TIP3    H234397   1.728   3.754   3.442 -1.8176 -0.2094  0.5591
 4328TIP3   OH234398   2.677   3.562  17.053 -0.1569 -0.0433 -0.3057
 4328TIP3    H134399   2.667   3.474  17.018 -0.2558 -0.3593  0.5078
 4328TIP3    H234400   2.772   3.573  17.065  0.0526  0.8264 -2.5871
 4329TIP3   OH234401   6.407   5.479  16.579 -0.2961  0.2104  0.4083
 4329TIP3    H134402   6.383   5.434  16.499 -1.8992  0.0935  0.9470
 4329TIP3    H234403   6.483   5.430  16.612 -0.6373 -0.7265 -0.1899
 4330TIP3   OH234404   1.980   5.750   4.865  0.5405 -0.0569  0.1558
 4330TIP3    H134405   2.012   5.812   4.931  0.4292  1.3535 -1.0686
 4330TIP3    H234406   2.058   5.716   4.823  0.5645  0.6054 -0.3527
 4331TIP3   OH234407   4.414   0.390   1.817  0.0305 -0.1031  0.1108
 4331TIP3    H134408   4.364   0.341   1.751  1.0806  0.0035 -0.7823
 4331TIP3    H234409   4.480   0.437   1.766  1.6964 -1.0570  1.3464
 4332TIP3   OH234410   3.614   1.894  15.002 -0.5789 -0.4561  0.0938
 4332TIP3    H134411   3.670   1.830  15.046 -0.1488 -0.7539 -0.8668
 4332TIP3    H234412   3.578   1.947  15.073  1.7310  0.3844  0.6825
 4333TIP3   OH234413   3.117   5.429  13.186  0.4006 -0.1143 -0.3919
 4333TIP3    H134414   3.061   5.498  13.222  2.1681  1.5809 -0.8301
 4333TIP3    H234415   3.181   5.412  13.255  1.0009 -0.1280 -0.9530
 4334TIP3   OH234416   1.406   2.803   2.676 -0.0563  0.1522 -0.2041
 4334TIP3    H134417   1.364   2.769   2.754 -2.0063  0.5575 -1.0356
 4334TIP3    H234418   1.351   2.877   2.650  1.1867  0.6975 -1.3312
 4335TIP3   OH234419   2.861   0.179  13.817  0.7935  0.0618 -0.0551
 4335TIP3    H134420   2.791   0.226  13.864  0.9853  1.1252 -0.8318
 4335TIP3    H234421   2.814   0.122  13.756  0.5794 -0.3353  0.4670
 4336TIP3   OH234422   6.497   6.621   2.515 -0.4392  0.1757  0.3755
 4336TIP3    H134423   6.515   6.597   2.424 -1.8786  2.5701 -0.5792
 4336TIP3    H234424   6.465   6.540   2.555 -0.7624 -0.6611 -1.5255
 4337TIP3   OH234425   3.385   1.870  13.611  0.2349  0.4249  0.0848
 4337TIP3    H134426   3.426   1.814  13.677 -0.0277 -0.3042 -0.3606
 4337TIP3    H234427   3.456   1.925  13.579  0.3855  0.6993  0.8934
 4338TIP3   OH234428   4.121   3.652  14.139 -0.6683  0.1947 -0.5624
 4338TIP3    H134429   4.157   3.741  14.135  1.0333 -0.3826  0.9587
 4338TIP3    H234430   4.031   3.664  14.169  0.3614  1.2591  2.2670
 4339TIP3   OH234431   6.317   0.415   0.635 -0.4990 -0.2143 -0.3048
 4339TIP3    H134432   6.282   0.326   0.631 -0.1222 -0.4308  1.1926
 4339TIP3    H234433   6.371   0.416   0.714  0.5946  0.9458 -1.0568
 4340TIP3   OH234434   2.693   4.368  12.655 -0.0070  0.6534 -0.2506
 4340TIP3    H134435   2.763   4.347  12.717  0.2000 -1.6506 -1.2238
 4340TIP3    H234436   2.740   4.401  12.578 -0.0088 -0.6453 -0.8071
 4341TIP3   OH234437   3.516   3.651   4.978 -0.7573 -0.2445  0.5060
 4341TIP3    H134438   3.484   3.578   4.925  1.0848 -0.3814 -0.4943
 4341TIP3    H234439   3.529   3.613   5.065 -0.1531 -1.0554  0.0833
 4342TIP3   OH234440   3.291   5.762   2.639 -0.0916 -0.3754  0.2670
 4342TIP3    H134441   3.281   5.724   2.552  3.0062 -1.0574  0.1698
 4342TIP3    H234442   3.221   5.828   2.644 -1.3902 -1.5197 -2.0479
 4343TIP3   OH234443   4.069   5.172   3.300  0.1228  0.3634 -0.0476
 4343TIP3    H134444   4.004   5.123   3.250  0.4824 -1.0821  0.8653
 4343TIP3    H234445   4.031   5.182   3.387  1.1761 -0.6349  0.5422
 4344TIP3   OH234446   4.962   5.726  13.646 -0.6430  0.4079  0.3230
 4344TIP3    H134447   5.027   5.714  13.577 -0.2346 -0.8785  0.9172
 4344TIP3    H234448   4.879   5.737  13.599 -0.9818 -4.1872 -0.3799
 4345TIP3   OH234449   4.239   6.704  12.117  0.3686  0.1622 -0.3379
 4345TIP3    H134450   4.332   6.702  12.091 -0.1945  0.6154 -2.4901
 4345TIP3    H234451   4.192   6.680  12.038 -1.5314  3.2290 -0.2332
 4346TIP3   OH234452   2.822   5.199  14.168 -0.4979  0.4183 -0.0112
 4346TIP3    H134453   2.878   5.239  14.234 -1.1279 -0.6248  1.1807
 4346TIP3    H234454   2.754   5.264  14.151  0.0634  0.9749 -0.1771
 4347TIP3   OH234455   6.007   0.809  13.064 -0.0521 -0.0320 -0.6980
 4347TIP3    H134456   5.930   0.755  13.046  1.1876 -1.3977 -2.0053
 4347TIP3    H234457   6.082   0.750  13.051  1.2345  1.4062  0.0374
 4348TIP3   OH234458   1.088   5.299   0.124 -0.0292 -0.3523  0.2544
 4348TIP3    H134459   1.166   5.248   0.104 -0.2903 -0.7069  0.1423
 4348TIP3    H234460   1.112   5.389   0.101 -0.3471 -0.7543 -1.7476
 4349TIP3   OH234461   0.937   6.420  11.736  0.4231 -0.0329 -0.4135
 4349TIP3    H134462   0.969   6.336  11.702  1.1615  0.9338 -2.1590
 4349TIP3    H234463   1.007   6.482  11.718  0.3519  0.7814  1.8812
 4350TIP3   OH234464   3.386   2.057  11.512 -0.2459  0.0956 -0.1881
 4350TIP3    H134465   3.430   2.141  11.498  0.3743 -0.0683  0.7882
 4350TIP3    H234466   3.456   1.992  11.505 -0.7645 -0.3681 -1.1999
 4351TIP3   OH234467   2.465   3.962   5.300 -0.3029  0.3627 -0.4567
 4351TIP3    H134468   2.542   4.017   5.287  0.6872 -1.0637 -0.7404
 4351TIP3    H234469   2.433   3.943   5.212  0.0104 -0.4159 -0.4041
 4352TIP3   OH234470   2.617   5.975   0.307 -0.1210  0.5392 -0.6000
 4352TIP3    H134471   2.677   5.902   0.321 -1.7762 -1.0177 -1.3761
 4352TIP3    H234472   2.600   6.010   0.394  0.3376 -0.3134 -0.1663
 4353TIP3   OH234473   0.181   3.215   0.449  0.4389  0.0580 -0.1527
 4353TIP3    H134474   0.256   3.165   0.481 -0.4606 -1.3973 -0.3064
 4353TIP3    H234475   0.140   3.249   0.529  0.2476 -0.5941  0.0240
 4354TIP3   OH234476   6.475   2.963   5.244 -0.2569  0.2723 -0.3625
 4354TIP3    H134477   6.384   2.986   5.262  0.0119  2.1834 -1.2382
 4354TIP3    H234478   6.472   2.907   5.166 -0.7437 -0.4547  0.1770
 4355TIP3   OH234479   2.090   5.563   2.667 -0.7335  0.5826  0.2571
 4355TIP3    H134480   2.016   5.506   2.645 -1.5164  1.4790  0.5031
 4355TIP3    H234481   2.064   5.604   2.749 -0.3139  1.5109 -0.0707
 4356TIP3   OH234482   0.735   5.337   4.743 -0.0001  0.1127 -0.5474
 4356TIP3    H134483   0.684   5.304   4.669 -1.1827  1.2109 -0.2516
 4356TIP3    H234484   0.708   5.281   4.816  0.0326 -0.0034 -0.6239
 4357TIP3   OH234485   2.899   2.541  14.308 -0.4731 -0.4297 -0.2425
 4357TIP3    H134486   2.858   2.518  14.391 -1.7297 -0.9926 -1.0069
 4357TIP3    H234487   2.992   2.522  14.321 -0.7539 -1.1276  0.8190
 4358TIP3   OH234488   3.775   5.275   0.535  0.5454  0.1887  0.3103
 4358TIP3    H134489   3.820   5.211   0.480 -0.3355 -0.3835  0.2398
 4358TIP3    H234490   3.779   5.357   0.486 -1.0234 -0.5252 -1.0234
 4359TIP3   OH234491   1.051   1.138  15.306  0.1448 -0.0642 -0.7092
 4359TIP3    H134492   0.972   1.166  15.259 -0.4054  2.3036  1.5506
 4359TIP3    H234493   1.087   1.218  15.342  1.9832 -1.5151  0.7636
 4360TIP3   OH234494   6.322   4.875  12.656 -0.3576 -0.3833 -0.2615
 4360TIP3    H134495   6.280   4.791  12.676  1.2485 -1.3258 -0.6989
 4360TIP3    H234496   6.345   4.869  12.563  0.2180  0.3298 -0.1719
 4361TIP3   OH234497   1.214   5.713   2.623  0.0762  0.0118 -0.7231
 4361TIP3    H134498   1.239   5.717   2.530  1.9290  0.8548 -0.2126
 4361TIP3    H234499   1.120   5.694   2.621 -0.1147  0.9611 -2.7843
 4362TIP3   OH234500   2.752   4.922  14.658  0.0823 -0.1338 -0.3211
 4362TIP3    H134501   2.798   4.897  14.577 -0.6021 -1.5450 -0.2745
 4362TIP3    H234502   2.676   4.971  14.628 -0.0630 -0.4828 -0.5233
 4363TIP3   OH234503   3.914   3.017   3.503  0.3545 -0.8698 -0.8092
 4363TIP3    H134504   3.871   3.091   3.546 -0.4204 -2.1114  0.5950
 4363TIP3    H234505   4.004   3.020   3.533 -0.0896 -1.4901  0.6182
 4364TIP3   OH234506   6.251   3.303   5.470  0.1481 -0.2683  0.0940
 4364TIP3    H134507   6.333   3.261   5.441  0.1689 -1.4458  1.7552
 4364TIP3    H234508   6.270   3.331   5.560 -0.6541  1.2212 -0.1922
 4365TIP3   OH234509   0.499   1.214   5.513 -0.0755  0.2379 -0.4205
 4365TIP3    H134510   0.563   1.208   5.442 -0.0654  0.0146 -0.3949
 4365TIP3    H234511   0.470   1.305   5.512  0.0258  0.2687 -0.6234
 4366TIP3   OH234512   1.527   3.364  11.441 -0.2012  0.3786  0.3266
 4366TIP3    H134513   1.553   3.311  11.516  0.4582 -0.8108 -0.7340
 4366TIP3    H234514   1.520   3.453  11.476  0.9887 -0.0151  1.5906
 4367TIP3   OH234515   1.946   3.845  15.775  0.0339  0.2757  0.1053
 4367TIP3    H134516   1.983   3.922  15.818  1.8396 -0.0252 -0.8412
 4367TIP3    H234517   1.923   3.876  15.687 -0.8019  0.1403  0.2757
 4368TIP3   OH234518   1.238   5.339  16.064 -0.0208 -0.0505  0.1168
 4368TIP3    H134519   1.292   5.326  16.142 -2.2841 -2.9515  1.2855
 4368TIP3    H234520   1.154   5.372  16.098 -0.5957 -0.1161 -1.2019
 4369TIP3   OH234521   2.866   4.729  15.371  0.5699 -0.1756 -0.4784
 4369TIP3    H134522   2.855   4.740  15.276  1.2954 -0.7465 -0.6274
 4369TIP3    H234523   2.959   4.711  15.383  1.1643  3.1983  0.6650
 4370TIP3   OH234524   2.811   6.018  15.886 -0.6999  0.1837 -0.3304
 4370TIP3    H134525   2.826   6.096  15.940 -0.0141 -1.2602  1.6465
 4370TIP3    H234526   2.890   6.010  15.833 -0.1236  0.0146  0.5396
 4371TIP3   OH234527   2.088   3.450   2.990 -0.5591 -0.4207  0.2667
 4371TIP3    H134528   2.006   3.478   3.030 -1.0346  0.1033 -1.0437
 4371TIP3    H234529   2.066   3.369   2.944 -0.3487 -0.2718 -0.1018
 4372TIP3   OH234530   5.307   0.190  14.418 -0.0291 -0.3711 -0.6913
 4372TIP3    H134531   5.262   0.271  14.394 -1.3331 -0.9881 -0.3721
 4372TIP3    H234532   5.277   0.172  14.507  1.6959 -0.2187 -0.0652
 4373TIP3   OH234533   3.027   1.168   4.406 -1.0194 -0.5012  0.3221
 4373TIP3    H134534   2.985   1.254   4.397  1.2387  0.5551 -0.6371
 4373TIP3    H234535   2.991   1.117   4.333 -1.2122  0.1427 -0.0416
 4374TIP3   OH234536   0.395   3.729   4.075  0.2639  0.4516  0.3451
 4374TIP3    H134537   0.436   3.731   4.162 -1.1299  1.0131  1.0032
 4374TIP3    H234538   0.467   3.711   4.015  1.2578  0.1414  1.6144
 4375TIP3   OH234539   3.689   4.525   1.540  0.2187  0.7936 -0.3150
 4375TIP3    H134540   3.742   4.586   1.490  0.1060 -0.4308 -1.9554
 4375TIP3    H234541   3.723   4.533   1.630  1.1395  2.2153 -0.7731
 4376TIP3   OH234542   2.037   4.653  14.362 -0.4791 -0.0222 -0.0749
 4376TIP3    H134543   2.108   4.718  14.352 -0.4926  0.1308  0.8212
 4376TIP3    H234544   1.969   4.700  14.411 -0.6911 -0.5593  0.1418
 4377TIP3   OH234545   5.824   1.814   4.064 -0.4907  0.0624 -0.2869
 4377TIP3    H134546   5.761   1.766   4.012 -1.3304  1.0983 -0.2462
 4377TIP3    H234547   5.771   1.868   4.123  0.4293 -0.8981  1.4661
 4378TIP3   OH234548   1.094   0.126  15.440 -0.4644 -0.1509 -0.4500
 4378TIP3    H134549   1.098   0.068  15.516  2.8695 -0.3378 -0.6969
 4378TIP3    H234550   1.155   0.197  15.460 -0.6658  0.5881 -2.3129
 4379TIP3   OH234551   4.930   1.936  15.927  0.0637  0.3979 -0.3042
 4379TIP3    H134552   4.872   1.911  15.999 -0.8890 -1.5994 -1.6945
 4379TIP3    H234553   4.891   2.016  15.892  0.3409  1.1919  1.1587
 4380TIP3   OH234554   2.456   6.312   1.154  0.5382  0.5718  0.4334
 4380TIP3    H134555   2.460   6.405   1.134 -2.2217  0.5991 -0.1666
 4380TIP3    H234556   2.445   6.308   1.249  0.4978  0.8604  0.4397
 4381TIP3   OH234557   4.354   1.392  11.859 -0.2108  0.1103 -0.5194
 4381TIP3    H134558   4.361   1.461  11.925 -2.1408  1.2627 -1.4802
 4381TIP3    H234559   4.264   1.361  11.866 -0.2001 -0.3035 -2.0419
 4382TIP3   OH234560   5.245   6.477  15.256 -0.0700 -0.4678  0.2106
 4382TIP3    H134561   5.269   6.569  15.269 -0.2139 -0.6490  1.8629
 4382TIP3    H234562   5.149   6.477  15.260 -0.0648 -0.7070  0.3341
 4383TIP3   OH234563   2.627   2.663  11.293 -0.6742  0.1267  0.3569
 4383TIP3    H134564   2.582   2.581  11.273 -1.3135  0.9208 -1.4805
 4383TIP3    H234565   2.676   2.684  11.214  1.3006  0.3661  1.6037
 4384TIP3   OH234566   1.064   5.898  11.365 -0.1353  0.0390 -0.1126
 4384TIP3    H134567   0.976   5.936  11.364 -0.5602 -0.8927  1.6969
 4384TIP3    H234568   1.115   5.958  11.419 -0.1280 -0.4769  0.4479
 4385TIP3   OH234569   3.560   0.885   3.249  0.3175  0.3114  0.0951
 4385TIP3    H134570   3.587   0.797   3.275 -1.9394 -0.0937  1.2217
 4385TIP3    H234571   3.543   0.878   3.155 -3.3425 -1.4699  0.7983
 4386TIP3   OH234572   4.158   3.283  14.103  0.1071 -0.2570  0.5918
 4386TIP3    H134573   4.161   3.210  14.042  0.5122  0.7519 -0.5944
 4386TIP3    H234574   4.069   3.317  14.096 -0.1650 -0.7819  1.3412
 4387TIP3   OH234575   3.773   6.190  10.299 -0.4436  0.1119  0.1539
 4387TIP3    H134576   3.781   6.230  10.386  1.4219  1.0336 -0.4091
 4387TIP3    H234577   3.844   6.125  10.296 -2.4448 -2.1787  0.4605
 4388TIP3   OH234578   4.537   2.904  13.231 -0.4061  0.3401 -0.4272
 4388TIP3    H134579   4.528   2.941  13.319  1.2447 -0.2364  0.0005
 4388TIP3    H234580   4.606   2.956  13.191  1.9050 -2.1995  0.1599
 4389TIP3   OH234581   2.173   2.729  15.904 -0.4571 -0.3682  0.5162
 4389TIP3    H134582   2.204   2.779  15.979  2.2898  1.2140 -1.5724
 4389TIP3    H234583   2.209   2.641  15.916 -1.2738 -0.5419  1.7694
 4390TIP3   OH234584   6.503   6.029  15.106 -0.0472  0.1639  0.4020
 4390TIP3    H134585   6.558   6.080  15.046  1.4953 -1.0253  0.7706
 4390TIP3    H234586   6.536   6.049  15.193 -0.1645 -0.5837  0.6272
 4391TIP3   OH234587   0.877   3.756   3.097 -0.1277 -0.1923 -0.0030
 4391TIP3    H134588   0.947   3.707   3.055 -0.4853  0.4499 -1.3746
 4391TIP3    H234589   0.919   3.835   3.130 -0.4055  0.7703 -1.8898
 4392TIP3   OH234590   2.279   6.165  15.756  0.4603  0.3558 -0.6413
 4392TIP3    H134591   2.269   6.205  15.670  1.7119 -0.1820 -1.0478
 4392TIP3    H234592   2.277   6.238  15.817 -0.8263  0.7130 -1.0763
 4393TIP3   OH234593   5.664   2.478   4.445  0.0598 -0.3953  0.6893
 4393TIP3    H134594   5.608   2.537   4.495 -1.1707 -1.2487  0.3309
 4393TIP3    H234595   5.604   2.421   4.397  1.2175 -1.7381  0.7793
 4394TIP3   OH234596   2.528   6.024  16.760 -0.5305 -0.0454 -0.0492
 4394TIP3    H134597   2.508   5.974  16.839  1.1557 -0.6878 -0.0126
 4394TIP3    H234598   2.590   6.091  16.788  0.2047 -0.3735 -0.8409
 4395TIP3   OH234599   6.320   5.752  12.139  0.3510 -0.0152 -0.5032
 4395TIP3    H134600   6.390   5.687  12.151 -0.0495 -0.4924 -0.7133
 4395TIP3    H234601   6.345   5.825  12.195  0.9024 -0.2790 -0.4026
 4396TIP3   OH234602   3.876   4.926  12.112 -0.1166  0.7698 -0.5596
 4396TIP3    H134603   3.906   4.876  12.036 -0.1024  0.2931 -0.2377
 4396TIP3    H234604   3.832   5.002  12.074 -1.4003 -0.2137 -1.0828
 4397TIP3   OH234605   4.155   1.944   0.091 -0.6999 -0.9192  0.1763
 4397TIP3    H134606   4.160   1.863   0.040 -0.4169 -1.8918  1.6870
 4397TIP3    H234607   4.216   1.930   0.163 -0.2306  0.8842  0.1496
 4398TIP3   OH234608   6.272   0.877  15.766  0.0222 -0.3925  0.1984
 4398TIP3    H134609   6.222   0.954  15.741 -0.0769 -0.3540  0.5066
 4398TIP3    H234610   6.328   0.858  15.691 -0.8557 -0.7733 -0.3629
 4399TIP3   OH234611   0.173   4.660  15.170 -0.2346  0.1915  0.0808
 4399TIP3    H134612   0.211   4.676  15.257  1.7922  1.8094 -1.0526
 4399TIP3    H234613   0.232   4.705  15.110 -1.6124 -0.9191 -2.1545
 4400TIP3   OH234614   2.186   2.262  15.030  0.7459  0.3511  0.0378
 4400TIP3    H134615   2.146   2.307  14.956  0.6339  0.0680 -0.0739
 4400TIP3    H234616   2.208   2.332  15.092  0.3916  0.5385 -0.0477
 4401TIP3   OH234617   3.251   5.890   4.910  0.0472  0.5965  0.1883
 4401TIP3    H134618   3.340   5.899   4.945  1.5065 -2.6918 -2.4481
 4401TIP3    H234619   3.240   5.964   4.851  0.3015  1.9994  1.8368
 4402TIP3   OH234620   1.460   3.551   4.394 -0.4978  0.1760  0.0386
 4402TIP3    H134621   1.389   3.559   4.457 -0.6593 -0.8480 -0.0004
 4402TIP3    H234622   1.520   3.622   4.415  0.0747 -0.8906  2.1478
 4403TIP3   OH234623   5.268   2.182  14.017 -0.0167  0.7726  0.5839
 4403TIP3    H134624   5.228   2.096  14.006  0.2590  0.5143  1.5323
 4403TIP3    H234625   5.201   2.234  14.061  0.2448  0.6821  1.1022
 4404TIP3   OH234626   6.739   5.570   4.347 -0.3677  0.4154 -0.2475
 4404TIP3    H134627   6.737   5.661   4.374 -0.6290  0.3545 -0.0548
 4404TIP3    H234628   6.741   5.520   4.429 -2.5138  0.2035 -0.2984
 4405TIP3   OH234629   3.089   0.561   2.206 -0.2658 -0.1466 -0.3621
 4405TIP3    H134630   3.002   0.583   2.171  0.2840  1.1861 -0.9026
 4405TIP3    H234631   3.073   0.484   2.261 -1.6372 -0.4934 -1.1993
 4406TIP3   OH234632   4.880   3.713  12.504  0.2571 -0.4639  0.7818
 4406TIP3    H134633   4.902   3.621  12.488 -1.8661 -0.7934 -0.3286
 4406TIP3    H234634   4.937   3.762  12.445 -1.0806 -1.2459 -1.2040
 4407TIP3   OH234635   3.796   0.698  12.218 -0.4638 -0.7400  0.3780
 4407TIP3    H134636   3.768   0.784  12.250 -1.6993 -0.6538 -0.9024
 4407TIP3    H234637   3.719   0.642  12.231 -0.5184 -1.0295 -1.1583
 4408TIP3   OH234638   1.510   3.801   2.590  0.1809  0.1540 -0.9956
 4408TIP3    H134639   1.435   3.844   2.550 -0.0699  0.5131 -0.1538
 4408TIP3    H234640   1.517   3.717   2.544 -0.5619  0.2430 -1.2762
 4409TIP3   OH234641   0.662   6.060   3.653 -0.0604  0.0730  0.5909
 4409TIP3    H134642   0.591   6.081   3.714  0.4382 -0.2363  1.2797
 4409TIP3    H234643   0.618   6.019   3.578 -0.4598 -1.4469  1.6432
 4410TIP3   OH234644   3.665   2.829  12.908  0.2806  0.0302  0.6017
 4410TIP3    H134645   3.688   2.843  13.000 -0.6249 -0.9880  0.9821
 4410TIP3    H234646   3.577   2.867  12.900 -0.2467 -1.2060  0.5132
 4411TIP3   OH234647   5.031   3.372   1.130 -0.2518 -0.1271 -0.4132
 4411TIP3    H134648   4.940   3.379   1.160 -0.7069 -1.5308 -1.4283
 4411TIP3    H234649   5.061   3.287   1.165  0.2541 -0.2580 -1.1652
 4412TIP3   OH234650   2.625   5.060   6.056  0.7547 -0.2526 -0.0922
 4412TIP3    H134651   2.645   5.097   6.142 -1.6240  0.2451  0.2843
 4412TIP3    H234652   2.589   5.134   6.006  1.7711 -0.6201 -1.4142
 4413TIP3   OH234653   2.857   5.097   1.507 -0.3650 -0.3993  0.2460
 4413TIP3    H134654   2.905   5.149   1.571 -0.2839  0.4550 -0.4871
 4413TIP3    H234655   2.908   5.017   1.496  0.0794 -0.1596  0.5959
 4414TIP3   OH234656   0.955   0.731   1.576  0.1252  0.1466 -0.0465
 4414TIP3    H134657   1.038   0.778   1.582 -1.2234  2.5948  0.0579
 4414TIP3    H234658   0.947   0.708   1.484  0.6959  0.2863 -0.1360
 4415TIP3   OH234659   5.758   2.808   4.247  0.3634 -0.3067  0.0678
 4415TIP3    H134660   5.697   2.815   4.173  1.4750  1.0701 -0.7504
 4415TIP3    H234661   5.809   2.889   4.243  0.5884 -0.3327  2.2282
 4416TIP3   OH234662   4.596   0.596  14.805 -0.3630  0.1273  0.0433
 4416TIP3    H134663   4.595   0.686  14.839  1.2642  0.3106 -0.3246
 4416TIP3    H234664   4.685   0.586  14.770 -0.5762 -1.5959 -0.0061
 4417TIP3   OH234665   2.215   3.220  13.365  0.3267 -0.0546  0.0263
 4417TIP3    H134666   2.233   3.282  13.435 -1.0544  1.6415 -1.0949
 4417TIP3    H234667   2.295   3.219  13.313 -0.0533  1.6433 -0.5980
 4418TIP3   OH234668   1.863   3.145   2.684  0.4804 -0.6089  0.5554
 4418TIP3    H134669   1.957   3.127   2.679  1.1319  2.5980  0.4731
 4418TIP3    H234670   1.855   3.239   2.669 -2.7316 -0.7494  0.9354
 4419TIP3   OH234671   4.389   5.904   3.281 -0.2632 -0.1269  0.5166
 4419TIP3    H134672   4.478   5.903   3.247 -0.4587 -0.9409  0.0061
 4419TIP3    H234673   4.394   5.854   3.363 -0.1522  0.2605  0.7468
 4420TIP3   OH234674   6.733   0.222  14.924  0.7007  0.2775 -0.2278
 4420TIP3    H134675   6.770   0.241  14.838  0.6079  1.1135 -0.0816
 4420TIP3    H234676   6.713   0.308  14.962 -0.4912 -0.1312  0.0902
 4421TIP3   OH234677   0.608   4.256   4.504 -0.1686 -0.0946  0.3221
 4421TIP3    H134678   0.667   4.224   4.435  0.1707 -0.5190  0.7989
 4421TIP3    H234679   0.594   4.348   4.483 -1.2835 -0.5769 -1.1759
 4422TIP3   OH234680   0.353   2.596  11.491  0.6358  0.3307 -0.4172
 4422TIP3    H134681   0.414   2.557  11.553  1.1366  0.4974 -0.8014
 4422TIP3    H234682   0.390   2.683  11.472  0.2441  0.4612 -0.5962
 4423TIP3   OH234683   5.927   0.325  13.928 -0.3687 -0.2200  0.3392
 4423TIP3    H134684   5.954   0.407  13.969 -0.1411  0.1304 -0.4987
 4423TIP3    H234685   5.993   0.261  13.955  0.2773  0.2156 -0.2202
 4424TIP3   OH234686   6.298   4.194   1.244  0.0882  0.0164  0.6291
 4424TIP3    H134687   6.318   4.116   1.295 -0.4041 -0.1802  0.5225
 4424TIP3    H234688   6.285   4.163   1.155 -1.6803 -0.0071  0.8810
 4425TIP3   OH234689   3.045   3.012  13.876  0.7508 -0.4233 -0.1889
 4425TIP3    H134690   3.044   3.085  13.813 -1.2787 -0.0082  0.2701
 4425TIP3    H234691   3.115   2.955  13.845  0.2344  0.1032 -2.4507
 4426TIP3   OH234692   6.659   1.999  11.321 -0.7379 -0.2523 -0.7657
 4426TIP3    H134693   6.640   1.924  11.263 -0.2795 -2.4502  1.8493
 4426TIP3    H234694   6.597   1.990  11.393 -0.3527  1.6538 -0.1707
 4427TIP3   OH234695   2.777   3.459  14.085  0.1938  0.0572 -0.1117
 4427TIP3    H134696   2.689   3.423  14.074  0.3757 -0.3074 -0.3779
 4427TIP3    H234697   2.815   3.409  14.157 -0.3808  1.2868  1.0606
 4428TIP3   OH234698   2.101   2.886   0.837  0.0394  0.2352  0.7104
 4428TIP3    H134699   2.010   2.912   0.850 -0.5797 -1.3116 -0.4681
 4428TIP3    H234700   2.151   2.961   0.868 -1.5777  0.2822  3.3195
 4429TIP3   OH234701   2.260   1.372   4.931 -0.0311  0.0329  0.1007
 4429TIP3    H134702   2.344   1.391   4.888 -0.5175  1.1821 -0.3733
 4429TIP3    H234703   2.223   1.299   4.881  1.0549 -1.0226  0.8223
 4430TIP3   OH234704   4.111   0.562  10.712 -0.0523  0.2111  0.0279
 4430TIP3    H134705   4.134   0.597  10.625 -0.8578  0.0759 -0.2477
 4430TIP3    H234706   4.055   0.486  10.693 -0.3024  0.2329  0.6687
 4431TIP3   OH234707   6.105   6.706  13.114 -0.0783  0.1023 -0.2451
 4431TIP3    H134708   6.032   6.756  13.152  0.0890  0.2952 -0.1794
 4431TIP3    H234709   6.183   6.751  13.144  0.0830 -0.3965  0.0941
 4432TIP3   OH234710   4.645   6.498   3.232  0.0777  0.1292 -0.2068
 4432TIP3    H134711   4.662   6.592   3.232  0.4942  0.0544 -0.8435
 4432TIP3    H234712   4.575   6.486   3.296 -0.3669  0.9445 -0.5350
 4433TIP3   OH234713   1.850   0.583  14.783 -0.0952  0.5504 -0.4329
 4433TIP3    H134714   1.845   0.492  14.753 -0.7762  0.0881  1.0300
 4433TIP3    H234715   1.772   0.625  14.747 -0.8183  0.0412  0.4972
 4434TIP3   OH234716   6.225   3.041  14.431  0.1430 -0.5101 -0.6845
 4434TIP3    H134717   6.293   2.985  14.471 -0.1113 -0.8201 -0.6814
 4434TIP3    H234718   6.266   3.127  14.423  0.6136 -0.7520 -0.8871
 4435TIP3   OH234719   5.982   5.767   0.484  0.0338  0.2639  0.3356
 4435TIP3    H134720   6.026   5.807   0.410  0.8570 -1.5292 -0.1788
 4435TIP3    H234721   6.024   5.681   0.493 -2.4358 -0.9524  0.6796
 4436TIP3   OH234722   5.229   0.343   0.111 -0.1386 -0.1363  0.0673
 4436TIP3    H134723   5.310   0.354   0.160  0.3890  0.6372 -0.9595
 4436TIP3    H234724   5.252   0.366   0.021 -1.6192  0.6213 -0.1412
 4437TIP3   OH234725   3.021   1.481   3.833 -0.4185 -0.1794  0.1849
 4437TIP3    H134726   3.079   1.455   3.905 -2.1279 -0.9643  1.3002
 4437TIP3    H234727   3.001   1.573   3.850 -0.6729 -0.3126  0.5927
 4438TIP3   OH234728   1.880   0.075   2.156 -0.4711 -0.3993  0.3021
 4438TIP3    H134729   1.816   0.063   2.226  0.2400 -0.2578  0.9804
 4438TIP3    H234730   1.964   0.085   2.201  0.0687 -0.8133 -0.5830
 4439TIP3   OH234731   3.809   6.002   2.279  0.0375 -0.3810  0.4752
 4439TIP3    H134732   3.815   5.943   2.354  3.9009 -0.7507 -0.0365
 4439TIP3    H234733   3.816   5.945   2.203 -0.2713  0.3517 -0.1100
 4440TIP3   OH234734   5.822   3.290  16.552 -0.5634 -0.3507  0.4333
 4440TIP3    H134735   5.815   3.245  16.468  2.2348  2.1043 -1.1880
 4440TIP3    H234736   5.831   3.219  16.616 -3.3599 -2.2737 -1.1956
 4441TIP3   OH234737   1.457   3.068  12.109 -0.1581  0.6794 -0.0788
 4441TIP3    H134738   1.390   3.023  12.057  0.9768 -0.6064 -0.4611
 4441TIP3    H234739   1.466   3.014  12.188  1.9535 -0.3659 -1.0098
 4442TIP3   OH234740   5.811   2.128  14.443 -0.1509  0.0813 -0.0918
 4442TIP3    H134741   5.849   2.094  14.524 -1.3696  1.6442  1.1890
 4442TIP3    H234742   5.748   2.194  14.472  0.3228  1.6195 -2.3640
 4443TIP3   OH234743   0.810   5.176  11.474  0.1358  0.1203  0.4062
 4443TIP3    H134744   0.803   5.156  11.381  0.4194 -1.4392  0.6971
 4443TIP3    H234745   0.882   5.120  11.505  1.0992  1.7906  1.2364
 4444TIP3   OH234746   3.941   0.247  12.266 -0.5432 -0.7600  0.2664
 4444TIP3    H134747   3.992   0.329  12.267 -0.0212 -1.0845  0.2522
 4444TIP3    H234748   3.911   0.239  12.176  0.2102 -1.0804  0.0433
 4445TIP3   OH234749   3.907   0.323   2.264 -0.5694 -0.4392 -0.0977
 4445TIP3    H134750   3.924   0.284   2.350 -1.2024  0.1638  0.3078
 4445TIP3    H234751   3.846   0.263   2.222  0.7965 -1.4491 -0.6769
 4446TIP3   OH234752   2.006   2.189   1.461  0.1867 -0.1300  0.2019
 4446TIP3    H134753   1.999   2.100   1.494 -0.0146 -0.4182 -0.6130
 4446TIP3    H234754   1.937   2.237   1.507 -1.0592 -0.8534 -0.8680
 4447TIP3   OH234755   2.038   2.800   4.022  0.4486 -0.0303 -0.1709
 4447TIP3    H134756   2.108   2.819   3.960  0.2357 -0.9539 -0.7090
 4447TIP3    H234757   2.084   2.779   4.104  0.7426  0.8164 -0.1194
 4448TIP3   OH234758   5.566   2.404   1.417  0.0567 -0.7631 -0.0299
 4448TIP3    H134759   5.573   2.460   1.340  0.6165 -0.2085  0.4157
 4448TIP3    H234760   5.486   2.432   1.460 -0.4412 -1.3099 -0.5924
 4449TIP3   OH234761   2.979   2.681   4.889  0.1478 -0.0101 -0.3951
 4449TIP3    H134762   3.032   2.614   4.846 -1.5621 -2.2053  0.8121
 4449TIP3    H234763   3.009   2.680   4.980 -1.0653 -0.3884  0.0139
 4450TIP3   OH234764   0.169   4.915   1.658  0.1742 -0.4562  0.4198
 4450TIP3    H134765   0.168   4.900   1.753  3.4433 -0.3940  0.5323
 4450TIP3    H234766   0.235   4.984   1.646 -3.0872  2.4554 -1.5569
 4451TIP3   OH234767   6.274   5.055  11.485 -0.0226 -0.2912 -0.7556
 4451TIP3    H134768   6.363   5.088  11.486  0.4178 -1.4871  0.1639
 4451TIP3    H234769   6.220   5.133  11.500  0.9307  0.2448 -0.0087
 4452TIP3   OH234770   1.579   5.620  14.812 -0.3458  0.1414  0.2714
 4452TIP3    H134771   1.516   5.673  14.762 -0.6722 -0.9240 -0.4522
 4452TIP3    H234772   1.584   5.663  14.897  0.7169  2.3839 -0.8703
 4453TIP3   OH234773   1.859   1.027   5.964  0.0237  0.0098  0.2054
 4453TIP3    H134774   1.772   1.000   5.937 -0.2745  0.2866  0.8905
 4453TIP3    H234775   1.875   0.981   6.046  1.2084 -1.3596 -0.7619
 4454TIP3   OH234776   4.770   3.288  16.576  0.2298 -0.3236  0.7157
 4454TIP3    H134777   4.832   3.317  16.509 -0.4885 -1.5220 -0.4864
 4454TIP3    H234778   4.823   3.284  16.656  0.9392  1.7666  0.3908
 4455TIP3   OH234779   0.013   3.801   5.939 -0.3247 -0.5114  0.0063
 4455TIP3    H134780  -0.063   3.750   5.910 -0.8076 -0.6804  1.5358
 4455TIP3    H234781   0.060   3.743   5.999 -0.6590  0.6911  1.4638
 4456TIP3   OH234782   6.696   5.150  15.339  0.0680 -0.4483  0.0024
 4456TIP3    H134783   6.720   5.243  15.339 -0.6721 -0.2527  0.0912
 4456TIP3    H234784   6.634   5.141  15.267 -2.0790 -0.2736  1.7713
 4457TIP3   OH234785   3.464   0.203   5.169 -0.1992 -0.6522 -0.0078
 4457TIP3    H134786   3.384   0.255   5.174  0.9572  1.1267  0.6886
 4457TIP3    H234787   3.448   0.129   5.227 -0.8937  0.3362  1.0837
 4458TIP3   OH234788   1.318   0.910   1.773  0.0882  0.3942 -0.0193
 4458TIP3    H134789   1.257   0.837   1.788  0.3038  0.2557  0.1929
 4458TIP3    H234790   1.405   0.870   1.780  0.2646  1.2352  3.0842
 4459TIP3   OH234791   2.168   0.392  12.958 -0.9587 -0.7074 -0.0493
 4459TIP3    H134792   2.074   0.404  12.948 -0.9122 -0.8083 -0.6273
 4459TIP3    H234793   2.179   0.364  13.048 -1.3929  0.2866  0.3176
 4460TIP3   OH234794   0.049   5.335  11.545  0.2369 -0.1985  0.2263
 4460TIP3    H134795   0.140   5.360  11.561  0.3498  1.0607 -2.2031
 4460TIP3    H234796   0.053   5.278  11.468 -1.1869  1.4243 -1.0889
 4461TIP3   OH234797   0.617   1.453   0.658  0.4388  0.3123  0.6434
 4461TIP3    H134798   0.560   1.404   0.599  1.7062  0.9134 -1.1045
 4461TIP3    H234799   0.667   1.386   0.705  1.3541 -0.1220 -0.9196
 4462TIP3   OH234800   2.320   5.647  14.253 -0.4546 -0.1347 -0.3430
 4462TIP3    H134801   2.367   5.596  14.318  0.8888 -0.4222 -1.5167
 4462TIP3    H234802   2.280   5.582  14.195 -0.0324  0.1304 -0.9331
 4463TIP3   OH234803   1.544   0.866   4.256 -0.1301 -0.3768  0.2005
 4463TIP3    H134804   1.474   0.931   4.253  0.6262  0.4251 -4.2534
 4463TIP3    H234805   1.622   0.916   4.281 -0.0020  0.0458 -0.9732
 4464TIP3   OH234806   4.214   0.980   0.483  0.5304  0.4507 -0.7802
 4464TIP3    H134807   4.226   1.055   0.541 -0.3531  0.1652 -0.2181
 4464TIP3    H234808   4.296   0.932   0.489  1.5246  1.9409 -1.9981
 4465TIP3   OH234809   0.843   6.574  16.035 -0.2939 -0.6779 -0.0269
 4465TIP3    H134810   0.918   6.607  16.085 -0.6128 -0.1933  0.1317
 4465TIP3    H234811   0.789   6.651  16.020 -0.3784 -0.8844 -0.8092
 4466TIP3   OH234812   5.660   0.388  16.679  0.4863  0.1115 -0.2066
 4466TIP3    H134813   5.632   0.410  16.768 -0.4785 -0.7422 -0.2896
 4466TIP3    H234814   5.657   0.471  16.631  0.7347  0.5193  0.4897
 4467TIP3   OH234815   0.414   4.403  17.036  0.7395  0.5354 -0.1226
 4467TIP3    H134816   0.383   4.458  16.964 -0.8181 -0.3712 -0.1723
 4467TIP3    H234817   0.340   4.397  17.096  0.4012 -2.6158 -0.7953
 4468TIP3   OH234818   0.342   2.870  11.375  0.1778 -0.3732 -0.2399
 4468TIP3    H134819   0.356   2.845  11.283 -0.5712  1.1101 -0.7735
 4468TIP3    H234820   0.251   2.844  11.393 -0.0247  0.3013 -0.2591
 4469TIP3   OH234821   1.794   1.270  17.195 -0.0326 -0.2401  0.7368
 4469TIP3    H134822   1.887   1.283  17.174 -0.4542 -0.6351 -1.5992
 4469TIP3    H234823   1.793   1.250  17.288  2.2595 -0.4484  0.7613
 4470TIP3   OH234824   6.262   5.130  12.736  0.4618 -0.0385 -0.1012
 4470TIP3    H134825   6.166   5.132  12.729  0.6064  2.3486 -2.1740
 4470TIP3    H234826   6.286   5.043  12.703 -0.8555  0.2146 -1.8216
 4471TIP3   OH234827   1.117   1.026  14.533  0.0345  0.4646 -0.0367
 4471TIP3    H134828   1.171   0.984  14.466  0.4120  0.4195  0.2944
 4471TIP3    H234829   1.164   1.106  14.555  0.6906 -0.2537  1.2489
 4472TIP3   OH234830   5.370   1.982   4.143 -0.1015 -0.4403  0.9528
 4472TIP3    H134831   5.305   2.011   4.079  2.2444  1.8216 -0.4688
 4472TIP3    H234832   5.317   1.950   4.217 -2.8479  1.5725 -0.0411
 4473TIP3   OH234833   2.218   1.849  12.148  0.0436  0.2068  0.0543
 4473TIP3    H134834   2.187   1.813  12.232  0.7866 -1.3131 -0.2996
 4473TIP3    H234835   2.148   1.909  12.120 -2.0407 -2.2267 -0.1453
 4474TIP3   OH234836   4.469   2.146   2.582 -0.0013 -0.3003  0.1149
 4474TIP3    H134837   4.523   2.214   2.622 -0.1220  0.5790 -1.1919
 4474TIP3    H234838   4.499   2.065   2.624  2.1290  0.2031 -0.3381
 4475TIP3   OH234839   4.815   2.655   1.885 -0.7858  0.1336  0.2696
 4475TIP3    H134840   4.907   2.669   1.905 -0.8304  0.1564  0.4689
 4475TIP3    H234841   4.815   2.591   1.814 -0.5580  1.7493 -1.2132
 4476TIP3   OH234842   1.426   4.382  15.446  0.2093  0.2281 -0.1557
 4476TIP3    H134843   1.416   4.329  15.366 -0.4323  0.7676 -0.4380
 4476TIP3    H234844   1.519   4.403  15.450  0.2243  0.2948 -0.8268
 4477TIP3   OH234845   3.693   0.220  16.482 -0.0581 -0.5205 -0.3161
 4477TIP3    H134846   3.717   0.226  16.390  2.4069  1.8079  0.4396
 4477TIP3    H234847   3.706   0.308  16.517 -1.6589 -1.1845  2.1153
 4478TIP3   OH234848   5.631   5.839  14.259 -0.7074 -0.0608  0.5164
 4478TIP3    H134849   5.717   5.870  14.231 -1.3275  2.5879  1.4227
 4478TIP3    H234850   5.581   5.829  14.178 -0.0783  0.0212  0.1163
 4479TIP3   OH234851   1.550   0.661   3.738  0.4767 -0.0971  0.2633
 4479TIP3    H134852   1.624   0.694   3.687  0.8283  0.8131  1.3639
 4479TIP3    H234853   1.541   0.722   3.811 -0.6949 -0.7970  0.7206
 4480TIP3   OH234854   3.265   5.791  14.287 -0.3871 -0.2973 -0.6355
 4480TIP3    H134855   3.198   5.840  14.239 -0.4148 -0.6182 -0.9299
 4480TIP3    H234856   3.311   5.741  14.220  0.5397  0.3744 -0.5037
 4481TIP3   OH234857   3.633   2.177  11.741  0.0724 -0.0903  0.0640
 4481TIP3    H134858   3.618   2.217  11.656  0.2561 -0.9987 -0.4073
 4481TIP3    H234859   3.669   2.247  11.795 -1.3484  0.8572 -0.1942
 4482TIP3   OH234860   3.034   2.398   4.142  0.2919  0.2349 -0.1549
 4482TIP3    H134861   3.095   2.459   4.183  0.4971 -0.2039  0.2019
 4482TIP3    H234862   2.952   2.447   4.133  0.1237  0.1963  1.1563
 4483TIP3   OH234863   0.461   0.969  13.562 -0.0800  0.3044  0.0607
 4483TIP3    H134864   0.506   1.045  13.524  0.1075  1.0958  1.8310
 4483TIP3    H234865   0.373   0.973  13.526  0.0007  1.2237 -0.0481
 4484TIP3   OH234866   1.513   2.078  17.041 -0.8746  0.0618  0.5934
 4484TIP3    H134867   1.601   2.056  17.073 -0.6875 -0.2122 -0.1102
 4484TIP3    H234868   1.508   2.038  16.954 -0.8766  2.0030 -0.3157
 4485TIP3   OH234869   0.167   5.150  17.216  0.2892  0.0181  0.2123
 4485TIP3    H134870   0.074   5.148  17.197  0.2864  1.8403 -0.0796
 4485TIP3    H234871   0.173   5.145  17.311 -0.1416  0.3740  0.2609
 4486TIP3   OH234872   0.453   4.923   1.137 -0.5000 -0.2222  0.1812
 4486TIP3    H134873   0.513   4.860   1.177 -0.2064 -1.3940 -2.0344
 4486TIP3    H234874   0.469   4.915   1.043 -2.5511  1.0527 -0.3064
 4487TIP3   OH234875   4.904   6.377  15.552 -0.5975 -0.0508 -0.3127
 4487TIP3    H134876   4.916   6.410  15.462  1.2160 -1.8423 -0.7827
 4487TIP3    H234877   4.860   6.293  15.541  2.8306 -1.9979  0.1523
 4488TIP3   OH234878   0.593   5.884  16.022  0.0862  0.5401 -0.5175
 4488TIP3    H134879   0.642   5.944  16.078 -2.0991  3.0320 -1.1491
 4488TIP3    H234880   0.507   5.878  16.063 -0.7032  0.3179 -2.1594
 4489TIP3   OH234881   3.145   6.279   4.338  0.1059  0.2012 -0.0676
 4489TIP3    H134882   3.172   6.236   4.419 -0.3419  2.4863  1.3689
 4489TIP3    H234883   3.111   6.209   4.283 -0.9698 -1.2082  2.3075
 4490TIP3   OH234884   6.067   2.400  12.069  0.1799 -0.2177 -0.2229
 4490TIP3    H134885   6.114   2.341  12.128  0.5466  1.4471  1.1960
 4490TIP3    H234886   6.110   2.390  11.984  1.3584 -0.6995  0.4250
 4491TIP3   OH234887   2.111   2.884   2.813 -0.1853 -0.6429  0.5779
 4491TIP3    H134888   2.112   2.842   2.899  0.4321  0.3369  1.0607
 4491TIP3    H234889   2.027   2.929   2.809 -0.7091 -1.6458  0.1920
 4492TIP3   OH234890   3.904   0.854   0.466  0.0159  0.1993 -0.0045
 4492TIP3    H134891   3.957   0.849   0.546  0.4650 -0.2576 -0.3305
 4492TIP3    H234892   3.918   0.770   0.422 -0.7920  0.1631 -0.2152
 4493TIP3   OH234893   6.778   2.863   2.518 -1.0654  0.3453 -0.0245
 4493TIP3    H134894   6.768   2.957   2.502 -1.2919  0.1221 -1.2338
 4493TIP3    H234895   6.722   2.846   2.594  0.3387  1.4916  1.3014
 4494TIP3   OH234896   3.452   4.942  13.536  0.1665  0.0459 -0.4927
 4494TIP3    H134897   3.478   4.962  13.626 -0.9578  0.3035 -0.2096
 4494TIP3    H234898   3.506   4.868  13.511  0.3834 -0.1208  0.4561
 4495TIP3   OH234899   0.660   2.970  13.267  0.0170  0.2679 -0.3004
 4495TIP3    H134900   0.569   2.941  13.278 -0.1137  0.8718  0.2074
 4495TIP3    H234901   0.701   2.955  13.352  0.3650  0.1014 -0.4944
 4496TIP3   OH234902   1.123   0.394   6.227 -0.1626 -0.2457 -0.2172
 4496TIP3    H134903   1.158   0.394   6.138  0.6967  0.5074  0.1154
 4496TIP3    H234904   1.029   0.379   6.215 -0.0804  0.0084 -1.2667
 4497TIP3   OH234905   1.431   1.559   2.099  0.0931 -0.1109  0.1324
 4497TIP3    H134906   1.384   1.638   2.070 -0.8824 -0.2823  1.1885
 4497TIP3    H234907   1.362   1.499   2.126  0.7632 -1.8823 -1.9237
 4498TIP3   OH234908   5.839   3.123   2.886 -0.4161  0.2246  0.1161
 4498TIP3    H134909   5.917   3.172   2.858 -0.8648  0.4178 -0.8116
 4498TIP3    H234910   5.846   3.119   2.981  0.8574  0.0339  0.0237
 4499TIP3   OH234911   2.552   2.016   3.029  0.1881 -0.1644  0.1973
 4499TIP3    H134912   2.552   1.920   3.028  1.3883 -0.2009  2.3185
 4499TIP3    H234913   2.613   2.040   3.099 -0.9673  2.1429  0.4596
 4500TIP3   OH234914   1.297   0.189   5.127 -0.0777 -0.1744  0.6878
 4500TIP3    H134915   1.360   0.155   5.062  0.1173  0.6854  0.4199
 4500TIP3    H234916   1.286   0.281   5.103 -1.3671 -0.2942  0.7986
 4501TIP3   OH234917   1.054   1.145  13.896 -0.7821  0.6837 -0.0606
 4501TIP3    H134918   1.019   1.098  13.971  0.2347  1.4459  0.9127
 4501TIP3    H234919   1.036   1.237  13.914  3.0059  1.2760  1.2514
 4502TIP3   OH234920   3.270   1.212   5.278  0.4531 -0.0804  0.7887
 4502TIP3    H134921   3.227   1.127   5.266  1.6884 -0.6250  0.1708
 4502TIP3    H234922   3.293   1.240   5.189  0.6304  0.6054  1.0420
 4503TIP3   OH234923   2.694   2.353  16.762 -0.7455 -0.6002 -0.3149
 4503TIP3    H134924   2.642   2.432  16.747 -1.7092 -1.2683 -0.5703
 4503TIP3    H234925   2.779   2.385  16.792 -1.2467  0.5184 -0.0695
 4504TIP3   OH234926   5.675   4.688  12.142 -0.0162 -0.2548  0.0044
 4504TIP3    H134927   5.752   4.634  12.160 -0.3686 -0.3688  1.2549
 4504TIP3    H234928   5.624   4.637  12.080  0.4186 -0.6408 -0.0407
 4505TIP3   OH234929   5.202   1.687  11.194 -0.4063 -0.1372 -0.2375
 4505TIP3    H134930   5.259   1.747  11.146 -3.5456  1.4595 -2.1202
 4505TIP3    H234931   5.128   1.741  11.222 -1.8822 -2.5094  0.5776
 4506TIP3   OH234932   1.347   1.380  13.260 -0.5246  0.2452  0.1155
 4506TIP3    H134933   1.330   1.392  13.353 -0.8477  1.3195 -0.0787
 4506TIP3    H234934   1.439   1.351  13.256 -0.4154  0.5017  0.7413
 4507TIP3   OH234935   3.758   6.155  12.044 -0.0049  0.0934 -0.2079
 4507TIP3    H134936   3.685   6.146  12.105  0.8890 -3.5243  0.4366
 4507TIP3    H234937   3.736   6.096  11.971  2.5930 -1.6726  0.3776
 4508TIP3   OH234938   3.770   0.422  15.217 -0.1634 -0.0440  0.6171
 4508TIP3    H134939   3.781   0.368  15.295 -0.1830  0.4720  0.9813
 4508TIP3    H234940   3.725   0.365  15.154 -1.2739 -0.0725  1.4177
 4509TIP3   OH234941   2.362   2.526   4.470 -0.2753  0.1750 -0.0813
 4509TIP3    H134942   2.377   2.537   4.376  0.2663  0.4818  0.0343
 4509TIP3    H234943   2.420   2.455   4.496  1.0185  1.3720  0.3720
 4510TIP3   OH234944   4.040   0.105  16.783 -0.8250  0.2806  0.3817
 4510TIP3    H134945   3.955   0.089  16.742 -0.6357 -0.4259  0.2438
 4510TIP3    H234946   4.065   0.020  16.819  0.0539  0.3623 -0.0216
 4511TIP3   OH234947   4.026   4.641   3.845  0.0789 -0.0328  0.5700
 4511TIP3    H134948   3.995   4.591   3.921 -0.1607  1.8823  1.7899
 4511TIP3    H234949   4.117   4.662   3.867  0.0130  0.5066  0.3354
 4512TIP3   OH234950   6.722   3.269   2.253  0.1757  0.3271 -0.4291
 4512TIP3    H134951   6.648   3.316   2.289 -1.7555 -0.6832 -2.9411
 4512TIP3    H234952   6.760   3.223   2.328 -2.0262  0.4598  0.7976
 4513TIP3   OH234953   5.516   3.737  15.693  0.3697  0.3119  0.1148
 4513TIP3    H134954   5.488   3.711  15.780  1.4525 -1.1036  0.0637
 4513TIP3    H234955   5.444   3.712  15.635  0.3466 -0.2872  0.3974
 4514TIP3   OH234956   1.944   5.785  11.338 -0.0504 -0.2690 -0.2510
 4514TIP3    H134957   1.854   5.817  11.326  0.2353  0.4523 -0.5009
 4514TIP3    H234958   1.986   5.800  11.253  0.5852  0.3113  0.1651
 4515TIP3   OH234959   4.480   0.838   5.635 -0.5944  0.3863  0.4791
 4515TIP3    H134960   4.462   0.876   5.549 -0.9632 -1.2170 -0.1771
 4515TIP3    H234961   4.504   0.747   5.616 -0.5772  0.0461  2.0636
 4516TIP3   OH234962   5.028   4.478  15.995 -0.6318 -0.1095  0.5438
 4516TIP3    H134963   5.083   4.549  15.961 -0.8497  0.1454  0.7168
 4516TIP3    H234964   4.938   4.510  15.986 -0.7432 -0.4574  0.4126
 4517TIP3   OH234965   6.464   5.999  14.120  0.4463 -0.5627 -0.0283
 4517TIP3    H134966   6.522   5.970  14.190 -0.2383  0.9394  1.1951
 4517TIP3    H234967   6.447   5.920  14.069  0.6336 -1.7759  1.7357
 4518TIP3   OH234968   2.410   6.340   4.848  0.1470 -0.0229  0.2667
 4518TIP3    H134969   2.381   6.324   4.759 -0.9921  1.7040  0.3228
 4518TIP3    H234970   2.496   6.382   4.838  0.6517 -1.0936  0.0253
 4519TIP3   OH234971   3.710   0.320   1.365  0.4892 -0.2669  0.1668
 4519TIP3    H134972   3.687   0.242   1.415  1.7942 -0.9598 -0.2949
 4519TIP3    H234973   3.772   0.367   1.421  0.7934 -0.2769 -0.1640
 4520TIP3   OH234974   3.091   4.090  15.114  0.0728  0.3035  0.0115
 4520TIP3    H134975   3.129   4.163  15.162 -0.1542  0.3847  0.0684
 4520TIP3    H234976   3.088   4.018  15.177  0.7910  0.0830 -0.1979
 4521TIP3   OH234977   0.646   0.629  11.021 -0.1749 -0.1884 -0.6541
 4521TIP3    H134978   0.656   0.604  10.930  0.0127  3.7555 -1.8077
 4521TIP3    H234979   0.562   0.674  11.025 -0.0446 -0.0479  1.0447
 4522TIP3   OH234980   2.220   3.860   0.623  0.0641  0.1439 -0.4411
 4522TIP3    H134981   2.183   3.783   0.579  0.1064  0.6305 -1.3412
 4522TIP3    H234982   2.189   3.934   0.571 -0.6915  0.7974  0.9354
 4523TIP3   OH234983   3.388   3.791   6.530 -0.0385 -0.4394  0.4635
 4523TIP3    H134984   3.311   3.742   6.501 -0.6171  0.0444  1.1792
 4523TIP3    H234985   3.357   3.844   6.603  0.4516  1.3476 -0.5764
 4524TIP3   OH234986   1.548   2.226  15.770  0.0906  0.7744 -0.2757
 4524TIP3    H134987   1.560   2.143  15.816 -0.6407  1.4464  1.1840
 4524TIP3    H234988   1.478   2.210  15.707 -0.3381  0.3874  0.2968
 4525TIP3   OH234989   5.127   0.044  16.325 -0.0304 -0.0933 -0.6997
 4525TIP3    H134990   5.187  -0.016  16.368 -0.9973 -1.1485 -0.7906
 4525TIP3    H234991   5.044  -0.003  16.322 -0.8372  1.2943 -0.6754
 4526TIP3   OH234992   2.956   5.608  14.110  0.6177 -0.4612  0.9694
 4526TIP3    H134993   2.886   5.671  14.096  2.1115  1.3565  1.5636
 4526TIP3    H234994   2.994   5.595  14.023  0.3073 -0.5626  0.8460
 4527TIP3   OH234995   4.809   2.849  16.974 -0.0478  0.0021 -0.2977
 4527TIP3    H134996   4.780   2.876  17.062  0.8994  0.3249 -0.0841
 4527TIP3    H234997   4.745   2.783  16.948 -1.3478  1.1327 -0.0763
 4528TIP3   OH234998   6.768   5.330   4.207  0.3220 -0.2909 -0.1910
 4528TIP3    H134999   6.772   5.419   4.242 -1.0280 -0.4315  0.3540
 4528TIP3    H235000   6.788   5.339   4.114  0.8839  0.4785 -0.0021
 4529TIP3   OH235001   2.576   3.233   1.474  0.9193  0.0129 -0.3816
 4529TIP3    H135002   2.536   3.146   1.465  1.6278 -0.3174 -0.4294
 4529TIP3    H235003   2.570   3.253   1.568  1.5923 -0.5066 -0.2210
 4530TIP3   OH235004   0.985   1.040   2.075  0.2336 -0.1121 -0.3290
 4530TIP3    H135005   0.900   1.018   2.039 -0.1469 -1.1438  1.1519
 4530TIP3    H235006   1.047   0.985   2.026 -0.2250 -1.1326  0.2128
 4531TIP3   OH235007   1.408   3.303  12.265 -0.0335 -0.3007 -0.0587
 4531TIP3    H135008   1.409   3.213  12.234  1.3422 -0.5271  0.5997
 4531TIP3    H235009   1.489   3.312  12.316  0.0946  1.4342 -0.5153
 4532TIP3   OH235010   2.762   1.939  13.022 -0.2272  0.3420  0.5634
 4532TIP3    H135011   2.783   1.852  12.988 -0.5985  0.5986 -0.3106
 4532TIP3    H235012   2.743   1.924  13.115  2.4927 -0.1132  1.0932
 4533TIP3   OH235013   5.372   5.191  11.101 -0.3298  0.0672  0.0797
 4533TIP3    H135014   5.334   5.203  11.014  0.2624  2.8902  0.1535
 4533TIP3    H235015   5.297   5.198  11.160 -0.2618  1.9994 -0.0081
 4534TIP3   OH235016   3.113   1.682   4.162 -0.6121  0.1634 -0.6063
 4534TIP3    H135017   3.202   1.666   4.133 -1.1096 -1.7899 -1.1191
 4534TIP3    H235018   3.069   1.719   4.085 -0.2691  1.0808 -0.3678
 4535TIP3   OH235019   3.575   3.694  11.544 -0.6212 -0.1767 -0.4265
 4535TIP3    H135020   3.513   3.621  11.549  0.0754 -0.7726 -0.4394
 4535TIP3    H235021   3.555   3.747  11.622 -0.6627 -0.7558 -0.0357
 4536TIP3   OH235022   3.437   6.783  16.804 -0.4706 -0.5955  0.1208
 4536TIP3    H135023   3.424   6.867  16.761  1.5860  0.3866  1.3438
 4536TIP3    H235024   3.367   6.728  16.770  0.5951  0.3625 -3.8148
 4537TIP3   OH235025   4.468   5.227  10.772 -0.0731 -0.1193 -0.2013
 4537TIP3    H135026   4.536   5.177  10.726  1.1970  0.2366  1.2190
 4537TIP3    H235027   4.418   5.160  10.819 -0.1458 -0.3086 -0.5448
 4538TIP3   OH235028   2.840   2.283   5.719 -0.2113  0.2458  0.6844
 4538TIP3    H135029   2.881   2.197   5.716 -0.7446  0.0291 -0.4550
 4538TIP3    H235030   2.906   2.343   5.684 -0.1382  0.1919  0.7300
 4539TIP3   OH235031   6.029   0.747  13.477  0.1231 -0.7421 -0.0276
 4539TIP3    H135032   5.961   0.814  13.486  1.0283 -0.1513  3.0959
 4539TIP3    H235033   6.018   0.691  13.554  2.1857 -1.5330 -0.2681
 4540TIP3   OH235034   3.863   5.172  14.737 -0.5976 -0.2081 -0.4045
 4540TIP3    H135035   3.950   5.204  14.761  0.1576 -1.1607 -1.7876
 4540TIP3    H235036   3.854   5.090  14.786  0.9106 -2.1100 -3.1420
 4541TIP3   OH235037   5.353   5.274  14.830 -0.0743 -0.4160 -0.0426
 4541TIP3    H135038   5.344   5.199  14.888  0.0916  0.3139  0.9373
 4541TIP3    H235039   5.444   5.270  14.799  0.3879  0.2065  1.1818
 4542TIP3   OH235040   1.900   3.020  16.834  1.0415 -0.2823  0.2830
 4542TIP3    H135041   1.927   2.961  16.764 -1.8444  1.2648 -2.2619
 4542TIP3    H235042   1.826   2.975  16.875 -1.2404  1.4679 -1.7384
 4543TIP3   OH235043   3.931   4.624   0.612  0.3460 -0.2364  0.5499
 4543TIP3    H135044   3.856   4.668   0.651 -1.4817  0.2959 -3.3327
 4543TIP3    H235045   3.901   4.535   0.593  0.7173 -0.0797 -0.8544
 4544TIP3   OH235046   4.822   0.096  11.150 -0.8084 -0.5290 -0.7487
 4544TIP3    H135047   4.800   0.127  11.062  1.4105 -0.5152 -1.3283
 4544TIP3    H235048   4.898   0.040  11.137  0.2012  0.3132  1.2852
 4545TIP3   OH235049   0.966   4.641  14.393  0.2649 -0.0994  0.2521
 4545TIP3    H135050   0.985   4.567  14.336  1.6015  1.4446 -1.3749
 4545TIP3    H235051   0.871   4.638  14.407  0.2698 -1.8996 -0.0791
 4546TIP3   OH235052   2.870   0.042  16.429  0.3818  0.1992  0.4328
 4546TIP3    H135053   2.905   0.129  16.451 -1.3935  0.8468  0.7908
 4546TIP3    H235054   2.835   0.009  16.512 -1.7970  0.4997 -0.3365
 4547TIP3   OH235055   2.072   1.762   2.643 -0.4649  0.3464  0.4106
 4547TIP3    H135056   2.154   1.769   2.692 -0.2730  0.1696  0.1124
 4547TIP3    H235057   2.048   1.853   2.624 -0.5873  0.4236  0.9060
 4548TIP3   OH235058   4.145   2.726  15.562  0.1016  0.4605  0.1360
 4548TIP3    H135059   4.121   2.634  15.563 -1.3866  0.8432  0.9518
 4548TIP3    H235060   4.212   2.735  15.630 -0.1698  0.0958  0.4476
 4549TIP3   OH235061   0.100   1.176   2.135  0.5364  0.0269  0.4536
 4549TIP3    H135062   0.117   1.082   2.127  0.0064 -0.0715  0.4948
 4549TIP3    H235063   0.008   1.186   2.110  0.5410  0.5089  0.6332
 4550TIP3   OH235064   0.290   4.627  16.938  0.3158  0.1118  0.0572
 4550TIP3    H135065   0.198   4.605  16.925 -0.0443  0.7483  1.3949
 4550TIP3    H235066   0.288   4.715  16.976  1.6129  1.4099 -2.7558
 4551TIP3   OH235067   0.894   5.358  12.219  0.5138  0.2206 -0.0268
 4551TIP3    H135068   0.902   5.454  12.226 -1.1203  0.3330  0.6101
 4551TIP3    H235069   0.953   5.325  12.287  0.5426  0.8054  0.2466
 4552TIP3   OH235070   3.712   5.930  10.981  0.2042  0.2416 -0.1189
 4552TIP3    H135071   3.768   5.860  11.016 -1.1301 -1.0729 -0.5571
 4552TIP3    H235072   3.712   5.915  10.886 -2.2901 -0.8735  0.0171
 4553TIP3   OH235073   4.478   5.623  11.674  0.1225 -0.0654  0.3828
 4553TIP3    H135074   4.532   5.699  11.693  0.9220 -0.3351 -0.7398
 4553TIP3    H235075   4.391   5.659  11.657  0.0239  0.4016  1.8134
 4554TIP3   OH235076   2.923   3.524   4.541  0.2305 -0.3935  0.7232
 4554TIP3    H135077   2.840   3.571   4.551  0.8915  0.6523  1.4740
 4554TIP3    H235078   2.961   3.523   4.629  0.4968 -1.8619  0.6039
 4555TIP3   OH235079   2.094   6.244   3.905  0.0410 -0.1257  0.3584
 4555TIP3    H135080   2.006   6.282   3.905  0.1739  0.1958  1.1973
 4555TIP3    H235081   2.146   6.305   3.957  0.2408 -1.4643  1.7659
 4556TIP3   OH235082   6.437   3.081   3.739 -0.7293 -0.4900 -0.4018
 4556TIP3    H135083   6.413   3.141   3.668  0.3661  0.8794  0.3441
 4556TIP3    H235084   6.487   3.012   3.695  0.5434  0.7093 -0.9172
 4557TIP3   OH235085   1.753   5.782  15.415 -0.6496  0.3518  0.1955
 4557TIP3    H135086   1.801   5.702  15.435  1.1451  1.5315  0.7784
 4557TIP3    H235087   1.661   5.757  15.420 -0.1256 -1.4830  1.1537
 4558TIP3   OH235088   6.398   5.632   3.543 -0.0993 -0.1172 -0.0746
 4558TIP3    H135089   6.341   5.650   3.468 -0.7307 -0.5167  0.3063
 4558TIP3    H235090   6.482   5.607   3.504  0.2738  1.9473 -0.6237
 4559TIP3   OH235091   5.397   2.487   0.087 -0.2914 -0.6326 -0.4555
 4559TIP3    H135092   5.310   2.448   0.075 -0.2809 -0.5582 -0.7908
 4559TIP3    H235093   5.431   2.497  -0.002  0.0352 -0.6024 -0.3277
 4560TIP3   OH235094   2.566   1.686  11.246 -0.8935 -0.2370 -0.4816
 4560TIP3    H135095   2.502   1.673  11.316 -3.3615  1.9744 -2.2168
 4560TIP3    H235096   2.636   1.738  11.287 -1.4125 -0.5262  0.7907
 4561TIP3   OH235097   2.748   5.146   1.899 -0.2661  0.0957  0.1370
 4561TIP3    H135098   2.771   5.210   1.966 -0.8727  0.7130 -0.2327
 4561TIP3    H235099   2.832   5.105   1.876 -0.1348 -0.5084  1.6441
 4562TIP3   OH235100   3.476   1.794   0.654 -0.7417  0.2091  0.5715
 4562TIP3    H135101   3.381   1.779   0.659 -0.4589 -1.9273 -0.0984
 4562TIP3    H235102   3.502   1.754   0.571  0.8162  0.4360  0.9417
 4563TIP3   OH235103   4.357   3.960   0.526  0.3697  0.0678 -0.2037
 4563TIP3    H135104   4.411   3.909   0.586 -0.2489 -1.4531 -0.8929
 4563TIP3    H235105   4.371   3.918   0.441  2.3320  3.0612 -1.4206
 4564TIP3   OH235106   0.140   3.984   3.478 -0.0166  0.3237  0.1880
 4564TIP3    H135107   0.200   3.920   3.518 -0.5979  0.8864  1.9868
 4564TIP3    H235108   0.158   3.977   3.384 -0.7444 -3.2082  0.2102
 4565TIP3   OH235109   1.705   4.377  10.988 -0.7931 -0.3782  0.3545
 4565TIP3    H135110   1.640   4.429  10.941  0.6160  0.9718 -0.1427
 4565TIP3    H235111   1.773   4.440  11.011  1.1620 -2.0772 -0.6275
 4566TIP3   OH235112   2.144   1.044  11.032 -0.0781  0.6614 -0.0305
 4566TIP3    H135113   2.191   0.962  11.048  0.3386  1.0827  0.9967
 4566TIP3    H235114   2.075   1.020  10.970  0.8085 -0.1958 -0.7153
 4567TIP3   OH235115   5.814   4.418   5.851  0.0243 -0.1665 -0.1606
 4567TIP3    H135116   5.871   4.348   5.883 -0.5559 -0.7755 -0.4367
 4567TIP3    H235117   5.824   4.489   5.915  1.0791 -0.2670 -0.2096
 4568TIP3   OH235118   1.849   3.896   3.176 -0.5557 -0.2173 -0.3724
 4568TIP3    H135119   1.886   3.901   3.264  1.1363 -1.7859 -0.9594
 4568TIP3    H235120   1.895   3.964   3.127 -0.2451 -0.5005 -0.4751
 4569TIP3   OH235121   2.091   4.350   5.945 -0.2367 -0.4726  0.1145
 4569TIP3    H135122   2.142   4.297   5.884 -1.2806 -0.4484 -0.7865
 4569TIP3    H235123   2.088   4.298   6.025 -0.1198 -1.1757 -0.3344
 4570TIP3   OH235124   4.494   1.577  15.180 -0.1662 -0.5605  0.7401
 4570TIP3    H135125   4.429   1.613  15.120  0.3650  1.1545  1.1709
 4570TIP3    H235126   4.443   1.530  15.246 -0.8762 -0.5395  0.2109
 4571TIP3   OH235127   6.612   0.248  16.173  0.2827  0.1725  0.2495
 4571TIP3    H135128   6.659   0.181  16.221 -1.0515 -2.4710 -1.9701
 4571TIP3    H235129   6.672   0.322  16.168  2.0913 -1.1484  2.0734
 4572TIP3   OH235130   1.902   0.629  12.055  0.4005  0.1612 -0.1726
 4572TIP3    H135131   1.821   0.584  12.029  2.2502 -2.4386 -1.6420
 4572TIP3    H235132   1.938   0.663  11.973  1.5163  0.0482  0.2596
 4573TIP3   OH235133   1.196   0.582  11.941  0.5520  0.0472  0.2582
 4573TIP3    H135134   1.120   0.528  11.963  0.7399  0.0538  0.9214
 4573TIP3    H235135   1.219   0.555  11.852  0.3511 -0.6258  0.4057
 4574TIP3   OH235136   4.715   1.769   2.260 -0.7500  1.0519  0.9043
 4574TIP3    H135137   4.759   1.819   2.191  1.5689 -0.2182  1.3936
 4574TIP3    H235138   4.622   1.774   2.238 -0.4092  3.9260 -0.1188
 4575TIP3   OH235139   0.763   3.932   0.050 -0.3376 -0.2891 -0.2504
 4575TIP3    H135140   0.741   3.987  -0.026  1.9114  0.2366 -0.5540
 4575TIP3    H235141   0.727   3.846   0.029 -1.6708  0.4101 -0.9116
 4576TIP3   OH235142   5.425   4.033   3.150 -0.0957 -0.5035 -0.3509
 4576TIP3    H135143   5.445   3.992   3.234 -1.2552  1.0420  0.7054
 4576TIP3    H235144   5.467   3.977   3.085  2.1565 -0.8666  1.3668
 4577TIP3   OH235145   5.321   1.041   1.195 -0.2038  0.1565  0.0632
 4577TIP3    H135146   5.320   1.094   1.274 -2.2576  0.2554 -0.0132
 4577TIP3    H235147   5.262   0.968   1.213 -0.5436  0.0707 -1.3082
 4578TIP3   OH235148   5.984   1.983   3.293  0.6517 -0.2988 -0.1647
 4578TIP3    H135149   5.900   2.008   3.330  1.4913 -1.2841  2.5391
 4578TIP3    H235150   6.013   1.909   3.347  2.3264 -1.2666 -2.3143
 4579TIP3   OH235151   3.412   0.406  10.731 -0.1205 -0.0853  0.1809
 4579TIP3    H135152   3.428   0.314  10.710  1.4580  0.3825 -0.7613
 4579TIP3    H235153   3.385   0.406  10.823 -0.0739 -1.4729  0.1974
 4580TIP3   OH235154   5.272   3.089  15.511  0.6998  0.4710 -0.2691
 4580TIP3    H135155   5.327   3.160  15.476 -0.0520  0.9852 -0.4384
 4580TIP3    H235156   5.186   3.103  15.469  0.6013 -0.6765 -0.4710
 4581TIP3   OH235157   3.744   0.847  12.887  0.0601  0.6831  0.6248
 4581TIP3    H135158   3.833   0.844  12.922  0.7524  1.7646 -0.9708
 4581TIP3    H235159   3.694   0.791  12.945  2.4734 -2.7151 -0.4103
 4582TIP3   OH235160   6.015   5.811   4.324 -0.3950 -0.3900  0.0289
 4582TIP3    H135161   6.029   5.723   4.358  0.6489  0.6905  2.5514
 4582TIP3    H235162   5.928   5.836   4.356 -1.1158 -0.8786 -1.5385
 4583TIP3   OH235163   2.334   6.188  12.140  0.4730 -0.0037  0.5370
 4583TIP3    H135164   2.421   6.223  12.121  0.9489 -0.7466  1.3112
 4583TIP3    H235165   2.349   6.095  12.158 -0.6822 -0.4961 -0.8837
 4584TIP3   OH235166   0.815   1.177  17.189  0.1411  0.3603 -0.0117
 4584TIP3    H135167   0.783   1.212  17.106  0.5709  2.9942  0.8901
 4584TIP3    H235168   0.904   1.211  17.197  0.0763  0.2115  1.5565
 4585TIP3   OH235169   6.010   0.399   1.382  0.6916  0.4775 -0.4215
 4585TIP3    H135170   5.958   0.455   1.324  1.3954  1.7929  0.1871
 4585TIP3    H235171   5.971   0.411   1.469 -0.0909 -1.1561 -0.5376
 4586TIP3   OH235172   6.394   6.462   3.831 -0.1468 -0.2962  0.1224
 4586TIP3    H135173   6.452   6.403   3.879  2.3714  1.1545 -1.0422
 4586TIP3    H235174   6.421   6.453   3.739 -0.8561  1.4173 -0.2769
 4587TIP3   OH235175   1.377   3.560  12.824 -0.3013 -0.1671  0.1566
 4587TIP3    H135176   1.465   3.537  12.853 -1.4726 -2.0077  2.4483
 4587TIP3    H235177   1.324   3.483  12.846 -2.7377  1.4417  0.1057
 4588TIP3   OH235178   3.792   0.895   1.641 -0.5566 -0.3004 -0.1597
 4588TIP3    H135179   3.766   0.940   1.560 -0.5145 -0.5674 -0.3249
 4588TIP3    H235180   3.824   0.965   1.698  1.2476 -0.3293 -1.1083
 4589TIP3   OH235181   5.283   0.714  14.143 -0.6211  0.0800  0.2178
 4589TIP3    H135182   5.378   0.719  14.149 -0.5038 -0.9620 -0.5418
 4589TIP3    H235183   5.251   0.765  14.217  0.5341  0.0909  0.7181
 4590TIP3   OH235184   4.500   0.040   0.408  0.3546 -0.5354  0.1649
 4590TIP3    H135185   4.408   0.062   0.398  0.7313  1.2884  0.5693
 4590TIP3    H235186   4.517   0.047   0.502  1.7597  2.7523 -0.2920
 4591TIP3   OH235187   4.871   2.086   2.607 -0.5304 -0.0752 -0.2636
 4591TIP3    H135188   4.858   2.091   2.512 -0.6578  0.1228 -0.2374
 4591TIP3    H235189   4.951   2.137   2.622 -1.9685  2.1450  0.0324
 4592TIP3   OH235190   4.762   6.195   6.096 -0.6020 -0.4494 -0.9090
 4592TIP3    H135191   4.775   6.147   6.178 -1.9085  1.6008  0.5426
 4592TIP3    H235192   4.776   6.287   6.120 -1.1899  0.1884 -2.9506
 4593TIP3   OH235193   5.783   2.592  15.636  0.5201  0.0420 -0.1130
 4593TIP3    H135194   5.750   2.673  15.675  1.3179  0.6153 -0.6441
 4593TIP3    H235195   5.868   2.578  15.678  0.7139 -0.1268 -0.5645
 4594TIP3   OH235196   3.751   2.089   0.572  0.4566  0.0814 -0.1345
 4594TIP3    H135197   3.770   2.180   0.595 -0.1671  0.5362 -1.3544
 4594TIP3    H235198   3.674   2.067   0.626 -0.6322  0.9421 -1.3063
 4595TIP3   OH235199   1.371   4.823  17.100  0.0513  0.2082 -0.2524
 4595TIP3    H135200   1.377   4.783  17.187 -1.7542 -2.8305 -1.4632
 4595TIP3    H235201   1.307   4.770  17.053 -0.0719  2.6667 -3.0128
 4596TIP3   OH235202   4.804   0.387  14.966 -0.2275 -0.4623  0.6733
 4596TIP3    H135203   4.712   0.369  14.986 -0.2712  0.0907  1.0007
 4596TIP3    H235204   4.838   0.427  15.046  0.2907 -0.6554  0.5460
 4597TIP3   OH235205   4.595   1.246  11.931 -0.1256 -0.4142  0.2810
 4597TIP3    H135206   4.531   1.316  11.916  0.8735 -0.0583 -2.8033
 4597TIP3    H235207   4.660   1.285  11.989  0.7859  1.5088 -1.9610
 4598TIP3   OH235208   1.092   3.856  14.536 -0.7893 -0.6064 -0.0754
 4598TIP3    H135209   1.167   3.908  14.563 -0.0972 -2.3015  1.4058
 4598TIP3    H235210   1.129   3.772  14.509 -2.1035 -1.2714  0.1420
 4599TIP3   OH235211   3.204   2.947   4.868  0.1112 -0.2299  0.7095
 4599TIP3    H135212   3.170   2.895   4.941 -0.1708  0.3197  0.9721
 4599TIP3    H235213   3.280   2.993   4.905  0.0373 -0.0412  0.6266
 4600TIP3   OH235214   5.931   5.676   1.114 -0.0456 -0.2648  0.1117
 4600TIP3    H135215   5.873   5.660   1.040 -0.0493 -2.3025  0.5455
 4600TIP3    H235216   5.998   5.607   1.108  2.5220  2.1633 -0.5392
 4601TIP3   OH235217   5.662   6.409  14.538 -0.9525 -0.2562 -0.4359
 4601TIP3    H135218   5.689   6.483  14.484  1.4479 -0.3422  0.5648
 4601TIP3    H235219   5.568   6.419  14.549 -0.6289  2.7638 -0.1470
 4602TIP3   OH235220   4.359   0.039   4.907 -0.2276  0.4257 -0.5144
 4602TIP3    H135221   4.345   0.108   4.843 -0.1917  0.4807 -0.4621
 4602TIP3    H235222   4.411  -0.026   4.860  0.3407  0.7560 -0.3471
 4603TIP3   OH235223   5.544   3.196   3.300  0.1128  0.2583 -0.1967
 4603TIP3    H135224   5.627   3.243   3.305  1.1960 -1.4127 -1.7422
 4603TIP3    H235225   5.567   3.112   3.258 -2.2428 -0.4666 -0.0833
 4604TIP3   OH235226   2.909   4.796   3.436  0.0756 -0.2025  0.5228
 4604TIP3    H135227   2.863   4.785   3.520 -0.7879  0.4260  0.1411
 4604TIP3    H235228   2.987   4.847   3.457 -1.0722  1.5462  0.6675
 4605TIP3   OH235229   2.321   2.103  17.180  0.6041 -0.0364 -0.1148
 4605TIP3    H135230   2.360   2.147  17.256  0.1727 -0.1075  0.1500
 4605TIP3    H235231   2.248   2.159  17.155  0.9469  0.1637 -0.6948
 4606TIP3   OH235232   3.071   3.841   6.059  0.1983  0.5220 -0.3077
 4606TIP3    H135233   2.989   3.816   6.103  0.5367  0.8655  0.5415
 4606TIP3    H235234   3.140   3.804   6.115  0.6144 -0.7679 -1.6333
 4607TIP3   OH235235   3.160   4.179   5.239 -0.0681  0.2752  0.2294
 4607TIP3    H135236   3.138   4.272   5.242 -0.5642  0.1508  0.8357
 4607TIP3    H235237   3.233   4.170   5.300 -0.1765  0.2318  0.3541
 4608TIP3   OH235238   6.318   6.512   1.866 -0.2515  0.3818  0.1539
 4608TIP3    H135239   6.280   6.502   1.953  1.5177 -1.5453  0.7470
 4608TIP3    H235240   6.277   6.444   1.813  0.2768  0.1242  0.0681
 4609TIP3   OH235241   6.728   3.582  16.189 -0.0657  0.1775 -0.0360
 4609TIP3    H135242   6.771   3.512  16.238  1.6906  0.2301 -1.4201
 4609TIP3    H235243   6.783   3.659  16.204 -0.4374  0.5868 -0.7365
 4610TIP3   OH235244   1.340   0.117   2.706 -0.1011  0.0761  0.0442
 4610TIP3    H135245   1.403   0.057   2.747 -0.1496  1.4956  2.3090
 4610TIP3    H235246   1.346   0.197   2.758 -1.0242  1.5739 -2.0847
 4611TIP3   OH235247   4.855   6.017   1.390  0.4138 -0.1381 -0.0900
 4611TIP3    H135248   4.816   6.086   1.443 -0.7444 -1.0427  0.2623
 4611TIP3    H235249   4.802   6.015   1.310 -0.7397 -1.8150  0.6709
 4612TIP3   OH235250   1.866   3.867  14.852 -0.6238 -0.2409 -0.0108
 4612TIP3    H135251   1.819   3.814  14.787  0.0597 -1.9615  0.8542
 4612TIP3    H235252   1.955   3.874  14.817 -0.4503 -0.5411  0.3633
 4613TIP3   OH235253   3.763   6.103   1.927  0.5737 -0.7810  0.0712
 4613TIP3    H135254   3.733   6.047   1.856  0.9292  1.1416 -1.6624
 4613TIP3    H235255   3.848   6.137   1.897  1.0374 -0.4689  1.7030
 4614TIP3   OH235256   1.144   5.440  13.046 -0.6390  0.3627 -0.4996
 4614TIP3    H135257   1.073   5.435  13.109  1.9686 -1.0866  2.4641
 4614TIP3    H235258   1.146   5.355  13.004 -1.1813  0.6918 -1.1986
 4615TIP3   OH235259   3.091   6.700  14.038  0.1319  0.3143 -0.2615
 4615TIP3    H135260   3.009   6.653  14.052  1.1312 -1.5959 -0.7171
 4615TIP3    H235261   3.091   6.722  13.945 -0.4059  1.3915 -0.0194
 4616TIP3   OH235262   3.893   3.014  12.660 -0.1373  0.5336  0.3750
 4616TIP3    H135263   3.919   3.067  12.585  0.3410 -0.5384 -0.2353
 4616TIP3    H235264   3.822   2.959  12.626 -1.1104  1.2743  1.1931
 4617TIP3   OH235265   4.978   2.618  16.623  0.7530 -0.2909  0.0820
 4617TIP3    H135266   4.898   2.610  16.571  2.6532 -0.0475 -2.9887
 4617TIP3    H235267   5.009   2.528  16.634  1.3132 -0.2029 -0.7708
 4618TIP3   OH235268   5.890   5.088   2.771 -0.0578 -0.1666 -0.3820
 4618TIP3    H135269   5.808   5.038   2.763 -0.4357  0.5294 -0.8552
 4618TIP3    H235270   5.949   5.046   2.708 -0.1284 -0.5041 -0.2272
 4619TIP3   OH235271   5.938   1.111  13.792  0.0618  0.3565 -0.3510
 4619TIP3    H135272   5.927   1.016  13.786  0.0980  0.4339 -1.8341
 4619TIP3    H235273   5.848   1.145  13.800  0.1828  0.0586  2.8438
 4620TIP3   OH235274   4.600   5.029   5.457  0.2859  0.9190  0.3567
 4620TIP3    H135275   4.544   5.105   5.441 -0.9234 -0.0966 -0.3450
 4620TIP3    H235276   4.666   5.060   5.519 -2.1357  1.6476  2.6494
 4621TIP3   OH235277   1.392   2.488   4.614 -0.3503 -0.1747 -0.5152
 4621TIP3    H135278   1.334   2.563   4.606 -1.7647 -1.2742 -0.9694
 4621TIP3    H235279   1.357   2.439   4.689  2.1089  0.9095  1.4284
 4622TIP3   OH235280   1.040   2.546   1.326 -0.2352 -0.2296 -0.1156
 4622TIP3    H135281   0.964   2.494   1.299  0.2141 -0.5725 -0.7214
 4622TIP3    H235282   1.014   2.637   1.309 -0.7394 -0.3013  0.2547
 4623TIP3   OH235283   5.663   1.570   0.041  0.0111 -0.1496 -0.3654
 4623TIP3    H135284   5.665   1.489   0.092 -1.3067  1.3785  2.2342
 4623TIP3    H235285   5.698   1.546  -0.045  1.3583 -3.0376  0.9392
 4624TIP3   OH235286   3.940   3.076   5.865  0.6365 -0.0362 -0.2176
 4624TIP3    H135287   3.896   3.161   5.853 -0.1950 -0.7235 -2.4380
 4624TIP3    H235288   3.910   3.045   5.951 -0.0764  1.3401  0.0456
 4625TIP3   OH235289   6.283   5.292   3.167 -0.0915  0.0397  0.2384
 4625TIP3    H135290   6.351   5.252   3.113 -0.2350 -1.1377  0.9000
 4625TIP3    H235291   6.219   5.222   3.181 -0.6050  0.6476  0.9954
 4626TIP3   OH235292   2.615   5.941   4.886 -0.6342 -0.3663  0.4697
 4626TIP3    H135293   2.694   5.965   4.837 -0.1349 -2.6118  0.0796
 4626TIP3    H235294   2.553   5.913   4.819 -1.3826  0.3862  0.8492
 4627TIP3   OH235295   3.751   6.489   3.311  0.2064 -0.4297  0.0248
 4627TIP3    H135296   3.831   6.467   3.265  0.3398  0.2262 -0.0627
 4627TIP3    H235297   3.691   6.416   3.293  0.4656 -0.4683 -0.6726
 4628TIP3   OH235298   2.841   5.249  15.023 -0.2774 -0.7013  0.1020
 4628TIP3    H135299   2.880   5.185  14.965 -0.0704 -0.2002 -0.3166
 4628TIP3    H235300   2.913   5.278  15.079 -0.6009 -1.6040  0.9999
 4629TIP3   OH235301   2.450   5.690  11.530  0.1872 -0.4461  0.6509
 4629TIP3    H135302   2.372   5.691  11.475  0.7575 -1.4915 -0.1853
 4629TIP3    H235303   2.511   5.632  11.485  0.8572 -0.9014  2.1088
 4630TIP3   OH235304   3.046   2.543  11.618  0.4515 -0.1086 -0.0869
 4630TIP3    H135305   2.966   2.559  11.568  0.9911 -0.5087 -1.0795
 4630TIP3    H235306   3.019   2.483  11.688  0.5521 -2.8181 -2.3225
 4631TIP3   OH235307   1.957   0.903   2.832  0.3823  0.0520  0.4883
 4631TIP3    H135308   1.988   0.979   2.783 -0.4345  1.2341  1.7641
 4631TIP3    H235309   1.976   0.924   2.924 -2.6999  0.1206  1.1658
 4632TIP3   OH235310   2.044   3.131   2.308  0.1380  0.3085 -0.1147
 4632TIP3    H135311   2.108   3.141   2.379  1.2847  2.7288 -1.4252
 4632TIP3    H235312   1.959   3.140   2.351  0.6877 -1.4508  1.4198
 4633TIP3   OH235313   6.660   2.460  14.863  0.4130 -0.2062  0.0309
 4633TIP3    H135314   6.712   2.398  14.912  0.3551 -0.0752  0.2557
 4633TIP3    H235315   6.721   2.500  14.801  0.5338 -0.2056  0.1519
 4634TIP3   OH235316   1.032   2.681   2.696  0.3303 -0.2566  0.2307
 4634TIP3    H135317   1.105   2.661   2.753 -0.9142 -0.0001  1.9394
 4634TIP3    H235318   0.959   2.700   2.755 -0.6051  1.4575 -1.4161
 4635TIP3   OH235319   2.463   3.570  11.293 -0.1270 -0.2971 -0.6539
 4635TIP3    H135320   2.425   3.634  11.354 -0.1780 -2.4692  1.6925
 4635TIP3    H235321   2.390   3.514  11.269  0.3055 -0.6394 -1.1774
 4636TIP3   OH235322   0.178   3.720  10.553  0.2235  0.0554  0.8120
 4636TIP3    H135323   0.102   3.664  10.536  0.1748  0.6061 -0.7709
 4636TIP3    H235324   0.252   3.658  10.559  0.3290 -0.1461 -1.8861
 4637TIP3   OH235325   3.259   6.267   2.562 -0.1633  0.1659  0.5734
 4637TIP3    H135326   3.216   6.352   2.574  0.9747  0.4702  2.7933
 4637TIP3    H235327   3.326   6.283   2.495  0.1301  1.0665  1.0759
 4638TIP3   OH235328   3.637   5.377  11.827  0.1283 -0.1277  0.3042
 4638TIP3    H135329   3.704   5.400  11.762  0.9837 -0.0556  1.2062
 4638TIP3    H235330   3.569   5.331  11.776  1.5046 -1.4502 -0.3872
 4639TIP3   OH235331   2.073   4.542   1.575 -0.0277 -0.4012 -0.2216
 4639TIP3    H135332   2.168   4.533   1.579 -0.0078 -0.7217 -1.1791
 4639TIP3    H235333   2.046   4.551   1.666  0.7795 -1.8721  0.1851
 4640TIP3   OH235334   2.250   5.559  16.275  0.7642  0.0148 -0.0244
 4640TIP3    H135335   2.327   5.505  16.294  1.2667  0.2422 -1.3705
 4640TIP3    H235336   2.204   5.565  16.359  0.7851 -2.3487  0.2091
 4641TIP3   OH235337   1.237   5.801  11.985  0.3920 -0.4986  0.0656
 4641TIP3    H135338   1.292   5.758  11.920 -0.9773 -1.1976 -0.6510
 4641TIP3    H235339   1.217   5.887  11.948  0.4481 -0.5038  0.0213
 4642TIP3   OH235340   4.075   6.015  14.497  0.3607 -0.0602 -0.8065
 4642TIP3    H135341   3.994   6.048  14.537  0.3317  0.3234 -1.1784
 4642TIP3    H235342   4.106   6.087  14.444  0.3074 -0.6265 -1.6193
 4643TIP3   OH235343   1.623   6.566  13.996 -0.4478 -0.2368  0.4624
 4643TIP3    H135344   1.637   6.476  14.025 -0.0485 -0.2832  0.1296
 4643TIP3    H235345   1.530   6.582  14.012 -0.9768 -1.3837 -1.3471
 4644TIP3   OH235346   1.455   2.835   3.200  0.1110 -0.5362  0.3776
 4644TIP3    H135347   1.422   2.918   3.163 -0.4251 -1.1881 -0.6308
 4644TIP3    H235348   1.468   2.779   3.124 -0.5299 -1.7347  1.1472
 4645TIP3   OH235349   0.812   0.456   1.400  0.5405 -0.1935  0.4009
 4645TIP3    H135350   0.854   0.540   1.381 -0.8927  0.7700  1.4372
 4645TIP3    H235351   0.719   0.470   1.382  0.0822 -1.1407  1.9066
 4646TIP3   OH235352   4.602   1.872   3.505 -0.4411  0.1326  0.0753
 4646TIP3    H135353   4.642   1.932   3.568 -0.2088 -0.5474  0.5903
 4646TIP3    H235354   4.627   1.906   3.420  0.0215  0.5440  0.3719
 4647TIP3   OH235355   6.125   6.235   5.280 -0.6823  0.8892 -0.4714
 4647TIP3    H135356   6.129   6.323   5.317 -3.2566  0.1487  1.7781
 4647TIP3    H235357   6.035   6.227   5.247 -0.3057 -0.7051 -1.1668
 4648TIP3   OH235358   1.830   5.008   4.871  0.2049  0.6651  0.1604
 4648TIP3    H135359   1.860   5.083   4.819 -0.5438  0.9569  0.1467
 4648TIP3    H235360   1.759   4.970   4.820  1.3657 -0.7916 -0.4196
 4649TIP3   OH235361   6.032   1.005   5.515 -0.0465 -0.1251  0.6026
 4649TIP3    H135362   5.939   1.012   5.537 -0.1473  0.0281  0.1337
 4649TIP3    H235363   6.065   1.095   5.524 -0.2284  0.0489 -0.4959
 4650TIP3   OH235364   1.173   1.451   4.391 -0.1661  0.3910 -0.2385
 4650TIP3    H135365   1.239   1.394   4.351  0.8842  0.5823  1.1751
 4650TIP3    H235366   1.103   1.456   4.326  1.1156  0.0149 -1.6804
 4651TIP3   OH235367   3.596   1.492   1.920 -0.4979 -0.2267 -1.1326
 4651TIP3    H135368   3.610   1.585   1.941  1.7211 -0.6425 -0.7100
 4651TIP3    H235369   3.502   1.479   1.935 -0.9200  2.0409 -1.5984
 4652TIP3   OH235370   4.617   4.234  15.688 -0.2224 -0.5350 -0.1775
 4652TIP3    H135371   4.705   4.202  15.702 -0.1417  0.7125  2.4192
 4652TIP3    H235372   4.622   4.328  15.707 -1.8840 -0.2539 -0.9959
 4653TIP3   OH235373   5.980   1.577  16.572 -0.0400 -0.2578 -0.0534
 4653TIP3    H135374   5.920   1.625  16.515 -0.6151 -0.8595  0.0489
 4653TIP3    H235375   6.002   1.498  16.522  0.1557 -0.3556  0.1904
 4654TIP3   OH235376   3.432   6.109   1.391 -0.5841  0.0971 -0.3774
 4654TIP3    H135377   3.424   6.014   1.378  0.4143 -0.2587  1.4751
 4654TIP3    H235378   3.526   6.124   1.397 -0.7917  1.0452  0.5539
 4655TIP3   OH235379   6.472   4.516  14.103  0.4142  0.0758 -0.5308
 4655TIP3    H135380   6.528   4.575  14.154  0.3514  0.4481 -0.8910
 4655TIP3    H235381   6.413   4.574  14.055  1.5067 -0.1947 -2.2434
 4656TIP3   OH235382   3.679   5.807  15.926 -0.3941 -0.3695  0.1821
 4656TIP3    H135383   3.634   5.875  15.877 -0.3753 -1.4446 -1.3369
 4656TIP3    H235384   3.770   5.836  15.930 -0.6205  0.2991  0.6298
 4657TIP3   OH235385   1.594   2.570  15.833  0.3550  0.3503  0.6166
 4657TIP3    H135386   1.549   2.549  15.915 -1.7059 -2.1621 -1.0862
 4657TIP3    H235387   1.664   2.504  15.827  0.3294  0.3584  0.2297
 4658TIP3   OH235388   6.707   0.658  15.603 -0.1943 -1.3240 -0.1284
 4658TIP3    H135389   6.736   0.747  15.623  0.3657 -1.6996  0.7524
 4658TIP3    H235390   6.612   0.661  15.614 -0.4711 -0.2428 -2.4300
 4659TIP3   OH235391   4.945   1.755  10.565 -0.4048 -0.1807 -0.2161
 4659TIP3    H135392   5.038   1.753  10.586 -0.7090 -0.9639  1.1278
 4659TIP3    H235393   4.902   1.764  10.650 -1.5597  0.0918 -0.8233
 4660TIP3   OH235394   2.674   5.501  15.125  0.1895 -0.1915 -1.0124
 4660TIP3    H135395   2.705   5.511  15.035  2.0096 -0.3399 -0.4295
 4660TIP3    H235396   2.754   5.506  15.178 -1.0892  2.3229  0.7791
 4661TIP3   OH235397   6.491   1.551   2.947 -0.9710  0.4267  0.0257
 4661TIP3    H135398   6.398   1.562   2.964 -0.8774  0.8936  0.2761
 4661TIP3    H235399   6.508   1.458   2.960 -1.3388  0.3985  0.3106
 4662TIP3   OH235400   0.529   0.874  14.648  0.0565  0.1129  0.3055
 4662TIP3    H135401   0.555   0.958  14.686  1.0310  0.9545 -2.1686
 4662TIP3    H235402   0.439   0.888  14.618 -0.0001  0.0753  0.4575
 4663TIP3   OH235403   0.692   3.158   2.102 -0.2266  0.2614  0.2815
 4663TIP3    H135404   0.657   3.071   2.081  0.2793  0.2228 -0.3923
 4663TIP3    H235405   0.745   3.182   2.027 -1.0591  1.5346  0.0839
 4664TIP3   OH235406   3.084   0.906  13.926 -0.3347 -0.3070 -0.6156
 4664TIP3    H135407   3.073   0.829  13.870  0.4092 -0.1871 -0.9321
 4664TIP3    H235408   3.149   0.960  13.881 -1.4524  0.9023 -0.8043
 4665TIP3   OH235409   0.457   0.654  12.274 -0.2676  1.0691 -0.2972
 4665TIP3    H135410   0.552   0.660  12.288 -0.5066 -0.4289  2.2380
 4665TIP3    H235411   0.440   0.561  12.264 -1.6042  1.2477  0.2326
 4666TIP3   OH235412   4.994   2.400   5.928 -0.1102  0.3671 -0.3300
 4666TIP3    H135413   4.911   2.399   5.880 -1.9826 -2.0583  2.7292
 4666TIP3    H235414   4.991   2.479   5.981  0.3596  1.1893 -1.5072
 4667TIP3   OH235415   0.759   0.475   4.456 -0.3016  0.3183  0.1716
 4667TIP3    H135416   0.813   0.398   4.476  1.0345  1.5247  1.3185
 4667TIP3    H235417   0.807   0.548   4.494 -1.2652  1.8131 -1.4163
 4668TIP3   OH235418   6.200   6.334   0.320  0.1385  0.1276  0.3499
 4668TIP3    H135419   6.148   6.329   0.240 -1.1038  0.2069  1.1409
 4668TIP3    H235420   6.142   6.301   0.389  0.2765  2.5260  1.6651
 4669TIP3   OH235421   0.578   6.694  15.929  0.3376  0.1839 -0.7303
 4669TIP3    H135422   0.599   6.618  15.875 -2.4417  0.8946 -2.9455
 4669TIP3    H235423   0.643   6.760  15.904  0.2897 -0.1462 -1.7428
 4670TIP3   OH235424   6.593   6.624  10.504  0.5220 -0.1607  0.8911
 4670TIP3    H135425   6.671   6.602  10.452 -1.3188 -1.4935 -1.4080
 4670TIP3    H235426   6.532   6.552  10.488 -1.8117  1.6507  1.3270
 4671TIP3   OH235427   1.684   0.743  11.725 -0.1334 -0.3991  0.1476
 4671TIP3    H135428   1.621   0.701  11.784 -1.5240  0.6879 -0.5202
 4671TIP3    H235429   1.636   0.818  11.689  1.6164  0.5702 -0.2270
 4672TIP3   OH235430   1.370   6.142  12.352 -0.0605 -0.0936 -0.6905
 4672TIP3    H135431   1.426   6.108  12.421 -0.2952 -0.1535 -0.5286
 4672TIP3    H235432   1.390   6.089  12.275  0.2140 -0.0141 -0.6750
 4673TIP3   OH235433   2.697   4.776   6.510  0.3096  0.5003 -0.1405
 4673TIP3    H135434   2.763   4.819   6.564  1.8342 -0.1663 -1.4517
 4673TIP3    H235435   2.666   4.703   6.564  0.7574  0.7034  0.4042
 4674TIP3   OH235436   3.562   0.764  11.138 -0.1146  0.3237  0.5809
 4674TIP3    H135437   3.647   0.798  11.167  0.1531  0.5713 -0.4781
 4674TIP3    H235438   3.536   0.821  11.066 -0.7583 -0.3028  0.3036
 4675TIP3   OH235439   6.776   5.221   0.250 -0.1077  0.2005 -0.2257
 4675TIP3    H135440   6.718   5.286   0.289 -1.0239 -0.2351 -0.8543
 4675TIP3    H235441   6.727   5.187   0.176  1.1240  0.1200 -1.0045
 4676TIP3   OH235442   2.710   0.504  16.029 -0.3479 -0.0387  0.1992
 4676TIP3    H135443   2.753   0.419  16.038 -0.8866 -0.5812 -1.9986
 4676TIP3    H235444   2.617   0.484  16.025 -0.5451  0.7451  0.7157
 4677TIP3   OH235445   0.662   4.319  12.321  0.2917 -0.3590 -0.4034
 4677TIP3    H135446   0.636   4.272  12.400 -0.3574 -0.3851 -0.6333
 4677TIP3    H235447   0.651   4.256  12.250  2.1962 -0.7901 -0.3601
 4678TIP3   OH235448   5.425   2.348  14.443  0.7671  0.1262  0.2651
 4678TIP3    H135449   5.464   2.320  14.360  0.5465 -0.5665  0.3881
 4678TIP3    H235450   5.402   2.266  14.487 -1.0433  0.5114  0.0946
 4679TIP3   OH235451   5.874   5.201   1.148 -0.1903  0.2363  0.1557
 4679TIP3    H135452   5.955   5.222   1.102 -0.2192 -1.0585 -0.4902
 4679TIP3    H235453   5.900   5.141   1.217 -0.4840  0.4516  0.4570
 4680TIP3   OH235454   6.024   3.293   1.519 -0.4189 -0.2250  0.2736
 4680TIP3    H135455   6.103   3.338   1.550 -0.9783  1.1178 -0.2212
 4680TIP3    H235456   5.954   3.356   1.533 -0.9702 -0.3174 -1.9497
 4681TIP3   OH235457   4.968   2.326   2.494 -0.0824 -0.1040  0.2281
 4681TIP3    H135458   4.904   2.390   2.465  1.6707  1.7453  0.2909
 4681TIP3    H235459   5.035   2.378   2.540  0.6542 -2.1427  1.5624
 4682TIP3   OH235460   5.194   4.184   0.250 -0.4962  0.6002 -0.3452
 4682TIP3    H135461   5.110   4.143   0.273  0.3350 -0.7536  0.3234
 4682TIP3    H235462   5.260   4.125   0.285  0.7527  1.6985 -0.8070
 4683TIP3   OH235463   4.935   2.141   1.050 -0.0997  0.4883 -0.6526
 4683TIP3    H135464   4.924   2.120   0.958  2.3705  0.5367 -1.0112
 4683TIP3    H235465   4.900   2.065   1.097  2.0018 -1.2038 -1.7386
 4684TIP3   OH235466   0.788   2.582  16.475  0.1426 -0.2909 -0.6118
 4684TIP3    H135467   0.831   2.602  16.392  0.2798  0.1748 -0.4244
 4684TIP3    H235468   0.861   2.565  16.536  0.0653  0.4355 -0.3116
 4685TIP3   OH235469   4.658   5.315  13.352  0.2134  0.3076 -0.3218
 4685TIP3    H135470   4.727   5.319  13.418 -0.5246  1.1035  0.4096
 4685TIP3    H235471   4.578   5.336  13.399 -0.2701  1.2483 -1.5349
 4686TIP3   OH235472   3.932   4.105   5.953 -0.2743 -0.4821  0.0219
 4686TIP3    H135473   3.909   4.143   6.038  0.9752  1.2572 -0.3893
 4686TIP3    H235474   3.999   4.039   5.974 -0.6594 -0.7346  0.4791
 4687TIP3   OH235475   4.217   5.850  15.734  0.0623  0.2286 -0.0607
 4687TIP3    H135476   4.282   5.858  15.665 -0.7076 -0.1868 -0.8504
 4687TIP3    H235477   4.226   5.930  15.786  0.3416  0.7521 -0.9089
 4688TIP3   OH235478   6.710   1.771   5.852 -0.5785 -0.0377 -0.3648
 4688TIP3    H135479   6.707   1.865   5.867  2.2987  0.0941 -0.3318
 4688TIP3    H235480   6.624   1.739   5.881 -1.9508  2.6582 -1.2657
 4689TIP3   OH235481   1.881   0.136  15.054 -0.3986  0.4959 -0.0592
 4689TIP3    H135482   1.927   0.220  15.042  0.3676  0.0204 -0.5295
 4689TIP3    H235483   1.939   0.072  15.012 -0.9876 -0.2654  0.2971
 4690TIP3   OH235484   3.506   1.948  14.262 -0.3582 -0.0606 -0.0247
 4690TIP3    H135485   3.482   1.964  14.353  1.4672  0.2877  0.4128
 4690TIP3    H235486   3.600   1.927  14.265 -0.3316 -0.2775 -1.7897
 4691TIP3   OH235487   2.497   6.583   2.472  0.0583  0.2024  0.2714
 4691TIP3    H135488   2.575   6.570   2.418  0.0245 -0.6270  0.4162
 4691TIP3    H235489   2.532   6.609   2.558  0.1973 -0.4770  0.4278
 4692TIP3   OH235490   5.259   1.498   2.772 -0.3120 -0.0469 -0.0535
 4692TIP3    H135491   5.188   1.555   2.742 -0.3739  1.2103  2.3581
 4692TIP3    H235492   5.228   1.409   2.756 -1.0218  0.5284 -2.0766
 4693TIP3   OH235493   4.790   0.251   2.058 -0.1030  0.4606  0.0013
 4693TIP3    H135494   4.749   0.208   1.984 -0.6036  0.3236  0.3559
 4693TIP3    H235495   4.838   0.324   2.020 -0.4494  0.4562 -0.4463
 4694TIP3   OH235496   6.761   6.741   4.776 -0.4426  0.0576  0.3620
 4694TIP3    H135497   6.717   6.694   4.846 -0.7336  2.4071  1.8110
 4694TIP3    H235498   6.842   6.774   4.816 -0.1302  0.5799 -0.6715
 4695TIP3   OH235499   0.107   1.234  13.944 -0.4332 -0.1238 -0.4819
 4695TIP3    H135500   0.160   1.225  13.866 -0.8570 -0.6815 -0.7130
 4695TIP3    H235501   0.140   1.167  14.004 -0.2426  0.1675 -0.2605
 4696TIP3   OH235502   5.659   1.781  16.626  0.2519  0.1615 -0.0095
 4696TIP3    H135503   5.661   1.777  16.722  1.3087  1.4677  0.0359
 4696TIP3    H235504   5.592   1.718  16.601 -0.7621  0.5339  1.6453
 4697TIP3   OH235505   1.051   5.527   3.864  0.1426  0.2499  0.2343
 4697TIP3    H135506   1.128   5.532   3.807  1.2736  1.2278  1.7914
 4697TIP3    H235507   1.037   5.617   3.893  1.1612 -0.5628  3.4876
 4698TIP3   OH235508   6.510   2.311   0.106  0.3009  0.1607 -0.1841
 4698TIP3    H135509   6.603   2.329   0.120  0.5733 -0.0945 -1.5654
 4698TIP3    H235510   6.468   2.331   0.190  1.3044  2.2407 -0.1626
 4699TIP3   OH235511   0.556   1.169   1.815 -0.5530 -0.6846  0.2655
 4699TIP3    H135512   0.625   1.130   1.869 -0.3603  0.1704  0.6479
 4699TIP3    H235513   0.486   1.189   1.877  0.2332  1.6165  0.4633
 4700TIP3   OH235514   2.129   4.069   0.465  0.2521  0.1614  0.5581
 4700TIP3    H135515   2.188   4.137   0.496  1.0711  0.0544 -0.7424
 4700TIP3    H235516   2.114   4.090   0.373  0.9941 -1.7562 -0.0252
 4701TIP3   OH235517   6.145   0.745  15.346  0.4381 -0.6445  0.2808
 4701TIP3    H135518   6.170   0.793  15.267 -1.4327 -0.3405 -0.1539
 4701TIP3    H235519   6.052   0.765  15.357  0.9634  0.3093  3.2691
 4702TIP3   OH235520   0.265   5.492  14.055 -0.0407  0.0086  0.3124
 4702TIP3    H135521   0.179   5.482  14.014  0.7199  0.5511 -1.5053
 4702TIP3    H235522   0.305   5.406  14.048  0.5169  0.3667 -1.1599
 4703TIP3   OH235523   4.873   2.552  15.537 -0.1508 -0.2808 -0.3246
 4703TIP3    H135524   4.781   2.548  15.513 -0.4113  0.9810  0.4697
 4703TIP3    H235525   4.913   2.610  15.472  0.2752 -1.5385 -1.2167
 4704TIP3   OH235526   1.561   5.019   0.336  0.3378 -0.1595 -0.1489
 4704TIP3    H135527   1.604   5.040   0.253 -0.9385  0.2081 -0.7282
 4704TIP3    H235528   1.582   4.927   0.352  0.5279 -0.2529 -0.9261
 4705TIP3   OH235529   6.586   0.082  13.263  0.0348  0.2347 -0.0904
 4705TIP3    H135530   6.535   0.035  13.330 -0.8259  2.4215  0.8179
 4705TIP3    H235531   6.655   0.127  13.313  2.5507 -2.1866 -1.2436
 4706TIP3   OH235532   6.267   3.230   4.521  0.2565 -0.3850  0.0518
 4706TIP3    H135533   6.266   3.246   4.427 -0.2872 -1.1600 -0.0799
 4706TIP3    H235534   6.354   3.194   4.539  1.0629  1.5867  0.1661
 4707TIP3   OH235535   6.633   4.143   5.619 -0.2381  0.3002 -0.4916
 4707TIP3    H135536   6.699   4.085   5.658 -0.8579  0.4972  0.8844
 4707TIP3    H235537   6.575   4.085   5.570 -0.2963 -0.1209  0.0780
 4708TIP3   OH235538   6.151   1.414   5.536  0.0041  0.9465 -0.1367
 4708TIP3    H135539   6.070   1.421   5.485 -0.6173  0.4432  0.7786
 4708TIP3    H235540   6.131   1.458   5.619  0.2641 -0.2755  0.5791
 4709TIP3   OH235541   4.163   3.160  11.697  0.5464  0.1143 -0.0163
 4709TIP3    H135542   4.146   3.163  11.791 -0.2608  0.3038 -0.1685
 4709TIP3    H235543   4.121   3.239  11.662  0.7747  0.0020 -0.5525
 4710TIP3   OH235544   3.998   4.061   5.341 -0.2119  0.3397 -0.0947
 4710TIP3    H135545   4.065   4.087   5.404 -0.5309  1.8050 -0.3363
 4710TIP3    H235546   4.028   4.098   5.258 -0.5147 -0.3569 -0.5165
 4711TIP3   OH235547   0.543   2.912   0.447 -0.5848  0.5172  0.4906
 4711TIP3    H135548   0.635   2.936   0.436 -0.0587 -1.3391  0.7602
 4711TIP3    H235549   0.505   2.985   0.496  0.7816  1.2191  0.5277
 4712TIP3   OH235550   1.238   6.505   5.991  0.5925 -0.2501  0.0724
 4712TIP3    H135551   1.330   6.521   6.012  0.0191  0.1878  2.3315
 4712TIP3    H235552   1.194   6.497   6.076 -1.6270  0.4549 -0.9606
 4713TIP3   OH235553   5.048   5.195  15.839  0.1564 -0.2475  0.2156
 4713TIP3    H135554   5.139   5.166  15.837  0.3892  0.4777  0.2410
 4713TIP3    H235555   4.997   5.114  15.833  0.8019 -0.6284 -0.1535
 4714TIP3   OH235556   6.398   4.234   4.338 -0.0161  0.2649 -0.1906
 4714TIP3    H135557   6.322   4.193   4.297 -0.1653 -0.6530  0.9749
 4714TIP3    H235558   6.470   4.171   4.325 -0.4533 -0.8451  2.3850
 4715TIP3   OH235559   2.651   2.712  14.399  0.0985 -0.2708 -0.1223
 4715TIP3    H135560   2.677   2.705  14.491  0.2842 -3.3987 -0.3482
 4715TIP3    H235561   2.724   2.756  14.356  0.8124 -0.4380  0.9088
 4716TIP3   OH235562   5.479   6.690  11.992  0.1882 -0.5201  0.5836
 4716TIP3    H135563   5.479   6.595  11.979  0.0161 -0.5372  0.7152
 4716TIP3    H235564   5.537   6.704  12.067  1.3701 -0.4012 -0.3394
 4717TIP3   OH235565   2.455   6.330  13.346 -0.2042  0.0029 -0.2502
 4717TIP3    H135566   2.383   6.392  13.351 -0.1164  0.0636  0.2686
 4717TIP3    H235567   2.433   6.262  13.409  1.4113  1.3004  1.7459
 4718TIP3   OH235568   6.637   4.944   3.689 -0.2209 -0.3338  0.0608
 4718TIP3    H135569   6.680   5.013   3.739  0.1653  0.1512 -0.9243
 4718TIP3    H235570   6.548   4.941   3.723 -0.6294  1.5818 -0.8233
 4719TIP3   OH235571   0.085   6.138  16.663 -0.1160  0.0911  0.1211
 4719TIP3    H135572   0.093   6.232  16.648 -0.7977 -0.0213 -0.9801
 4719TIP3    H235573   0.102   6.098  16.577  4.0200 -1.0273  1.3426
 4720TIP3   OH235574   1.363   0.780  16.805  0.6262 -0.2232  0.1698
 4720TIP3    H135575   1.456   0.800  16.791  0.7987 -1.1953 -0.1054
 4720TIP3    H235576   1.339   0.723  16.732 -0.3455  0.4947 -0.0803
 4721TIP3   OH235577   1.035   0.251   5.122  0.1764  0.5808  0.0516
 4721TIP3    H135578   1.118   0.222   5.159  0.1205  0.6351  0.2243
 4721TIP3    H235579   1.048   0.248   5.028 -0.3848 -1.6023  0.0235
 4722TIP3   OH235580   4.585   0.287   0.905  0.7121 -0.4767 -0.5833
 4722TIP3    H135581   4.623   0.371   0.933 -0.2751  0.0060 -0.6800
 4722TIP3    H235582   4.583   0.292   0.810  2.4463 -1.4136 -0.6974
 4723TIP3   OH235583   3.860   0.190  15.542 -0.2105  0.3104  0.1054
 4723TIP3    H135584   3.824   0.102  15.546  1.0477 -0.2338 -0.2518
 4723TIP3    H235585   3.916   0.190  15.465  0.6941  1.0761  0.7430
 4724TIP3   OH235586   4.966   5.033  14.989  0.5860 -0.2330  0.0088
 4724TIP3    H135587   5.056   5.062  15.002  0.3912 -0.0467  0.9476
 4724TIP3    H235588   4.943   4.989  15.071 -0.5898  0.8068  0.2396
 4725TIP3   OH235589   5.174   4.625  17.006 -0.0008 -0.3625  0.6134
 4725TIP3    H135590   5.151   4.534  16.987  0.7643 -0.6519  1.0664
 4725TIP3    H235591   5.191   4.664  16.921  0.0468 -0.7450  0.4461
 4726TIP3   OH235592   3.027   2.946  16.094  0.2611  0.5083  0.7558
 4726TIP3    H135593   2.970   3.015  16.128 -0.8452 -0.2212  0.3954
 4726TIP3    H235594   2.983   2.864  16.116 -1.0175 -0.0041 -3.2270
 4727TIP3   OH235595   1.636   2.621   0.096 -0.2082 -0.1217  0.3443
 4727TIP3    H135596   1.592   2.661   0.170 -2.2321 -1.4101 -0.1466
 4727TIP3    H235597   1.598   2.534   0.089  2.3876 -1.2592 -0.1245
 4728TIP3   OH235598   6.053   3.598  16.118 -0.5671  0.3212  0.1456
 4728TIP3    H135599   6.038   3.515  16.072 -0.5091 -0.2299  1.1159
 4728TIP3    H235600   6.014   3.664  16.060  0.0802 -0.2923 -1.0119
 4729TIP3   OH235601   2.049   4.913  14.553  0.0662 -0.6320 -0.7038
 4729TIP3    H135602   2.106   4.882  14.483  0.7082 -0.5246 -0.2342
 4729TIP3    H235603   2.102   4.977  14.600  0.1214 -1.6730  0.6955
 4730TIP3   OH235604   3.933   2.310  14.611 -0.4121  0.1821 -0.4734
 4730TIP3    H135605   3.869   2.255  14.566 -0.6185  0.5424 -0.6236
 4730TIP3    H235606   3.880   2.377  14.655 -0.3367 -1.0975  1.6365
 4731TIP3   OH235607   2.873   5.362  12.054  0.1970 -0.1132  0.4690
 4731TIP3    H135608   2.889   5.284  12.002 -0.0022  1.0940 -1.4523
 4731TIP3    H235609   2.780   5.379  12.044  0.5795  1.4218 -0.6609
 4732TIP3   OH235610   2.929   4.626  14.168 -0.2411 -0.1987 -0.4294
 4732TIP3    H135611   2.916   4.688  14.096 -0.5182  0.7177  0.3901
 4732TIP3    H235612   3.005   4.661  14.216 -0.3461 -0.5429 -0.0121
 4733TIP3   OH235613   3.942   0.508  16.973 -0.1598 -0.5498 -0.1436
 4733TIP3    H135614   3.913   0.430  16.926 -1.5448 -0.2838  0.2669
 4733TIP3    H235615   3.869   0.569  16.967  1.0936  0.9151 -0.8670
 4734TIP3   OH235616   4.217   5.432   4.911 -0.1299  0.1219 -0.4034
 4734TIP3    H135617   4.292   5.379   4.885 -0.7119 -0.6432 -0.5595
 4734TIP3    H235618   4.255   5.507   4.957  0.6649 -0.8541  0.5680
 4735TIP3   OH235619   2.039   3.493  12.841 -0.3599 -0.4785  0.3203
 4735TIP3    H135620   2.113   3.476  12.899 -0.2478 -1.5003 -0.1091
 4735TIP3    H235621   1.965   3.451  12.884  0.0352 -2.6819 -1.0474
 4736TIP3   OH235622   2.939   2.322   3.000  0.1723 -0.8075  0.3612
 4736TIP3    H135623   2.890   2.340   3.081 -0.4475  1.7803 -0.5360
 4736TIP3    H235624   2.963   2.230   3.007  1.1677 -0.3750  4.0576
 4737TIP3   OH235625   1.228   1.482   2.439 -0.1103 -0.3883  0.7000
 4737TIP3    H135626   1.324   1.483   2.438 -0.0861 -2.0172  0.8198
 4737TIP3    H235627   1.205   1.475   2.532 -0.3090 -1.7875  0.5558
 4738TIP3   OH235628   4.709   0.611  11.490 -0.2205  0.2838  0.1327
 4738TIP3    H135629   4.667   0.527  11.504  0.7670 -0.5694 -1.8224
 4738TIP3    H235630   4.682   0.637  11.402 -2.6815  3.3299  1.6884
 4739TIP3   OH235631   3.352   2.091   4.212  0.1605 -0.3268 -0.1089
 4739TIP3    H135632   3.277   2.091   4.271  0.1909  1.2721 -0.0596
 4739TIP3    H235633   3.403   2.168   4.237  0.0697  0.5007 -2.3491
 4740TIP3   OH235634   5.024   5.241   4.942  0.6991  0.0879  0.5824
 4740TIP3    H135635   4.968   5.249   4.864 -0.6277 -2.0224  1.2766
 4740TIP3    H235636   5.053   5.330   4.960  0.5600  0.6867 -1.9952
 4741TIP3   OH235637   5.728   1.496   3.951  0.1668 -0.1703 -0.3698
 4741TIP3    H135638   5.633   1.494   3.963  0.0338  2.0837 -0.6919
 4741TIP3    H235639   5.741   1.541   3.868  1.4714 -3.2470 -1.8768
 4742TIP3   OH235640   1.897   3.070  11.437 -0.0395 -0.0590 -0.2257
 4742TIP3    H135641   1.899   3.135  11.507  2.0023  1.6510 -1.8269
 4742TIP3    H235642   1.848   3.111  11.366  0.1339 -0.7882 -0.7784
 4743TIP3   OH235643   3.683   3.995   0.456  0.2125  0.4130 -0.3503
 4743TIP3    H135644   3.718   3.968   0.541  0.6947  0.9895 -0.3581
 4743TIP3    H235645   3.639   3.918   0.422 -0.9690  0.5137  0.9302
 4744TIP3   OH235646   2.343   5.746   2.562 -0.3496 -0.7259  0.3232
 4744TIP3    H135647   2.400   5.823   2.558 -0.6162 -0.5011  0.7849
 4744TIP3    H235648   2.256   5.779   2.539 -0.1516 -1.2150 -1.1470
 4745TIP3   OH235649   3.846   5.919   4.674 -0.0586  0.3609  0.5709
 4745TIP3    H135650   3.850   5.997   4.619  0.9042 -0.4985 -0.6211
 4745TIP3    H235651   3.922   5.927   4.731 -0.2725  0.5652  0.8283
 4746TIP3   OH235652   1.648   5.227  17.151 -0.1434 -0.2079  0.7434
 4746TIP3    H135653   1.691   5.307  17.120 -1.1683  0.7740  1.7648
 4746TIP3    H235654   1.568   5.221  17.097  0.0688 -0.7076  0.4789
 4747TIP3   OH235655   5.340   6.280  16.849 -0.8957 -0.6359 -0.6408
 4747TIP3    H135656   5.316   6.285  16.941  2.0569 -2.0769  0.2717
 4747TIP3    H235657   5.296   6.200  16.817 -0.9929 -0.7585 -0.2030
 4748TIP3   OH235658   6.279   0.872  16.963 -0.4827 -0.2002  0.4770
 4748TIP3    H135659   6.336   0.799  16.936 -1.7731 -0.4241 -1.6644
 4748TIP3    H235660   6.278   0.866  17.059  0.7711 -1.9786  0.4080
 4749TIP3   OH235661   1.137   4.683  13.983 -0.3726  0.0372 -0.0042
 4749TIP3    H135662   1.157   4.769  13.946  1.2948  0.8751  2.6782
 4749TIP3    H235663   1.058   4.698  14.036 -0.0951 -0.0722  0.4449
 4750TIP3   OH235664   3.483   1.252   3.990  0.2813  0.5006  0.2500
 4750TIP3    H135665   3.408   1.311   3.987 -0.3466 -0.2028  1.4310
 4750TIP3    H235666   3.449   1.169   3.958  0.8387  0.4693 -0.2463
 4751TIP3   OH235667   2.133   3.784   1.552  0.3167  0.4468  0.0917
 4751TIP3    H135668   2.151   3.869   1.512  2.2463 -0.0065 -0.0390
 4751TIP3    H235669   2.219   3.746   1.566 -0.5360 -1.4990  0.1394
 4752TIP3   OH235670   2.531   1.099  15.464 -0.3822  0.9443  0.1421
 4752TIP3    H135671   2.454   1.132  15.417 -1.3867 -2.0907 -0.4234
 4752TIP3    H235672   2.495   1.049  15.538  1.0376 -0.4083 -0.0586
 4753TIP3   OH235673   2.154   1.325   1.569  0.1949 -0.2067  0.1592
 4753TIP3    H135674   2.059   1.323   1.574  0.0172 -1.9841 -2.7137
 4753TIP3    H235675   2.177   1.418   1.577 -1.6050  0.0911  2.4884
 4754TIP3   OH235676   6.396   6.634  14.596 -0.4000 -0.1350 -0.3212
 4754TIP3    H135677   6.431   6.687  14.524  2.0489 -3.1752 -1.5040
 4754TIP3    H235678   6.357   6.697  14.656  3.7341  3.1725 -0.9202
 4755TIP3   OH235679   0.548   2.721  11.706  0.8236 -0.3530 -0.8998
 4755TIP3    H135680   0.477   2.778  11.737  0.7299 -0.5995 -0.6562
 4755TIP3    H235681   0.514   2.632  11.716  0.9454 -0.4487 -1.3413
 4756TIP3   OH235682   3.982   2.975  15.093  0.1456  0.9792 -0.1317
 4756TIP3    H135683   3.889   2.992  15.107 -0.1281 -1.4097  1.2812
 4756TIP3    H235684   3.985   2.917  15.017  0.2699 -0.8219  1.2135
 4757TIP3   OH235685   2.551   0.982   3.634  0.7232 -0.3735  0.5960
 4757TIP3    H135686   2.545   1.055   3.696  2.5981  0.3338 -0.0128
 4757TIP3    H235687   2.539   0.904   3.687  2.1169  0.2376  1.8340
 4758TIP3   OH235688   4.317   6.349  12.884  0.2211 -0.0747 -0.2359
 4758TIP3    H135689   4.266   6.279  12.925 -0.2739  0.1885 -0.3950
 4758TIP3    H235690   4.406   6.314  12.878 -0.0478 -0.7292 -0.4120
 4759TIP3   OH235691   2.600   5.059  13.965  0.6119 -0.1721 -0.2387
 4759TIP3    H135692   2.637   5.072  13.877 -0.1437 -0.9938 -0.6864
 4759TIP3    H235693   2.633   4.973  13.992 -1.5397 -1.2513 -0.9500
 4760TIP3   OH235694   0.314   5.034  13.068 -0.6428 -0.0927 -0.4132
 4760TIP3    H135695   0.220   5.037  13.088 -0.6550 -1.9682 -0.1236
 4760TIP3    H235696   0.335   5.123  13.041 -2.2244  0.6732  0.7910
 4761TIP3   OH235697   3.096   1.303  15.814 -1.1147 -0.3179  0.1405
 4761TIP3    H135698   3.080   1.214  15.845 -1.2618 -0.2814  0.1675
 4761TIP3    H235699   3.152   1.342  15.881 -0.4675 -0.6192 -0.2162
 4762TIP3   OH235700   3.665   5.950   1.682 -0.2045  0.4317  0.0037
 4762TIP3    H135701   3.624   6.021   1.632  0.5129  0.3005 -0.7879
 4762TIP3    H235702   3.674   5.879   1.619  0.0553  0.0157  0.5084
 4763TIP3   OH235703   5.414   3.775  11.777 -0.0791  0.0215 -0.1857
 4763TIP3    H135704   5.340   3.761  11.837 -0.9628  0.1981 -1.2103
 4763TIP3    H235705   5.489   3.792  11.835 -0.7205 -0.6998  0.8866
 4764TIP3   OH235706   4.811   3.642   1.695 -0.1493  0.1366 -0.1958
 4764TIP3    H135707   4.761   3.722   1.682 -0.4321 -0.3485 -2.3025
 4764TIP3    H235708   4.844   3.620   1.608  0.3506 -1.7500  0.4468
 4765TIP3   OH235709   5.070   2.134  12.505 -0.0738  0.2204 -0.9750
 4765TIP3    H135710   5.032   2.110  12.590 -0.1948 -0.3635 -1.1933
 4765TIP3    H235711   5.088   2.228  12.513  0.1322  0.1254 -0.2189
 4766TIP3   OH235712   2.747   2.432   4.234 -0.1958  0.1618 -0.0141
 4766TIP3    H135713   2.719   2.509   4.284 -1.3717  0.7432 -1.5228
 4766TIP3    H235714   2.671   2.375   4.232 -0.3948  0.4700 -1.7405
 4767TIP3   OH235715   4.185   5.980  13.496  0.0339 -0.0201  0.1800
 4767TIP3    H135716   4.238   6.045  13.448  0.5481 -0.9024 -0.4636
 4767TIP3    H235717   4.159   5.917  13.429 -0.2318 -0.6332  0.8559
 4768TIP3   OH235718   5.461   2.111   4.847 -0.3048  0.1009 -0.0372
 4768TIP3    H135719   5.374   2.072   4.839 -0.3781 -0.3189  2.4492
 4768TIP3    H235720   5.477   2.153   4.762 -2.2886 -1.1027 -1.0299
 4769TIP3   OH235721   2.808   6.200  16.187 -0.3810  0.5032 -0.0189
 4769TIP3    H135722   2.742   6.157  16.241 -0.9782  0.5980 -0.6532
 4769TIP3    H235723   2.887   6.149  16.200 -1.2916 -1.3376 -1.4459
 4770TIP3   OH235724   2.169   4.639   4.366 -0.0159 -0.3628 -0.0148
 4770TIP3    H135725   2.075   4.643   4.380  0.1710  2.8008  0.6785
 4770TIP3    H235726   2.187   4.704   4.299  1.7667 -0.3658  0.4293
 4771TIP3   OH235727   2.366   0.882  16.993 -0.1022  0.2058  0.3017
 4771TIP3    H135728   2.424   0.875  16.918  0.9804  1.0060  1.0419
 4771TIP3    H235729   2.356   0.976  17.007  1.1008  0.0866  2.1850
 4772TIP3   OH235730   1.309   6.160  15.106  0.4383  0.6686  0.2176
 4772TIP3    H135731   1.344   6.145  15.194 -0.5108  1.3876  0.7357
 4772TIP3    H235732   1.255   6.083  15.089  0.5212  0.5873  0.3174
 4773TIP3   OH235733   1.041   2.746   4.335  0.2585 -0.5542 -0.0535
 4773TIP3    H135734   1.066   2.713   4.249 -0.1178 -0.8626 -0.0421
 4773TIP3    H235735   1.079   2.834   4.338 -0.8753 -0.0195 -1.0619
 4774TIP3   OH235736   6.754   4.941   5.030  0.1443 -0.4428 -0.0352
 4774TIP3    H135737   6.681   4.931   5.091 -1.7775 -0.6841 -2.2968
 4774TIP3    H235738   6.779   5.033   5.036 -1.2897 -0.0291 -0.2629
 4775TIP3   OH235739   0.882   2.815  15.649  0.5407  0.2157  0.9039
 4775TIP3    H135740   0.964   2.814  15.600  1.3339  3.0692  2.0662
 4775TIP3    H235741   0.886   2.737  15.704  1.4647 -0.8471 -0.6324
 4776TIP3   OH235742   3.651   2.822  14.440 -0.1457  0.0728 -0.1773
 4776TIP3    H135743   3.705   2.795  14.515  0.1094 -0.1964 -0.4543
 4776TIP3    H235744   3.696   2.786  14.364  0.0637  1.0867 -0.5341
 4777TIP3   OH235745   3.062   0.923   1.739  0.3107  0.4607 -0.0339
 4777TIP3    H135746   3.138   0.974   1.711 -0.1287 -0.0730 -2.2807
 4777TIP3    H235747   3.029   0.883   1.659 -2.5049  0.8787  0.8798
 4778TIP3   OH235748   6.161   3.338   0.477  0.0183 -0.3359  0.1356
 4778TIP3    H135749   6.251   3.369   0.469  0.1773 -1.0142 -0.7377
 4778TIP3    H235750   6.167   3.267   0.542  0.1002 -0.3384  0.1259
 4779TIP3   OH235751   6.250   1.425  15.041  0.3491  0.0573 -0.3357
 4779TIP3    H135752   6.306   1.496  15.010 -0.4397  1.3947  1.2351
 4779TIP3    H235753   6.303   1.377  15.104  0.1599  0.5403  0.1892
 4780TIP3   OH235754   1.723   6.251   0.067  0.1869  0.2879 -0.1716
 4780TIP3    H135755   1.696   6.342   0.080  0.4888  0.4030 -0.3331
 4780TIP3    H235756   1.692   6.205   0.145 -0.1938  0.4758 -0.2098
 4781TIP3   OH235757   2.641   6.155   5.878 -0.1801  0.3781  0.1903
 4781TIP3    H135758   2.582   6.084   5.852  0.7437 -0.1150 -0.5835
 4781TIP3    H235759   2.582   6.227   5.900 -1.1632 -0.8138  1.6331
 4782TIP3   OH235760   2.442   6.294   0.152  0.4868  0.5798  0.6687
 4782TIP3    H135761   2.424   6.349   0.228  2.0539  0.0327  1.4567
 4782TIP3    H235762   2.534   6.310   0.132  0.4537 -0.3356 -0.2470
 4783TIP3   OH235763   4.397   3.696   1.022 -0.0061 -0.4323 -0.1008
 4783TIP3    H135764   4.485   3.663   1.040 -0.0168 -0.5582 -0.2759
 4783TIP3    H235765   4.339   3.636   1.069 -0.0343 -0.7545 -0.5427
 4784TIP3   OH235766   3.447   4.701   0.746 -0.4922  0.5068  0.2069
 4784TIP3    H135767   3.399   4.638   0.692 -2.1653  1.7864  0.1485
 4784TIP3    H235768   3.419   4.682   0.836  1.1008 -0.5977  0.4995
 4785TIP3   OH235769   2.165   4.654  11.174  0.9868 -0.3158 -0.2223
 4785TIP3    H135770   2.221   4.576  11.174  2.1554  0.5086 -0.2244
 4785TIP3    H235771   2.219   4.722  11.214  0.3530  0.7560 -1.1708
 4786TIP3   OH235772   5.287   4.409   1.405  0.8617 -0.1652  0.3198
 4786TIP3    H135773   5.200   4.414   1.445  0.6387  0.6761 -0.2626
 4786TIP3    H235774   5.340   4.362   1.470 -0.2421 -1.5199  0.2802
 4787TIP3   OH235775   5.886   1.081   6.035 -0.3055 -0.8548  0.4100
 4787TIP3    H135776   5.884   1.144   6.107 -0.1952 -1.3105  0.8225
 4787TIP3    H235777   5.966   1.101   5.987  0.4062 -1.4958  1.2980
 4788TIP3   OH235778   3.760   2.366   5.754  0.2011 -0.5391  0.4911
 4788TIP3    H135779   3.701   2.293   5.769 -0.6164  0.1525  0.6954
 4788TIP3    H235780   3.760   2.414   5.837 -0.4738  0.5454 -0.1211
 4789TIP3   OH235781   5.396   1.832   0.386  0.5094 -0.0153  0.2566
 4789TIP3    H135782   5.382   1.750   0.433  0.8225  0.0612  0.4804
 4789TIP3    H235783   5.479   1.821   0.340 -0.0723 -0.3035 -0.7346
 4790TIP3   OH235784   6.098   5.903  11.660 -0.0350  0.6492  0.4720
 4790TIP3    H135785   6.059   5.879  11.576  1.4355  2.6986 -0.8271
 4790TIP3    H235786   6.045   5.977  11.691 -0.5877 -0.1116  1.3889
 4791TIP3   OH235787   4.821   1.824   2.682  0.2798 -0.0145  1.1042
 4791TIP3    H135788   4.809   1.779   2.598  0.3606 -0.0286  1.0994
 4791TIP3    H235789   4.797   1.915   2.665 -0.8982 -0.2637  1.3763
 4792TIP3   OH235790   1.969   5.026   2.486 -0.0973 -0.1844 -0.2338
 4792TIP3    H135791   2.041   5.076   2.524 -0.4800  0.4080 -0.2746
 4792TIP3    H235792   1.931   5.085   2.421  0.7630 -1.3109 -1.7837
 4793TIP3   OH235793   1.207   1.392   2.190  0.2668  0.4198  0.0532
 4793TIP3    H135794   1.208   1.450   2.266  0.3372 -0.3660  0.6600
 4793TIP3    H235795   1.115   1.368   2.179 -0.1842  2.7880 -1.8716
 4794TIP3   OH235796   2.052   2.747   1.698  0.0329 -0.0986  0.0226
 4794TIP3    H135797   2.040   2.800   1.619  0.0358 -1.4020 -0.8621
 4794TIP3    H235798   2.005   2.796   1.767 -0.7784  0.5594 -0.9845
 4795TIP3   OH235799   1.863   3.134  14.368 -0.1355 -0.6512 -0.3325
 4795TIP3    H135800   1.907   3.170  14.445  1.6490  0.7849 -1.9742
 4795TIP3    H235801   1.829   3.049  14.398 -0.9256  0.5903  2.4700
 4796TIP3   OH235802   6.544   5.745   1.597 -0.0535 -0.4035  0.2094
 4796TIP3    H135803   6.477   5.811   1.579  1.4579  1.1556  0.0897
 4796TIP3    H235804   6.572   5.715   1.510  0.7805  0.4043  0.1888
 4797TIP3   OH235805   3.209   2.703   3.611  0.4896 -0.1511  0.7395
 4797TIP3    H135806   3.213   2.707   3.706  0.3011 -1.3330  0.8070
 4797TIP3    H235807   3.294   2.737   3.581  0.6262  0.0246  1.3332
 4798TIP3   OH235808   6.586   0.499   5.771 -0.7246  0.2029 -0.4764
 4798TIP3    H135809   6.632   0.426   5.730  2.6755  1.1826  1.3449
 4798TIP3    H235810   6.563   0.466   5.858  1.9399  1.5985  0.8249
 4799TIP3   OH235811   2.892   2.848  10.687 -0.0543 -0.2808  0.2264
 4799TIP3    H135812   2.922   2.896  10.609  0.1043 -0.4383  0.1923
 4799TIP3    H235813   2.947   2.881  10.758 -1.1919  0.9687  0.5696
 4800TIP3   OH235814   3.821   2.569   0.839  0.2902 -0.2216  0.1009
 4800TIP3    H135815   3.771   2.639   0.880 -0.4579  0.0861 -1.3001
 4800TIP3    H235816   3.798   2.491   0.889 -1.2688 -0.0071 -0.2606
 4801TIP3   OH235817   5.350   3.541   5.918 -0.1179  0.5644 -0.0703
 4801TIP3    H135818   5.367   3.546   6.012 -0.9258 -0.2686  0.1178
 4801TIP3    H235819   5.270   3.591   5.905 -1.1374 -1.0394 -0.0204
 4802TIP3   OH235820   0.112   5.239  15.579  0.5818  0.1779  0.1639
 4802TIP3    H135821   0.145   5.300  15.645  1.3347  0.1422 -0.1720
 4802TIP3    H235822   0.019   5.231  15.598  0.8317 -0.0193  1.3769
 4803TIP3   OH235823   1.851   2.869  12.740  0.7770  0.0461 -0.1581
 4803TIP3    H135824   1.841   2.862  12.645 -0.1248  0.9026 -0.1387
 4803TIP3    H235825   1.772   2.829  12.775  1.1639 -0.3738  0.2362
 4804TIP3   OH235826   3.241   1.630   5.194 -0.9288 -0.0370  0.3132
 4804TIP3    H135827   3.187   1.655   5.119 -0.0277 -0.2739 -0.4192
 4804TIP3    H235828   3.233   1.704   5.255 -3.5429 -0.8651  1.0443
 4805TIP3   OH235829   4.341   1.143   5.731 -0.1007 -0.7557  0.9775
 4805TIP3    H135830   4.247   1.134   5.751  0.0012 -0.9582  1.3803
 4805TIP3    H235831   4.348   1.123   5.638 -0.8292  1.8914  0.3111
 4806TIP3   OH235832   3.073   5.329  15.542  0.8461 -0.1255 -0.1359
 4806TIP3    H135833   3.007   5.347  15.608 -1.5668 -1.1146 -2.1727
 4806TIP3    H235834   3.149   5.382  15.567 -1.2609  2.2495  1.4016
 4807TIP3   OH235835   1.751   1.593  14.940 -0.0880 -0.1893 -0.0620
 4807TIP3    H135836   1.785   1.639  14.863  0.0005 -1.3800 -0.7432
 4807TIP3    H235837   1.667   1.556  14.911  0.4695 -1.5902  0.0472
 4808TIP3   OH235838   5.467   2.166   0.335 -0.0229  0.1174  0.4948
 4808TIP3    H135839   5.494   2.248   0.375 -0.9453  0.6780 -0.0124
 4808TIP3    H235840   5.372   2.167   0.340  0.0094 -2.1090  2.8271
 4809TIP3   OH235841   4.354   0.389   0.601  0.4060  0.4593  0.1694
 4809TIP3    H135842   4.375   0.480   0.622 -1.6313  1.4888 -2.1404
 4809TIP3    H235843   4.385   0.377   0.512  1.5063 -1.4341  0.7621
 4810TIP3   OH235844   4.918   6.642  14.727 -0.3619 -0.0759 -0.2266
 4810TIP3    H135845   4.896   6.673  14.639  1.8220  0.5430 -0.5820
 4810TIP3    H235846   4.912   6.720  14.782 -1.5489 -0.4247  0.1390
 4811TIP3   OH235847   0.014   6.656  13.798  0.1494 -0.3310 -0.1120
 4811TIP3    H135848   0.029   6.751  13.799 -0.1021 -0.3003  0.5604
 4811TIP3    H235849   0.091   6.621  13.752  2.0020 -0.1043  2.6789
 4812TIP3   OH235850   5.659   6.017  10.784  0.1067  0.3967 -0.2913
 4812TIP3    H135851   5.664   6.099  10.833 -2.7365  0.6884 -0.4462
 4812TIP3    H235852   5.697   6.039  10.698  0.3521  1.2417  0.0261
 4813TIP3   OH235853   0.679   5.333  13.845 -0.0088  0.1331  0.1885
 4813TIP3    H135854   0.726   5.416  13.832 -1.5066  0.9656 -0.1281
 4813TIP3    H235855   0.734   5.283  13.906  0.7241  1.5377  0.7135
 4814TIP3   OH235856   2.768   4.515  17.028 -0.0684 -0.3136  0.1793
 4814TIP3    H135857   2.781   4.484  16.939  1.2785  0.5898  0.0368
 4814TIP3    H235858   2.722   4.598  17.019  0.4187 -0.0260  0.2896
 4815TIP3   OH235859   4.375   5.784  10.744 -0.5714 -0.3374 -0.2294
 4815TIP3    H135860   4.312   5.831  10.799  0.4413  2.2190 -1.1738
 4815TIP3    H235861   4.428   5.853  10.704  1.2205 -2.3268 -1.3937
 4816TIP3   OH235862   1.127   6.223   3.183  0.1361  0.3082 -0.0352
 4816TIP3    H135863   1.098   6.163   3.115  0.3328 -0.1173  0.2504
 4816TIP3    H235864   1.220   6.203   3.195 -0.3802 -1.1312  1.8607
 4817TIP3   OH235865   2.964   3.455  11.898 -1.1435  0.2867  0.1190
 4817TIP3    H135866   2.976   3.549  11.892  1.8362 -0.0630 -0.2543
 4817TIP3    H235867   2.938   3.439  11.988 -1.5178  1.4541  0.2186
 4818TIP3   OH235868   1.656   3.477   1.776  0.1387  0.5116 -0.5255
 4818TIP3    H135869   1.691   3.388   1.775 -0.9852  0.0627 -0.8748
 4818TIP3    H235870   1.686   3.515   1.694  0.6370  0.4650 -0.3680
 4819TIP3   OH235871   3.267   6.000   3.990  0.0245 -0.5855  0.0442
 4819TIP3    H135872   3.266   5.940   4.065 -1.0745 -1.1381 -0.4015
 4819TIP3    H235873   3.227   6.080   4.023  1.7850  0.0328  0.7312
 4820TIP3   OH235874   4.969   3.389   0.253  0.3623  0.3122  0.1602
 4820TIP3    H135875   5.050   3.378   0.204  1.8917  0.6407  2.5480
 4820TIP3    H235876   4.988   3.354   0.340 -2.2185 -0.0852  0.6102
 4821TIP3   OH235877   5.923   4.128  11.019  0.1220  0.4909  0.7755
 4821TIP3    H135878   5.850   4.078  10.983 -0.7774  0.6308  2.3404
 4821TIP3    H235879   5.966   4.167  10.943 -1.1242 -0.0247 -0.2037
 4822TIP3   OH235880   0.437   1.267  16.038  0.6795 -0.1491 -0.4176
 4822TIP3    H135881   0.407   1.314  16.116  2.1400  0.0837  0.0243
 4822TIP3    H235882   0.360   1.265  15.981 -0.2494  0.1848  0.7810
 4823TIP3   OH235883   1.777   0.090   1.602  0.0304 -0.1112  0.2030
 4823TIP3    H135884   1.836   0.165   1.605 -1.4751  1.0808  0.9977
 4823TIP3    H235885   1.709   0.111   1.666 -0.8379 -1.8034 -0.1396
 4824TIP3   OH235886   2.731   2.623  13.761 -0.4055 -0.0505 -0.3483
 4824TIP3    H135887   2.700   2.535  13.739  0.4698 -0.4131 -0.1223
 4824TIP3    H235888   2.768   2.615  13.849 -0.3648  0.5610 -0.3026
 4825TIP3   OH235889   6.630   3.359   1.997  0.2847 -0.1521  0.3645
 4825TIP3    H135890   6.623   3.317   2.083  0.5061  0.5959  0.7467
 4825TIP3    H235891   6.707   3.319   1.957  0.7183  0.1656  0.8822
 4826TIP3   OH235892   2.117   6.331  12.751 -0.3014  0.3966 -0.1031
 4826TIP3    H135893   2.078   6.390  12.687  0.0421  0.0621 -0.6252
 4826TIP3    H235894   2.141   6.387  12.824 -0.7231  0.7780 -0.2555
 4827TIP3   OH235895   1.350   0.134  12.237  0.2282 -0.2568 -0.0385
 4827TIP3    H135896   1.445   0.138  12.252 -0.0101 -1.4352  1.9072
 4827TIP3    H235897   1.343   0.103  12.146  1.6720  3.0461 -1.3858
 4828TIP3   OH235898   2.528   1.163  10.680 -0.4706 -0.4775 -0.3137
 4828TIP3    H135899   2.492   1.183  10.593  1.4136  1.8152 -0.6450
 4828TIP3    H235900   2.623   1.163  10.666 -0.1775 -1.2961  1.5240
 4829TIP3   OH235901   3.064   6.554  16.198  0.2902  0.9464 -0.0122
 4829TIP3    H135902   2.972   6.565  16.222 -0.0682  0.9587 -1.3743
 4829TIP3    H235903   3.108   6.628  16.240 -0.3455  1.0633  0.4612
 4830TIP3   OH235904   1.282   6.460   4.665 -0.3011  0.2801 -0.1567
 4830TIP3    H135905   1.363   6.504   4.688  0.2589  0.1877 -1.8722
 4830TIP3    H235906   1.215   6.528   4.672  0.2156  0.8391 -0.5818
 4831TIP3   OH235907   6.143   0.167   2.146 -0.1018  0.1920  0.3307
 4831TIP3    H135908   6.064   0.208   2.181 -0.4946 -0.0171 -0.2961
 4831TIP3    H235909   6.213   0.228   2.168 -0.4904  0.5486  0.5908
 4832TIP3   OH235910   1.458   2.379   5.784  0.4439  0.3757 -0.5790
 4832TIP3    H135911   1.496   2.328   5.713 -1.2515  1.4133 -2.2650
 4832TIP3    H235912   1.491   2.338   5.864  2.9423 -0.3694 -1.9587
 4833TIP3   OH235913   0.558   1.492  15.125  0.3781 -0.6930  0.2329
 4833TIP3    H135914   0.534   1.466  15.036 -1.3266  3.7370 -0.7091
 4833TIP3    H235915   0.653   1.505  15.121 -0.1313  3.1740 -2.0992
 4834TIP3   OH235916   0.795   5.471  12.610 -0.0790  0.0203  0.2368
 4834TIP3    H135917   0.833   5.402  12.555 -0.8238  0.5986 -1.0389
 4834TIP3    H235918   0.820   5.552  12.565 -3.4791  0.4007 -1.1034
 4835TIP3   OH235919   5.471   0.883   0.536 -0.6694  0.3255  0.1001
 4835TIP3    H135920   5.532   0.931   0.479 -0.0876  0.8358  1.1363
 4835TIP3    H235921   5.432   0.817   0.479  0.4456  0.3594 -0.7166
 4836TIP3   OH235922   1.358   3.762  15.156  0.1842  0.6409 -0.9803
 4836TIP3    H135923   1.441   3.743  15.200 -0.8245  0.5697  0.9593
 4836TIP3    H235924   1.303   3.687  15.175 -0.4819  0.9019 -1.8596
 4837TIP3   OH235925   5.726   5.192   5.282  0.7821  0.1489  0.0459
 4837TIP3    H135926   5.652   5.252   5.274  1.7802  1.4054 -0.1159
 4837TIP3    H235927   5.758   5.181   5.193  0.1568 -1.2195 -0.0136
 4838TIP3   OH235928   0.888   3.334  16.785  0.2671 -0.1226  0.1477
 4838TIP3    H135929   0.918   3.295  16.703 -1.5912  0.2468 -0.7372
 4838TIP3    H235930   0.913   3.426  16.779  1.0115 -0.2968  0.4530
 4839TIP3   OH235931   3.016   5.392   0.220 -1.1323  0.8064  0.5617
 4839TIP3    H135932   3.001   5.408   0.127  1.3928  0.6054  0.0767
 4839TIP3    H235933   3.019   5.297   0.228  0.7599  0.8373  0.4492
 4840TIP3   OH235934   4.357   2.647   4.122 -0.0161 -0.6017  0.2349
 4840TIP3    H135935   4.420   2.589   4.164 -2.0324 -3.0773 -0.0259
 4840TIP3    H235936   4.402   2.731   4.115  3.6250 -2.5608 -0.9170
 4841TIP3   OH235937   5.707   0.192   2.091  0.7088  0.2883 -0.7833
 4841TIP3    H135938   5.656   0.180   2.011  0.1218 -2.7633 -0.0118
 4841TIP3    H235939   5.643   0.185   2.162  1.4700  1.3723  0.0287
 4842TIP3   OH235940   5.772   1.579   0.681 -0.0947 -0.0126  0.1618
 4842TIP3    H135941   5.762   1.517   0.753 -0.2333 -1.2605 -0.9006
 4842TIP3    H235942   5.862   1.611   0.689 -0.7893  1.5640  2.1803
 4843TIP3   OH235943   0.490   3.506   4.418  0.2565 -0.1204 -0.2470
 4843TIP3    H135944   0.535   3.424   4.440  2.2483  1.4000  1.6346
 4843TIP3    H235945   0.534   3.538   4.340  0.1816 -0.3245 -0.3718
 4844TIP3   OH235946   5.622   2.276  10.498 -0.4048 -0.0687  0.4650
 4844TIP3    H135947   5.622   2.197  10.552  0.3180 -0.7610 -0.5441
 4844TIP3    H235948   5.620   2.244  10.408  2.3367  0.9864 -0.0216
 4845TIP3   OH235949   2.032   2.357  11.303  0.2753 -0.2594 -0.3357
 4845TIP3    H135950   2.025   2.408  11.222 -0.0642  0.6812  0.2658
 4845TIP3    H235951   2.124   2.332  11.308  0.4677  0.3749 -0.6152
 4846TIP3   OH235952   1.918   4.338  15.791 -0.2615  0.6915 -0.1293
 4846TIP3    H135953   1.953   4.385  15.866  1.2725 -0.0697 -0.3559
 4846TIP3    H235954   1.929   4.398  15.717 -1.0923  1.1465  0.1042
 4847TIP3   OH235955   5.884   0.161   3.886  0.3962  0.0381 -0.5022
 4847TIP3    H135956   5.924   0.200   3.808 -0.2508  0.1775 -0.7703
 4847TIP3    H235957   5.958   0.125   3.935  0.9087  0.7932 -0.7042
 4848TIP3   OH235958   6.601   2.027   0.430 -0.2273 -0.2218  0.2095
 4848TIP3    H135959   6.665   1.976   0.481 -0.6268  0.1885  1.1370
 4848TIP3    H235960   6.646   2.046   0.348  0.8062 -0.0558  0.7958
 4849TIP3   OH235961   3.423   5.008   3.684  0.1762  0.1270  0.6533
 4849TIP3    H135962   3.501   5.056   3.712  0.7342 -0.6874  0.5067
 4849TIP3    H235963   3.357   5.031   3.749  0.3292  1.3701  0.3902
 4850TIP3   OH235964   3.971   4.634   0.291  0.3467 -0.0623  0.0808
 4850TIP3    H135965   3.918   4.566   0.331  0.2640  0.7715  1.3946
 4850TIP3    H235966   4.028   4.665   0.361  1.0052  0.6094 -0.7362
 4851TIP3   OH235967   1.529   5.039  14.397  0.1415  0.5638  0.0142
 4851TIP3    H135968   1.544   5.117  14.344  0.6432  0.5126  0.0829
 4851TIP3    H235969   1.616   5.001  14.411 -0.2878 -1.2111 -1.8488
 4852TIP3   OH235970   6.406   0.903   1.257  0.3737 -0.1281 -0.0202
 4852TIP3    H135971   6.340   0.945   1.201 -0.8597 -0.7982  0.9020
 4852TIP3    H235972   6.383   0.810   1.254  1.4965 -0.4079  0.0458
 4853TIP3   OH235973   0.650   4.085   3.749  0.5146 -0.0432  0.1169
 4853TIP3    H135974   0.621   4.024   3.681 -1.2383 -0.2297  1.0244
 4853TIP3    H235975   0.646   4.171   3.706  1.8635 -0.4050 -0.7905
 4854TIP3   OH235976   4.647   0.159  16.820 -0.3320  0.3069 -1.1573
 4854TIP3    H135977   4.668   0.144  16.728 -1.7975 -0.5301 -1.3708
 4854TIP3    H235978   4.704   0.232  16.846  0.2770  0.3802 -2.6459
 4855TIP3   OH235979   0.392   5.501   0.909 -0.4034  0.2808 -0.0954
 4855TIP3    H135980   0.430   5.488   0.822  2.4411  1.3058  0.9461
 4855TIP3    H235981   0.355   5.589   0.906  0.2497  0.5628 -0.1052
 4856TIP3   OH235982   1.451   6.145  13.429  0.4134  0.5171  0.3604
 4856TIP3    H135983   1.400   6.129  13.349  2.3459  0.0707 -0.8000
 4856TIP3    H235984   1.389   6.187  13.488 -1.7327 -1.3470 -0.4879
 4857TIP3   OH235985   6.219   5.405   5.791  0.0695 -0.2424 -0.0588
 4857TIP3    H135986   6.124   5.401   5.799  0.1254 -1.5685 -0.0131
 4857TIP3    H235987   6.243   5.323   5.747  1.2778 -0.3401  0.7557
 4858TIP3   OH235988   4.535   2.470  14.112 -0.4125 -0.2876 -0.0795
 4858TIP3    H135989   4.631   2.471  14.111 -0.4219  1.1044  0.1504
 4858TIP3    H235990   4.509   2.531  14.043 -1.1230  0.3327  0.7197
 4859TIP3   OH235991   2.121   0.664  12.411 -0.5503  0.4188 -0.3008
 4859TIP3    H135992   2.095   0.610  12.486  0.6110  1.5931  0.9848
 4859TIP3    H235993   2.044   0.716  12.390 -0.8689  0.1226  0.1311
 4860TIP3   OH235994   2.594   5.518  14.539  0.4757 -0.3264 -0.2692
 4860TIP3    H135995   2.649   5.440  14.547  0.6378 -0.1815  0.0547
 4860TIP3    H235996   2.632   5.568  14.467  0.7297 -0.2601 -0.0884
 4861TIP3   OH235997   0.718   5.907  13.907  0.7852  0.2212  0.3076
 4861TIP3    H135998   0.694   5.904  13.815  1.6570 -0.5487  0.1088
 4861TIP3    H235999   0.643   5.950  13.950  1.2915  2.5561 -1.0551
 4862TIP3   OH236000   4.057   4.816  15.839 -0.0517  0.0226 -0.1607
 4862TIP3    H136001   4.015   4.791  15.922  0.2769  1.8364  0.5852
 4862TIP3    H236002   4.101   4.736  15.810  1.7079 -0.0683  2.5797
 4863TIP3   OH236003   2.041   2.387  11.016 -0.2061 -0.4161  0.3685
 4863TIP3    H136004   2.079   2.439  10.945 -1.1959  0.9851  0.8382
 4863TIP3    H236005   2.025   2.301  10.978  1.2709 -0.3263 -0.4853
 4864TIP3   OH236006   3.615   4.670  15.371 -0.1708  0.1732  0.3145
 4864TIP3    H136007   3.554   4.702  15.305 -0.7577 -1.9493 -0.2300
 4864TIP3    H236008   3.570   4.685  15.455 -1.0268 -0.4635 -0.0227
 4865TIP3   OH236009   6.053   2.303  12.869  0.7209 -0.7174  0.5492
 4865TIP3    H136010   6.111   2.287  12.794  0.3906  0.1606  0.1052
 4865TIP3    H236011   6.111   2.299  12.945  0.8879 -2.7088  0.3582
 4866TIP3   OH236012   2.969   5.482   5.499  0.2195 -0.8540  0.0616
 4866TIP3    H136013   3.028   5.407   5.492  0.2941 -0.8353  0.4874
 4866TIP3    H236014   2.882   5.444   5.511  0.3070 -0.8714  0.6575
 4867TIP3   OH236015   3.693   1.958   4.744  0.0549 -0.0954 -0.0426
 4867TIP3    H136016   3.674   2.020   4.674 -1.3925 -0.2865  0.1684
 4867TIP3    H236017   3.683   2.009   4.825 -0.9301 -0.5436  0.1237
 4868TIP3   OH236018   2.774   4.792   0.616 -0.3219  0.6067 -0.4534
 4868TIP3    H136019   2.821   4.710   0.629 -0.1678  1.1089  2.5224
 4868TIP3    H236020   2.682   4.771   0.635 -0.4543  0.8881 -0.7589
 4869TIP3   OH236021   1.651   0.396   3.292  0.7707 -0.4794  0.3874
 4869TIP3    H136022   1.615   0.312   3.321 -1.5051 -0.1656 -1.3170
 4869TIP3    H236023   1.684   0.437   3.372 -1.7259 -1.3102  1.9272
 4870TIP3   OH236024   0.483   5.327   4.207 -0.2861  0.1792 -0.2558
 4870TIP3    H136025   0.569   5.291   4.187 -0.6973  0.0807 -1.9244
 4870TIP3    H236026   0.488   5.354   4.299  1.2707 -0.5207 -0.1370
 4871TIP3   OH236027   1.728   5.746   5.541  0.2373  0.3721 -0.4750
 4871TIP3    H136028   1.639   5.729   5.573  0.3042 -2.1491 -1.5010
 4871TIP3    H236029   1.765   5.808   5.604 -1.9432  0.7519  0.4635
 4872TIP3   OH236030   4.462   6.158   0.880 -0.0995 -0.4976 -0.2279
 4872TIP3    H136031   4.445   6.169   0.974 -1.1890  0.9743 -0.5790
 4872TIP3    H236032   4.486   6.066   0.871 -1.9741 -1.1578  1.2021
 4873TIP3   OH236033   4.699   4.066   2.179 -0.3473 -0.2062  0.3493
 4873TIP3    H136034   4.780   4.110   2.153  0.1431 -1.0576  0.4163
 4873TIP3    H236035   4.706   4.059   2.275 -0.7782  0.2453  0.4178
 4874TIP3   OH236036   1.558   5.663  15.109  0.1448 -0.1157  0.1185
 4874TIP3    H136037   1.610   5.625  15.180 -0.8340  1.3283  1.6433
 4874TIP3    H236038   1.510   5.735  15.150 -4.0919 -2.1557 -0.8736
 4875TIP3   OH236039   2.254   0.008   3.063  0.1273 -0.6154  0.6217
 4875TIP3    H136040   2.248   0.042   2.973  0.7964 -0.1510  0.7486
 4875TIP3    H236041   2.166   0.020   3.099  0.4289  1.3055  0.7694
 4876TIP3   OH236042   5.833   1.476  14.186 -0.5080 -0.3563 -0.4910
 4876TIP3    H136043   5.751   1.517  14.212 -0.1148 -1.3832  2.5277
 4876TIP3    H236044   5.899   1.514  14.244  0.8007 -1.0693 -1.4792
 4877TIP3   OH236045   2.758   0.676  14.541  0.2576  0.1956  0.6030
 4877TIP3    H136046   2.685   0.614  14.541  0.3801  0.0547 -0.0347
 4877TIP3    H236047   2.779   0.687  14.634 -0.0449 -0.3885  0.7461
 4878TIP3   OH236048   4.674   2.668   4.085 -0.2976  0.2365 -0.4063
 4878TIP3    H136049   4.738   2.617   4.036  0.7776 -0.9583  2.1205
 4878TIP3    H236050   4.723   2.745   4.114 -0.5570  0.3121 -0.1732
 4879TIP3   OH236051   0.818   3.328   5.639 -0.1569  0.0611  0.1968
 4879TIP3    H136052   0.839   3.349   5.730 -0.4645  0.7318  0.1188
 4879TIP3    H236053   0.851   3.240   5.627 -3.1819 -1.4138  2.0019
 4880TIP3   OH236054   5.996   4.986   4.217  0.5621  0.0734 -0.1821
 4880TIP3    H136055   5.920   4.986   4.159  0.8036 -1.7873 -0.5172
 4880TIP3    H236056   6.026   4.895   4.218  2.3505  0.6520  0.5176
 4881TIP3   OH236057   0.235   2.184  15.273  0.4287 -0.6077  0.2488
 4881TIP3    H136058   0.237   2.147  15.361  2.3787  1.7059  1.2209
 4881TIP3    H236059   0.322   2.167  15.238  0.3515  0.3905 -0.4315
 4882TIP3   OH236060   1.968   0.895   1.926 -0.3081  0.8183  0.4140
 4882TIP3    H136061   2.004   0.902   2.015  1.5628 -0.2853 -0.2220
 4882TIP3    H236062   1.930   0.807   1.923 -2.3685  1.6551  0.7942
 4883TIP3   OH236063   6.437   3.106  12.602 -0.1874 -0.2522  0.0839
 4883TIP3    H136064   6.364   3.156  12.564  0.4963  1.2552  0.7489
 4883TIP3    H236065   6.425   3.017  12.567 -0.4058  0.7637 -2.5070
 4884TIP3   OH236066   5.252   6.112  11.238  0.1266 -0.1776 -0.1037
 4884TIP3    H136067   5.270   6.196  11.196 -2.0131  0.6307  0.5378
 4884TIP3    H236068   5.215   6.058  11.169  0.9489 -0.4104 -0.3706
 4885TIP3   OH236069   5.738   6.224  10.958 -0.0268  0.3107 -1.0170
 4885TIP3    H136070   5.704   6.311  10.982  1.2740  0.5349  0.0626
 4885TIP3    H236071   5.833   6.233  10.963  0.1186 -1.1690 -0.9322
 4886TIP3   OH236072   2.774   3.163   5.369  0.9328  0.3965 -0.4603
 4886TIP3    H136073   2.703   3.165   5.306  0.0162  1.8727  0.5923
 4886TIP3    H236074   2.836   3.100   5.333 -0.6876 -0.5793 -1.6160
 4887TIP3   OH236075   0.352   4.167  10.528 -0.4643 -0.1466  0.1651
 4887TIP3    H136076   0.288   4.183  10.596  0.0301 -0.3893  0.6888
 4887TIP3    H236077   0.303   4.176  10.446 -0.7152  1.7210  0.4950
 4888TIP3   OH236078   3.668   1.452   1.071  0.1955 -0.0023 -0.4394
 4888TIP3    H136079   3.622   1.530   1.038 -0.7120 -0.9780 -1.5261
 4888TIP3    H236080   3.688   1.401   0.993  0.8606 -0.8288  0.2620
 4889TIP3   OH236081   1.314   0.109  14.793  0.1645 -0.4055  0.1587
 4889TIP3    H136082   1.388   0.073  14.744  0.5719 -0.0607  0.5220
 4889TIP3    H236083   1.354   0.167  14.857 -0.5564  1.9023 -1.4207
 4890TIP3   OH236084   6.399   3.199   5.003 -0.0879  0.2549 -0.3447
 4890TIP3    H136085   6.430   3.277   5.047  0.8868  0.2474 -1.0103
 4890TIP3    H236086   6.374   3.140   5.074  2.3159 -0.1093  0.2391
 4891TIP3   OH236087   6.680   2.990  17.197  0.4127  0.8539 -0.2817
 4891TIP3    H136088   6.668   3.053  17.126  0.0416  0.1918 -0.8008
 4891TIP3    H236089   6.691   3.045  17.275 -1.3513  1.5698 -0.5044
 4892TIP3   OH236090   5.433   1.115  12.750  0.0485  0.2155  0.0548
 4892TIP3    H136091   5.405   1.081  12.835  0.0794  2.3365  0.9606
 4892TIP3    H236092   5.526   1.134  12.761 -0.0329  0.8654 -0.3139
 4893TIP3   OH236093   5.527   3.251  16.909  0.0690  0.3568 -0.1851
 4893TIP3    H136094   5.620   3.256  16.930  0.1049  1.0270 -0.4832
 4893TIP3    H236095   5.524   3.197  16.829  0.0970 -0.5903  0.4410
 4894TIP3   OH236096   3.133   2.145   2.229 -0.0499 -0.1244 -0.2999
 4894TIP3    H136097   3.104   2.226   2.187 -0.5707  0.7119  1.6224
 4894TIP3    H236098   3.056   2.088   2.227 -0.0227 -0.1516 -0.6216
 4895TIP3   OH236099   5.623   2.056  16.241 -0.3028 -0.1129 -0.3972
 4895TIP3    H136100   5.592   2.143  16.217  1.8525  0.6893 -0.4014
 4895TIP3    H236101   5.642   2.013  16.158 -0.6558 -0.3153 -0.3746
 4896TIP3   OH236102   2.482   5.775  12.903 -0.0232  0.6614  0.1121
 4896TIP3    H136103   2.406   5.720  12.885 -0.9105  1.1583  2.1777
 4896TIP3    H236104   2.539   5.764  12.827 -0.9225 -1.8565 -0.2394
 4897TIP3   OH236105   5.720   6.166  14.003 -0.1889  0.4962 -0.7659
 4897TIP3    H136106   5.734   6.255  13.971  0.0515  0.9766  0.6581
 4897TIP3    H236107   5.769   6.111  13.942  0.5493  1.4298 -1.0256
 4898TIP3   OH236108   0.982   0.027  11.953 -0.0855 -0.4313 -0.2414
 4898TIP3    H136109   0.912   0.082  11.988  1.6281  0.6917  1.4778
 4898TIP3    H236110   0.965  -0.060  11.990  1.1700  0.5323  2.7786
 4899TIP3   OH236111   1.308   0.893   3.714  0.0268 -0.2437 -0.3919
 4899TIP3    H136112   1.388   0.934   3.746  0.9991 -0.7895 -2.0315
 4899TIP3    H236113   1.239   0.929   3.769  1.3274  0.6630  0.6919
 4900TIP3   OH236114   4.239   5.222  14.213  0.5957 -0.2336  0.2449
 4900TIP3    H136115   4.193   5.297  14.173  0.3573  0.0912  1.1095
 4900TIP3    H236116   4.329   5.231  14.182  0.5571  0.3769  0.2900
 4901TIP3   OH236117   4.052   3.939   6.270 -0.3154  0.3795 -0.4097
 4901TIP3    H136118   4.015   4.027   6.269 -0.1869  0.4613  1.3392
 4901TIP3    H236119   3.988   3.887   6.320  0.3906 -0.1675 -0.0686
 4902TIP3   OH236120   2.008   6.168  15.269 -0.0636  0.4630 -0.6426
 4902TIP3    H136121   2.027   6.212  15.187 -0.9454  0.6669 -0.7487
 4902TIP3    H236122   1.955   6.092  15.244 -0.5842  0.6869 -0.2495
 4903TIP3   OH236123   6.178   6.569  13.956  0.2849  0.3763  0.1364
 4903TIP3    H136124   6.164   6.493  14.012 -0.0891  0.4244  0.1107
 4903TIP3    H236125   6.192   6.533  13.868 -0.8183  0.3736 -0.0492
 4904TIP3   OH236126   3.218   0.739  14.788 -0.6062  0.4158  0.0135
 4904TIP3    H136127   3.174   0.655  14.800 -0.7590  0.1072 -2.4287
 4904TIP3    H236128   3.226   0.749  14.693  3.2870  1.1423  0.3203
 4905TIP3   OH236129   0.614   0.560  10.736 -0.7654  0.6560  0.2067
 4905TIP3    H136130   0.598   0.645  10.695 -1.6695 -0.2261 -1.3382
 4905TIP3    H236131   0.709   0.548  10.732 -0.6644  1.4419  0.1489
 4906TIP3   OH236132   1.022   3.875  12.868  1.0239  0.2739  0.1285
 4906TIP3    H136133   1.030   3.781  12.851  1.5004  0.3324  0.0407
 4906TIP3    H236134   1.101   3.898  12.917  1.4972  0.8701 -0.8963
 4907TIP3   OH236135   3.626   5.762  15.596 -0.2860  0.2186  0.1389
 4907TIP3    H136136   3.720   5.763  15.578 -0.3521  1.0223 -0.1957
 4907TIP3    H236137   3.618   5.719  15.681  0.2061 -1.6869 -0.7460
 4908TIP3   OH236138   1.668   2.839   3.393  0.2559  0.0165  0.5500
 4908TIP3    H136139   1.620   2.865   3.315  0.6455  1.7235  0.8532
 4908TIP3    H236140   1.600   2.815   3.456 -0.1371  0.4163  0.2803
 4909TIP3   OH236141   4.164   4.258   5.166 -0.1011 -0.3472  0.1492
 4909TIP3    H136142   4.081   4.284   5.126  0.2437  0.5060 -0.0224
 4909TIP3    H236143   4.185   4.329   5.227  1.3759  0.3388 -1.0993
 4910TIP3   OH236144   6.674   5.617  13.343 -0.5279  0.0538 -0.2523
 4910TIP3    H136145   6.659   5.673  13.420 -1.0661 -1.3064  0.6447
 4910TIP3    H236146   6.663   5.528  13.375 -0.0204 -0.5685 -1.7547
 4911TIP3   OH236147   6.198   5.231  12.363  0.2749 -0.1187 -0.1615
 4911TIP3    H136148   6.114   5.249  12.321  0.4214  0.3456 -0.2590
 4911TIP3    H236149   6.200   5.135  12.372 -1.5332  0.0469  2.5215
 4912TIP3   OH236150   1.892   4.623   3.150 -0.0468 -0.3521  0.0191
 4912TIP3    H136151   1.849   4.602   3.067 -0.3708 -0.9358  0.3323
 4912TIP3    H236152   1.830   4.679   3.196  0.3803  0.4558 -0.3763
 4913TIP3   OH236153   0.839   4.330  15.251 -0.2637  0.0782  0.5287
 4913TIP3    H136154   0.822   4.261  15.315 -0.4722  0.7729  1.2343
 4913TIP3    H236155   0.928   4.359  15.270 -0.0751 -0.1858  0.0536
 4914TIP3   OH236156   6.304   3.562   5.991 -0.4434  0.3017  0.4794
 4914TIP3    H136157   6.245   3.637   5.992  0.7601  1.2676  0.2919
 4914TIP3    H236158   6.278   3.510   6.066 -0.5551  1.4999  1.2888
 4915TIP3   OH236159   5.400   4.399   3.489 -0.1647 -0.1382 -0.3887
 4915TIP3    H136160   5.430   4.349   3.413 -1.3887  0.3253 -1.1936
 4915TIP3    H236161   5.468   4.464   3.503 -0.1448  0.0588 -1.3726
 4916TIP3   OH236162   1.584   0.992   5.877  0.3272 -0.4684  0.3020
 4916TIP3    H136163   1.567   0.904   5.844  0.3305 -0.1427 -0.5593
 4916TIP3    H236164   1.609   1.043   5.800  2.0522 -0.1318  1.0518
 4917TIP3   OH236165   1.767   5.562   1.496 -1.0813 -0.3120  0.1871
 4917TIP3    H136166   1.689   5.591   1.545  0.3681 -0.6731  2.8248
 4917TIP3    H236167   1.772   5.468   1.512  0.3105 -0.1684  0.7093
 4918TIP3   OH236168   4.795   5.933   2.660 -0.1864 -0.2449  1.0278
 4918TIP3    H136169   4.749   5.927   2.576  0.1810 -0.0332  0.8144
 4918TIP3    H236170   4.888   5.927   2.638 -0.0427  0.7996  1.3270
 4919TIP3   OH236171   0.943   6.684  11.115  0.1973 -0.2494  0.3649
 4919TIP3    H136172   0.901   6.612  11.068 -0.0529  0.4785 -0.5204
 4919TIP3    H236173   1.035   6.658  11.121  0.0776 -0.7173  0.1810
 4920TIP3   OH236174   0.179   0.429   0.832 -0.0226 -0.0999  0.3872
 4920TIP3    H136175   0.175   0.466   0.920 -1.8016  0.5606  0.0503
 4920TIP3    H236176   0.089   0.437   0.799  0.6267 -0.3476 -1.4788
 4921TIP3   OH236177   4.218   0.557   1.692  0.2668  0.0604  0.2862
 4921TIP3    H136178   4.261   0.543   1.607  2.3265 -0.1188  1.3199
 4921TIP3    H236179   4.260   0.494   1.750 -1.6121 -0.2928  1.2983
 4922TIP3   OH236180   1.855   4.902  15.086  0.1843 -0.3864  0.2564
 4922TIP3    H136181   1.911   4.872  15.014  0.3670  1.8208 -0.5694
 4922TIP3    H236182   1.767   4.875  15.061  0.1500  1.0064 -1.1611
 4923TIP3   OH236183   5.830   6.005  16.586 -0.3959  0.6511 -0.4655
 4923TIP3    H136184   5.805   5.925  16.540 -0.5159  0.9652 -0.9610
 4923TIP3    H236185   5.747   6.039  16.621 -0.2252  0.1343  0.4302
 4924TIP3   OH236186   5.829   2.451  13.537  0.1129  0.1142 -0.5925
 4924TIP3    H136187   5.750   2.406  13.564 -0.7871  2.4737  0.8974
 4924TIP3    H236188   5.834   2.437  13.442 -0.9804 -1.7116 -0.3834
 4925TIP3   OH236189   0.353   4.754  14.991  0.8645  0.3612  0.9477
 4925TIP3    H136190   0.421   4.822  14.986  2.0682 -0.9242 -0.7625
 4925TIP3    H236191   0.402   4.672  14.992 -0.6576 -0.5661  0.1208
 4926TIP3   OH236192   4.769   2.512  11.515 -0.1941 -0.5319 -0.1882
 4926TIP3    H136193   4.705   2.580  11.534  0.9160  0.5804 -0.3753
 4926TIP3    H236194   4.853   2.548  11.545  0.4429 -1.7103 -0.5133
 4927TIP3   OH236195   1.843   2.263   0.326 -0.6413  0.4652 -0.1896
 4927TIP3    H136196   1.890   2.181   0.308  0.6470  1.1059  0.2356
 4927TIP3    H236197   1.813   2.253   0.417 -0.3307  0.5368 -0.0779
 4928TIP3   OH236198   4.465   4.391  13.647  0.5340 -0.6175  0.2175
 4928TIP3    H136199   4.411   4.313  13.659 -0.2099 -0.2124 -0.4959
 4928TIP3    H236200   4.511   4.377  13.564  1.3081 -0.8269  0.6722
 4929TIP3   OH236201   3.495   5.291  12.516  0.4210 -0.3156  0.3504
 4929TIP3    H136202   3.405   5.321  12.505  0.2448 -0.7341  0.6473
 4929TIP3    H236203   3.505   5.222  12.450  0.2625 -0.8451  0.8812
 4930TIP3   OH236204   1.507   5.646   0.471 -0.0186 -0.4418  0.5386
 4930TIP3    H136205   1.602   5.635   0.474 -0.0030 -0.8343 -1.0175
 4930TIP3    H236206   1.488   5.710   0.540  1.4461  0.0803  0.4706
 4931TIP3   OH236207   5.353   6.162  10.829  0.2510  0.2629 -0.3874
 4931TIP3    H136208   5.363   6.078  10.784 -0.8984  0.2220 -0.5687
 4931TIP3    H236209   5.354   6.227  10.759 -2.5873  0.1280 -0.6109
 4932TIP3   OH236210   2.997   5.026   4.539 -0.0537  0.3457  0.1361
 4932TIP3    H136211   2.986   4.940   4.499  1.6363  0.5693 -0.8465
 4932TIP3    H236212   3.014   5.008   4.631  0.4901 -0.3995 -0.1014
 4933TIP3   OH236213   2.519   3.249   4.108  0.2894  0.0400  0.2181
 4933TIP3    H136214   2.499   3.177   4.047  2.8637  0.4054 -1.1285
 4933TIP3    H236215   2.566   3.207   4.179  1.6105  0.3293 -0.4677
 4934TIP3   OH236216   5.778   2.915   1.627 -0.6740  0.0857 -0.1779
 4934TIP3    H136217   5.851   2.976   1.626 -0.2720 -0.3973 -0.7107
 4934TIP3    H236218   5.814   2.835   1.664 -0.7293 -0.3970 -1.1456
 4935TIP3   OH236219   1.020   3.800   5.433  0.0863 -0.2832 -0.4555
 4935TIP3    H136220   1.000   3.828   5.523  0.4318  1.0640 -0.7907
 4935TIP3    H236221   0.963   3.724   5.419  1.4118 -1.7284  1.5701
 4936TIP3   OH236222   0.751   4.092  14.362 -0.5430  0.0199 -0.1570
 4936TIP3    H136223   0.667   4.134  14.346 -0.9521 -0.9027 -0.5187
 4936TIP3    H236224   0.793   4.144  14.430 -1.4705  0.4032  0.1203
 4937TIP3   OH236225   4.770   3.525  14.799 -0.2664 -0.5960  0.1310
 4937TIP3    H136226   4.703   3.593  14.793  0.3278 -0.0012  0.1591
 4937TIP3    H236227   4.758   3.472  14.720 -1.1482 -0.8559  0.4310
 4938TIP3   OH236228   0.684   5.342   5.665  0.0580 -0.3032  0.8865
 4938TIP3    H136229   0.644   5.284   5.600  3.2124 -0.3423 -1.1200
 4938TIP3    H236230   0.613   5.398   5.693 -1.6590 -1.0148 -1.8147
 4939TIP3   OH236231   4.807   3.875   5.204 -0.1920  0.1898 -0.0136
 4939TIP3    H136232   4.765   3.808   5.259 -0.8080  0.7044  0.1493
 4939TIP3    H236233   4.776   3.958   5.240  1.4895  0.6000  0.5186
 4940TIP3   OH236234   1.526   3.167  15.396  0.4980 -0.0970 -0.2354
 4940TIP3    H136235   1.616   3.172  15.366  0.0072 -1.2907 -1.9772
 4940TIP3    H236236   1.481   3.239  15.351  0.0321 -1.1182 -1.4320
 4941TIP3   OH236237   6.042   0.374  16.894 -0.0689  0.1653  0.3022
 4941TIP3    H136238   6.082   0.297  16.933  0.4516  0.3743  0.1842
 4941TIP3    H236239   5.968   0.395  16.951 -0.8814 -1.0663 -0.2664
 4942TIP3   OH236240   2.391   3.254   3.069  0.6701  0.0878  0.3695
 4942TIP3    H136241   2.424   3.305   2.995 -0.8488  1.3094  0.4969
 4942TIP3    H236242   2.298   3.240   3.050  0.4816 -0.4276  1.5732
 4943TIP3   OH236243   4.043   2.988   3.235  0.9035  0.1395  0.2385
 4943TIP3    H136244   4.025   2.948   3.320  0.3578  0.2116  0.1586
 4943TIP3    H236245   4.076   3.076   3.256 -0.8903  0.7957  0.3337
 4944TIP3   OH236246   0.940   1.862   2.362 -0.3606 -0.5976 -0.2846
 4944TIP3    H136247   0.953   1.899   2.449  1.4695 -1.9693  0.0605
 4944TIP3    H236248   0.861   1.808   2.371 -1.0571  0.4700  0.1045
 4945TIP3   OH236249   4.511   5.159  13.761  0.0626  0.5873 -0.3757
 4945TIP3    H136250   4.522   5.065  13.774 -1.3375  0.7234  2.2052
 4945TIP3    H236251   4.476   5.190  13.845  0.9876  3.4825 -1.0209
 4946TIP3   OH236252   4.015   5.699  16.269  0.1073 -0.0055  0.0199
 4946TIP3    H136253   4.048   5.736  16.351 -0.7878 -0.0417  0.4028
 4946TIP3    H236254   4.021   5.771  16.206  0.4012  0.1489  0.2249
 4947TIP3   OH236255   3.763   6.602   2.420 -0.5165  0.2798  0.3325
 4947TIP3    H136256   3.752   6.520   2.372  1.3338  0.3578 -0.2676
 4947TIP3    H236257   3.762   6.670   2.352 -1.2434  0.6981  0.7505
 4948TIP3   OH236258   4.518   4.522  15.249  0.8102 -0.8895 -0.4019
 4948TIP3    H136259   4.491   4.555  15.334  1.1803 -1.5987 -0.0012
 4948TIP3    H236260   4.511   4.597  15.190 -1.0291 -0.8201 -0.0985
 4949TIP3   OH236261   0.135   5.778   5.810  0.1829 -0.3670  0.5295
 4949TIP3    H136262   0.063   5.824   5.853  0.5695 -0.5836  1.4008
 4949TIP3    H236263   0.127   5.687   5.840  0.5043 -0.4998  0.2155
 4950TIP3   OH236264   1.065   3.435   1.362  0.1585 -0.3636 -0.2298
 4950TIP3    H136265   1.109   3.517   1.338  1.0986 -0.4808  1.0552
 4950TIP3    H236266   1.082   3.425   1.456  0.3109 -2.1884 -0.4382
 4951TIP3   OH236267   2.249   1.711  16.583 -0.5020 -0.4901 -0.1024
 4951TIP3    H136268   2.224   1.804  16.586 -1.4795 -0.7760  0.6870
 4951TIP3    H236269   2.287   1.700  16.496 -0.4093  0.6459 -0.2179
 4952TIP3   OH236270   0.260   0.301   3.536  0.0324 -0.3324  0.8019
 4952TIP3    H136271   0.309   0.368   3.585  0.0721 -0.4943  0.9840
 4952TIP3    H236272   0.319   0.276   3.465  1.3706 -2.5488  2.6400
 4953TIP3   OH236273   4.513   6.518  15.551  0.1407 -0.1765  0.3874
 4953TIP3    H136274   4.551   6.464  15.620 -1.4228  1.0618  2.2550
 4953TIP3    H236275   4.420   6.525  15.573 -0.1820  1.1157 -1.2400
 4954TIP3   OH236276   1.938   5.160  13.497  0.0228  0.5161 -0.1277
 4954TIP3    H136277   1.849   5.194  13.487 -0.1762  0.6310  1.8086
 4954TIP3    H236278   1.940   5.122  13.584  1.6672 -0.1526 -0.4269
 4955TIP3   OH236279   0.754   4.522   1.758 -0.2725 -0.0330  0.5939
 4955TIP3    H136280   0.834   4.487   1.796  0.8637 -0.4970 -2.1139
 4955TIP3    H236281   0.784   4.590   1.698 -1.9442  0.1967 -0.0016
 4956TIP3   OH236282   4.059   6.034   4.134  0.8459 -0.4170  0.3913
 4956TIP3    H136283   3.973   6.025   4.175  0.4994 -0.6765 -0.3911
 4956TIP3    H236284   4.120   6.038   4.208  0.0663  0.8614  0.9867
 4957TIP3   OH236285   4.557   6.776  12.468  0.4770  0.0697  0.2234
 4957TIP3    H136286   4.532   6.684  12.459 -0.3846  0.3357 -0.1257
 4957TIP3    H236287   4.528   6.800  12.556 -0.4768  0.3655 -0.1649
 4958TIP3   OH236288   6.568   6.267   1.932  0.1115 -0.1805 -0.4366
 4958TIP3    H136289   6.511   6.339   1.905  0.8367  0.4535 -0.3283
 4958TIP3    H236290   6.589   6.221   1.852 -0.6438 -0.4870 -0.4617
 4959TIP3   OH236291   2.502   5.490  15.655  0.6107 -0.3999 -0.2881
 4959TIP3    H136292   2.425   5.434  15.664 -0.2103  0.7152 -0.3488
 4959TIP3    H236293   2.529   5.478  15.564 -0.4162  0.4005 -0.7025
 4960TIP3   OH236294   6.086   3.506  16.364  0.1187  0.1399 -0.3342
 4960TIP3    H136295   6.100   3.598  16.387  1.4493 -0.5067  1.6187
 4960TIP3    H236296   6.058   3.507  16.273 -1.2335  2.5813  0.0805
 4961TIP3   OH236297   2.944   0.039  12.249  0.1861 -0.4784  0.2224
 4961TIP3    H136298   2.857   0.078  12.252  0.1135 -0.3689 -2.1289
 4961TIP3    H236299   2.933  -0.047  12.290 -1.1049 -0.5710 -0.2866
 4962TIP3   OH236300   0.693   1.977  12.422 -0.0664 -0.3450 -0.2311
 4962TIP3    H136301   0.620   1.915  12.425  0.9003 -1.4825  0.0203
 4962TIP3    H236302   0.714   1.983  12.328 -1.0822  0.7030 -0.3985
 4963TIP3   OH236303   5.995   0.182   0.490 -0.2007 -0.0266  0.2188
 4963TIP3    H136304   5.993   0.094   0.453 -0.8747 -0.6021  1.6119
 4963TIP3    H236305   6.075   0.183   0.544 -1.3817 -0.5487  2.0204
 4964TIP3   OH236306   3.633   0.968   5.158 -0.3748  0.2755  0.0069
 4964TIP3    H136307   3.626   1.059   5.129  0.2999  0.6340  0.9540
 4964TIP3    H236308   3.703   0.930   5.105 -1.7760 -0.1750 -1.5677
 4965TIP3   OH236309   3.516   1.387  14.476  0.3176 -0.0653  0.4558
 4965TIP3    H136310   3.474   1.304  14.499  0.3774 -0.1875  0.1278
 4965TIP3    H236311   3.553   1.372  14.389 -0.4450  0.5896  0.0120
 4966TIP3   OH236312   3.128   6.503   3.955 -0.1492 -0.6953  0.2420
 4966TIP3    H136313   3.046   6.493   3.908  0.0795 -1.3161 -0.0180
 4966TIP3    H236314   3.108   6.568   4.023 -0.4163  0.3646 -0.8313
 4967TIP3   OH236315   3.964   5.237   2.167  0.8166 -0.1564 -0.4506
 4967TIP3    H136316   3.957   5.145   2.141  1.0797 -0.7490  1.5031
 4967TIP3    H236317   3.934   5.286   2.091  1.8952 -1.8234 -1.9882
 4968TIP3   OH236318   4.838   1.527   4.550 -0.3422  0.1729  0.0422
 4968TIP3    H136319   4.877   1.613   4.534 -1.1191  0.5241 -0.0149
 4968TIP3    H236320   4.858   1.477   4.472 -3.6932  1.7244 -1.9214
 4969TIP3   OH236321   4.372   5.539  16.484  0.5027 -0.3635  0.1437
 4969TIP3    H136322   4.355   5.541  16.390 -1.0017 -1.0012  0.3927
 4969TIP3    H236323   4.468   5.534  16.491  0.7745  2.2164 -1.2887
 4970TIP3   OH236324   0.393   1.360  14.667 -0.1430 -0.1471  0.4257
 4970TIP3    H136325   0.333   1.291  14.696 -0.1322 -0.8650 -1.2248
 4970TIP3    H236326   0.354   1.393  14.586  1.1264  0.1345 -0.0750
 4971TIP3   OH236327   0.704   0.588  11.566  0.3937 -0.1287 -0.6387
 4971TIP3    H136328   0.741   0.500  11.561 -2.5035 -1.4510  0.1371
 4971TIP3    H236329   0.723   0.618  11.655  0.2657 -0.4926 -0.4888
 4972TIP3   OH236330   4.780   6.051  11.803 -0.3169 -0.6871 -0.0696
 4972TIP3    H136331   4.749   6.108  11.873 -1.4722 -0.7729 -0.4912
 4972TIP3    H236332   4.769   6.102  11.723  3.6616  0.4872  0.0383
 4973TIP3   OH236333   4.146   2.052   0.511  0.2442 -0.0412  0.4504
 4973TIP3    H136334   4.066   2.082   0.468 -0.2523  2.2383  2.8977
 4973TIP3    H236335   4.137   1.956   0.512 -0.8115 -0.0430 -2.3338
 4974TIP3   OH236336   4.547   1.110   0.026  0.2428  0.4840  0.0525
 4974TIP3    H136337   4.585   1.035   0.072 -0.9450 -1.6529 -2.3242
 4974TIP3    H236338   4.621   1.169   0.011  1.3486 -0.5712  1.2475
 4975TIP3   OH236339   5.384   3.077  14.919  0.7239 -0.0612  0.0796
 4975TIP3    H136340   5.321   3.124  14.973  0.0102  0.8436 -1.5137
 4975TIP3    H236341   5.463   3.069  14.974 -0.2458  0.1470  1.5124
 4976TIP3   OH236342   4.944   5.382  12.376 -0.7159  0.3117  0.0052
 4976TIP3    H136343   4.936   5.367  12.471 -0.8402 -0.0159 -0.0567
 4976TIP3    H236344   4.881   5.452  12.358 -0.9676  0.1106  0.1022
 4977TIP3   OH236345   3.142   5.125   1.560 -0.1304 -0.0485  0.2854
 4977TIP3    H136346   3.091   5.203   1.581 -0.3906 -1.0542  3.5508
 4977TIP3    H236347   3.231   5.145   1.591  0.3659 -0.1526 -1.0341
 4978TIP3   OH236348   0.677   0.342   3.046 -0.3078 -0.5544  0.4193
 4978TIP3    H136349   0.764   0.313   3.020 -0.5387 -0.0472 -0.9657
 4978TIP3    H236350   0.617   0.292   2.991 -0.8765 -0.5628  1.0393
 4979TIP3   OH236351   1.481   2.586  16.125  0.3887  0.4318  0.0702
 4979TIP3    H136352   1.497   2.520  16.192 -0.1673  0.3550  0.1313
 4979TIP3    H236353   1.472   2.668  16.173 -1.0225  0.2219  0.1915
 4980TIP3   OH236354   6.673   2.033   5.855 -0.3008 -0.5735 -0.2838
 4980TIP3    H136355   6.617   2.074   5.789 -2.1735  0.0219  1.6037
 4980TIP3    H236356   6.761   2.065   5.835 -0.5129 -1.8181 -3.5380
 4981TIP3   OH236357   5.064   4.475  11.254 -0.5912  0.2676  0.0470
 4981TIP3    H136358   4.994   4.511  11.199 -1.4252 -1.1244  0.1873
 4981TIP3    H236359   5.130   4.544  11.256 -1.5735  1.2560 -0.8032
 4982TIP3   OH236360   0.860   5.692   1.648  0.0831 -0.0319 -0.4892
 4982TIP3    H136361   0.836   5.784   1.655  0.5522  0.0693 -0.1252
 4982TIP3    H236362   0.936   5.691   1.590  0.5063 -0.1052  0.0525
 4983TIP3   OH236363   2.462   0.701   3.689  0.0249  0.1157  0.0561
 4983TIP3    H136364   2.374   0.709   3.652 -0.1536 -1.5173  0.0774
 4983TIP3    H236365   2.447   0.679   3.781  0.4527  0.2286  0.1507
 4984TIP3   OH236366   6.596   6.279  13.756  0.6447  0.1306 -0.5165
 4984TIP3    H136367   6.552   6.363  13.753  0.5783  0.1159  0.0042
 4984TIP3    H236368   6.676   6.295  13.806 -0.5667 -0.6492  1.7460
 4985TIP3   OH236369   1.489   6.537  13.473 -0.1164 -0.0064  0.0833
 4985TIP3    H136370   1.543   6.458  13.477  2.4510  1.5979 -1.5983
 4985TIP3    H236371   1.475   6.553  13.380  1.4493  2.8417  0.2707
 4986TIP3   OH236372   2.643   1.585   5.066 -0.1164  0.9055  0.1241
 4986TIP3    H136373   2.643   1.489   5.070 -1.2851  0.9311  0.7982
 4986TIP3    H236374   2.735   1.609   5.077 -0.0216 -0.0786  1.6435
 4987TIP3   OH236375   2.551   6.038   2.870  0.2566 -0.2715 -0.3491
 4987TIP3    H136376   2.507   6.093   2.805  1.1122 -0.3063 -0.9764
 4987TIP3    H236377   2.499   5.958   2.873 -0.4363  0.1796 -0.1601
 4988TIP3   OH236378   5.232   1.639  14.073  0.1523  0.3990 -0.0638
 4988TIP3    H136379   5.294   1.635  14.000 -0.2830  0.4298 -0.4362
 4988TIP3    H236380   5.160   1.693  14.041 -1.4600 -2.0300 -0.7145
 4989TIP3   OH236381   6.329   5.437  15.984 -0.2151  0.1277  0.1735
 4989TIP3    H136382   6.318   5.431  15.889 -0.5001  1.5249  0.1184
 4989TIP3    H236383   6.390   5.366  16.005  1.3197  0.9962 -1.2867
 4990TIP3   OH236384   2.303   2.482  14.717  0.0372  0.2292  0.1452
 4990TIP3    H136385   2.210   2.464  14.725  0.3126 -1.6280 -0.6146
 4990TIP3    H236386   2.328   2.445  14.633  1.5629  0.2823  0.5578
 4991TIP3   OH236387   1.910   2.729   1.086  0.2568  0.4679  0.6813
 4991TIP3    H136388   1.946   2.783   1.017  0.1723  0.7778  0.8763
 4991TIP3    H236389   1.986   2.701   1.137  0.3703 -0.2242  0.1336
 4992TIP3   OH236390   6.330   2.719  16.728  0.2062 -0.4710  0.2134
 4992TIP3    H136391   6.248   2.756  16.759  0.1324 -0.4718  0.0180
 4992TIP3    H236392   6.305   2.660  16.657  0.3963 -0.2965  0.0009
 4993TIP3   OH236393   4.581   1.562   0.404  0.3795  0.6472 -0.1765
 4993TIP3    H136394   4.487   1.563   0.422  0.2720 -0.6177 -0.6071
 4993TIP3    H236395   4.602   1.469   0.394  1.9099  0.8338  1.1328
 4994TIP3   OH236396   1.054   1.151   4.425  0.3891  0.3894  0.9919
 4994TIP3    H136397   1.005   1.223   4.386  0.4108  0.4820  1.1376
 4994TIP3    H236398   0.986   1.093   4.461  0.3135 -0.3569 -0.3449
 4995TIP3   OH236399   5.173   2.505   4.983  0.4470 -0.2101  0.0237
 4995TIP3    H136400   5.166   2.505   5.079 -1.0677  1.1491 -0.0539
 4995TIP3    H236401   5.212   2.589   4.962 -1.3134  0.4562 -0.6552
 4996TIP3   OH236402   5.802   4.703  12.814  0.1248  0.6594  0.2585
 4996TIP3    H136403   5.715   4.694  12.853 -0.4293  0.0417 -1.1015
 4996TIP3    H236404   5.793   4.665  12.727  1.6390  1.0334 -0.0654
 4997TIP3   OH236405   2.317   6.356   0.441 -0.2358 -0.5519  0.4367
 4997TIP3    H136406   2.314   6.338   0.535  0.7445 -0.5559  0.4722
 4997TIP3    H236407   2.243   6.308   0.405 -2.2346  1.6231  1.5477
 4998TIP3   OH236408   3.182   6.031   5.628 -0.4488 -0.2033 -0.8176
 4998TIP3    H136409   3.091   6.011   5.651 -0.4548  1.5729  0.8779
 4998TIP3    H236410   3.177   6.070   5.541 -1.6516  2.0248  0.1824
 4999TIP3   OH236411   6.391   6.140  17.159  0.3120 -0.0061 -0.6193
 4999TIP3    H136412   6.413   6.202  17.090  0.5184  0.0610 -0.4939
 4999TIP3    H236413   6.302   6.112  17.138  0.3667  0.0263 -0.9008
 5000TIP3   OH236414   5.355   1.981  15.538 -0.6999  0.2711 -0.1113
 5000TIP3    H136415   5.403   1.925  15.600  3.7090  1.4228 -2.2609
 5000TIP3    H236416   5.329   2.057  15.590  1.2683  0.3372  0.8455
 5001TIP3   OH236417   1.611   3.133   6.487 -0.0740 -0.4337  0.4957
 5001TIP3    H136418   1.706   3.131   6.499  0.3650 -0.4537 -2.4141
 5001TIP3    H236419   1.584   3.042   6.494  0.4470 -0.6920 -0.6233
 5002TIP3   OH236420   0.576   4.284   1.375 -0.0094  0.5690 -0.5040
 5002TIP3    H136421   0.584   4.371   1.414 -1.0014 -0.3878  1.8927
 5002TIP3    H236422   0.568   4.302   1.281  0.6469  3.0096 -0.1411
 5003TIP3   OH236423   4.055   5.938  11.547 -0.1932 -0.3005  0.3019
 5003TIP3    H136424   4.138   5.920  11.502  0.1380 -1.0456  1.1979
 5003TIP3    H236425   3.988   5.920  11.481  0.3897  1.7948 -0.9310
 5004TIP3   OH236426   1.604   2.032  11.528 -0.2350  0.3313  0.3862
 5004TIP3    H136427   1.529   2.088  11.508  0.9316  2.0985  0.8916
 5004TIP3    H236428   1.631   2.058  11.616  0.8412 -0.4397  0.2954
 5005TIP3   OH236429   2.213   0.244  10.819 -0.5039  0.0727  0.7523
 5005TIP3    H136430   2.186   0.171  10.764  1.0481  0.3861 -0.4714
 5005TIP3    H236431   2.210   0.209  10.908 -2.1356 -0.7222  0.3993
 5006TIP3   OH236432   5.800   6.615   2.643 -0.3373 -0.3155  0.3323
 5006TIP3    H136433   5.756   6.596   2.560 -1.1423 -2.4132  1.2052
 5006TIP3    H236434   5.863   6.543   2.653  1.1558  0.9941  0.6037
 5007TIP3   OH236435   2.026   6.749  11.425 -0.0966  0.6067 -0.2421
 5007TIP3    H136436   1.952   6.785  11.376 -1.3687 -0.2214  1.0092
 5007TIP3    H236437   2.085   6.823  11.437 -1.5901  1.7512  0.3062
 5008TIP3   OH236438   1.369   5.791  14.069  0.1566  0.3735  0.0914
 5008TIP3    H136439   1.286   5.789  14.117  0.2702  2.0175  0.4180
 5008TIP3    H236440   1.345   5.778  13.977 -0.5126  1.1057  0.1545
 5009TIP3   OH236441   0.419   2.275   6.025 -0.8226  0.1563  0.2098
 5009TIP3    H136442   0.429   2.259   5.931  0.0649  2.4717 -0.1241
 5009TIP3    H236443   0.466   2.203   6.067  1.5735  0.8690 -1.1853
 5010TIP3   OH236444   1.198   6.211  13.896  1.0118 -0.2264 -0.0959
 5010TIP3    H136445   1.122   6.152  13.898 -0.4759  1.6561  0.3892
 5010TIP3    H236446   1.267   6.162  13.942  0.8182 -2.8880 -2.4992
 5011TIP3   OH236447   6.549   0.799   2.113 -0.3614 -0.5408  0.0096
 5011TIP3    H136448   6.506   0.882   2.092 -0.3086 -0.9077 -1.6006
 5011TIP3    H236449   6.605   0.819   2.188  1.0239  1.3234 -1.4879
 5012TIP3   OH236450   1.943   1.694  16.715 -0.3489 -0.9654 -0.6259
 5012TIP3    H136451   2.010   1.630  16.737  0.3082 -0.2137 -0.4448
 5012TIP3    H236452   1.990   1.766  16.674 -1.0616 -0.4935 -0.6322
 5013TIP3   OH236453   2.943   3.556  17.116  0.5398  0.2558  0.0909
 5013TIP3    H136454   3.035   3.530  17.119  1.0707  2.1390  0.8182
 5013TIP3    H236455   2.905   3.520  17.196  0.4116 -1.2155 -0.5958
 5014TIP3   OH236456   3.840   2.133   3.006 -0.1973 -0.2442  0.8657
 5014TIP3    H136457   3.806   2.189   3.076 -0.6663 -0.7757  1.0623
 5014TIP3    H236458   3.798   2.049   3.020 -1.3460  0.0112 -0.8631
 5015TIP3   OH236459   0.741   3.626   4.930 -0.2934  0.2613  0.1867
 5015TIP3    H136460   0.667   3.597   4.876 -1.3495 -1.1835  2.3396
 5015TIP3    H236461   0.727   3.720   4.941 -1.0216  0.2548 -0.6014
 5016TIP3   OH236462   4.591   2.715   4.785  0.1161 -0.0397  0.3420
 5016TIP3    H136463   4.543   2.709   4.703  0.9821  0.0029 -0.1716
 5016TIP3    H236464   4.638   2.632   4.791 -1.8797 -1.1234  2.0349
 5017TIP3   OH236465   0.020   3.736   5.585 -0.4112 -0.7019 -1.1473
 5017TIP3    H136466   0.001   3.827   5.563 -1.7649 -0.9703 -1.1123
 5017TIP3    H236467   0.116   3.731   5.587 -0.3258  1.1871  0.8461
 5018TIP3   OH236468   2.330   2.113   4.147 -0.5178 -0.2918  0.4199
 5018TIP3    H136469   2.329   2.084   4.055 -0.4227  2.0886 -0.3498
 5018TIP3    H236470   2.265   2.056   4.190 -0.9502 -1.0799 -1.2233
 5019TIP3   OH236471   3.424   2.676   5.363  0.2645 -0.1733 -0.3211
 5019TIP3    H136472   3.478   2.729   5.422 -2.2343  2.6149 -0.3992
 5019TIP3    H236473   3.394   2.737   5.296 -2.6693 -1.6596 -0.4722
 5020TIP3   OH236474   0.634   1.501   5.329  0.2168  0.3623 -0.2252
 5020TIP3    H136475   0.723   1.482   5.357  0.7209  1.0360 -1.3282
 5020TIP3    H236476   0.644   1.568   5.262 -1.1409  0.6253 -0.1805
 5021TIP3   OH236477   3.431   5.715   5.261  0.2174  0.3723  0.5180
 5021TIP3    H136478   3.485   5.636   5.266  1.2084  0.8774 -1.6124
 5021TIP3    H236479   3.342   5.682   5.249  0.5477 -0.4376  0.2378
 5022TIP3   OH236480   2.533   3.891  15.554 -0.1589  0.2071 -0.4662
 5022TIP3    H136481   2.577   3.972  15.528  0.4655  0.3138  0.8791
 5022TIP3    H236482   2.493   3.911  15.639 -0.7742 -0.6123 -0.5564
 5023TIP3   OH236483   1.671   1.847  11.210 -0.4687 -0.6740 -0.1223
 5023TIP3    H136484   1.730   1.778  11.240  2.3181  1.3239 -0.8161
 5023TIP3    H236485   1.678   1.845  11.115  1.0957  1.6953 -0.1207
 5024TIP3   OH236486   4.105   2.481   1.641  0.4705  0.2884 -0.6752
 5024TIP3    H136487   4.141   2.560   1.683 -1.2486  1.4258 -1.2968
 5024TIP3    H236488   4.087   2.422   1.714  0.4419  1.0289 -0.0736
 5025TIP3   OH236489   3.623   0.109  10.986  0.1987 -0.1655 -0.6077
 5025TIP3    H136490   3.587   0.117  10.898 -0.4857  0.9423 -0.2258
 5025TIP3    H236491   3.558   0.057  11.034  0.8182 -1.2201 -0.8838
 5026TIP3   OH236492   0.180   1.346  13.023  0.0161  0.1460  1.1004
 5026TIP3    H136493   0.164   1.309  13.110 -0.1667  0.0751  1.0374
 5026TIP3    H236494   0.269   1.319  13.002  0.7060  1.6546  2.0071
 5027TIP3   OH236495   0.388   0.566   3.597 -0.1239 -0.1450 -0.0593
 5027TIP3    H136496   0.465   0.564   3.540  0.0005 -1.6662  0.1532
 5027TIP3    H236497   0.422   0.595   3.682  0.8440 -3.8216  0.9083
 5028TIP3   OH236498   2.312   4.527  12.736  0.0094 -0.2359  0.0764
 5028TIP3    H136499   2.229   4.570  12.759 -0.2169 -0.3126 -0.5751
 5028TIP3    H236500   2.372   4.553  12.805 -0.8478 -1.0695  1.1492
 5029TIP3   OH236501   3.111   6.405  11.666 -0.4573  0.3855 -0.6638
 5029TIP3    H136502   3.195   6.412  11.620 -0.1395  1.7353  0.0582
 5029TIP3    H236503   3.120   6.466  11.740 -0.7909 -1.9763  1.4058
 5030TIP3   OH236504   4.888   4.131  14.936  0.4890 -0.6020  0.1328
 5030TIP3    H136505   4.847   4.052  14.971  1.8222 -1.5535 -0.4231
 5030TIP3    H236506   4.815   4.181  14.900 -0.3502 -1.6865  0.2879
 5031TIP3   OH236507   0.764   4.194  15.792  0.3026  0.2346 -0.2967
 5031TIP3    H136508   0.857   4.216  15.795  0.6522 -1.1290 -1.2877
 5031TIP3    H236509   0.758   4.109  15.834 -0.4953  0.2812 -0.3079
 5032TIP3   OH236510   2.304   0.949   3.467 -0.0324 -0.3469  0.3074
 5032TIP3    H136511   2.264   1.033   3.442  0.7671 -0.4375 -1.3300
 5032TIP3    H236512   2.389   0.974   3.504 -0.9795 -0.2531  2.4675
 5033TIP3   OH236513   4.531   2.593   6.156 -0.1630  0.7019 -0.7704
 5033TIP3    H136514   4.585   2.641   6.219  0.6114  0.8164 -1.5084
 5033TIP3    H236515   4.539   2.501   6.184 -1.3003  0.9405  0.3851
 5034TIP3   OH236516   2.351   0.841   2.634  0.1948 -0.4963 -0.4110
 5034TIP3    H136517   2.440   0.857   2.601  0.9855 -0.4466  1.7051
 5034TIP3    H236518   2.305   0.924   2.619  1.0596  0.1097  0.2243
 5035TIP3   OH236519   1.061   0.736   4.885  0.1193  0.1338  0.3789
 5035TIP3    H136520   1.055   0.676   4.811 -0.4531 -0.9978  1.3222
 5035TIP3    H236521   1.114   0.809   4.853 -0.7528  0.0153 -1.3730
 5036TIP3   OH236522   1.117   4.033  10.971  0.5643  0.1085 -0.4617
 5036TIP3    H136523   1.211   4.019  10.961  0.6067 -1.6564  1.8711
 5036TIP3    H236524   1.082   3.947  10.993 -1.2822  1.1596  0.8691
 5037TIP3   OH236525   0.498   4.334  14.645  0.2025 -0.5612  0.6085
 5037TIP3    H136526   0.478   4.289  14.727 -1.0576 -1.3360 -0.1118
 5037TIP3    H236527   0.452   4.417  14.652 -0.6569 -1.0042  0.3147
 5038TIP3   OH236528   0.200   4.171  16.742 -0.4382 -0.2453  0.1424
 5038TIP3    H136529   0.209   4.090  16.792 -0.4010 -0.4732 -0.2313
 5038TIP3    H236530   0.107   4.193  16.750 -0.6507 -0.8511 -0.5598
 5039TIP3   OH236531   6.660   1.578   0.519  0.2571  0.0956 -0.1044
 5039TIP3    H136532   6.703   1.504   0.476  0.0721 -0.2104  0.2348
 5039TIP3    H236533   6.698   1.656   0.477  2.3233 -0.1163  1.2994
 5040TIP3   OH236534   4.382   1.686  16.979  0.4216 -0.0743  0.3644
 5040TIP3    H136535   4.332   1.758  16.941  1.4266  0.5130  0.1367
 5040TIP3    H236536   4.459   1.678  16.923  1.1516 -0.2183  1.3845
 5041TIP3   OH236537   1.482   1.135  12.143  0.0916 -0.0844 -0.4626
 5041TIP3    H136538   1.516   1.095  12.063 -2.0188 -0.8847 -0.9814
 5041TIP3    H236539   1.463   1.062  12.201 -1.5668  0.2829 -0.5177
 5042TIP3   OH236540   4.671   4.000  11.836 -0.5190 -0.0085  0.1449
 5042TIP3    H136541   4.673   4.058  11.911 -0.0382 -1.1920  1.0753
 5042TIP3    H236542   4.638   4.054  11.764 -2.5305  0.7187  1.5596
 5043TIP3   OH236543   4.574   2.534   2.602 -0.3446 -0.1138  0.4619
 5043TIP3    H136544   4.598   2.447   2.634  0.2898  0.4164  1.4572
 5043TIP3    H236545   4.533   2.576   2.677 -0.4459  0.5288  0.0496
 5044TIP3   OH236546   1.692   3.710  11.460 -0.6555  0.0173  0.2553
 5044TIP3    H136547   1.693   3.686  11.552  0.1296 -1.1489 -0.0456
 5044TIP3    H236548   1.748   3.645  11.417 -0.1877  1.1481 -0.8940
 5045TIP3   OH236549   5.470   0.941  15.958  0.0705  1.2932 -0.3099
 5045TIP3    H136550   5.467   0.905  15.869 -1.7898  2.8982 -0.9378
 5045TIP3    H236551   5.482   0.865  16.014  0.8438  0.2076 -1.9018
 5046TIP3   OH236552   1.119   1.475   4.874  0.0678  0.5301 -0.3445
 5046TIP3    H136553   1.104   1.440   4.961  0.2238  1.2497 -0.0258
 5046TIP3    H236554   1.213   1.464   4.859 -0.1016 -0.4145 -0.7894
 5047TIP3   OH236555   1.982   3.353   3.656  0.6443 -0.2842 -0.0904
 5047TIP3    H136556   1.978   3.448   3.653  0.5640 -0.2852 -0.0167
 5047TIP3    H236557   2.076   3.333   3.649  0.5827 -0.2384 -1.0810
 5048TIP3   OH236558   4.725   0.524   0.944  0.4604  0.2324 -0.1216
 5048TIP3    H136559   4.723   0.523   1.039  1.1067  0.0811 -0.1074
 5048TIP3    H236560   4.807   0.481   0.921  1.0662  1.6927 -0.7207
 5049TIP3   OH236561   1.491   3.783   0.726  0.5203 -0.0115  0.0961
 5049TIP3    H136562   1.472   3.774   0.820  0.0076  0.1299  0.0123
 5049TIP3    H236563   1.523   3.873   0.717 -0.5465  0.3728 -0.0298
 5050TIP3   OH236564   3.609   2.538   5.635  0.2175 -0.3757 -0.0481
 5050TIP3    H136565   3.562   2.508   5.557  1.1426 -0.1035 -0.7179
 5050TIP3    H236566   3.662   2.462   5.661  0.1072 -0.3806  0.1620
 5051TIP3   OH236567   3.470   2.414  12.370 -0.3866 -0.6994 -0.3139
 5051TIP3    H136568   3.487   2.441  12.280  1.7807 -2.7844 -0.5834
 5051TIP3    H236569   3.471   2.318  12.367 -0.8960 -0.8034  1.8284
 5052TIP3   OH236570   1.660   5.256  14.194  0.2719 -0.1729 -0.0641
 5052TIP3    H136571   1.623   5.298  14.117  0.6112  0.1183 -0.0689
 5052TIP3    H236572   1.713   5.184  14.159 -0.0450 -0.4095 -0.0697
 5053TIP3   OH236573   0.190   1.039   3.411  0.6845  0.0698 -0.1791
 5053TIP3    H136574   0.283   1.051   3.430  0.7765  0.2112 -0.7144
 5053TIP3    H236575   0.150   1.124   3.430  0.5681 -0.1502  0.5950
 5054TIP3   OH236576   4.378   2.964   3.713  0.0504  0.4166 -0.0004
 5054TIP3    H136577   4.471   2.961   3.690  1.2593  2.0237  4.2351
 5054TIP3    H236578   4.364   3.052   3.747 -3.2747  0.4961 -1.3467
 5055TIP3   OH236579   1.516   6.720   2.799  0.0350  0.3106 -0.0342
 5055TIP3    H136580   1.579   6.786   2.826 -1.2240  1.4843  0.0826
 5055TIP3    H236581   1.569   6.652   2.757  1.9356 -0.9209  4.0204
 5056TIP3   OH236582   6.110   6.084   4.428  0.0577  0.2155 -0.1302
 5056TIP3    H136583   6.096   6.090   4.523 -1.6361  0.7189 -0.3970
 5056TIP3    H236584   6.093   5.992   4.407 -0.4766  0.3009 -0.0801
 5057TIP3   OH236585   5.498   5.920  14.488  0.6765  0.4707 -0.0638
 5057TIP3    H136586   5.411   5.906  14.450  1.5293 -0.2497 -1.7718
 5057TIP3    H236587   5.558   5.878  14.427  2.0939 -0.6122  2.0182
 5058TIP3   OH236588   3.760   3.034  15.894  0.4067 -0.2380  0.5432
 5058TIP3    H136589   3.811   3.002  15.821  2.1662  0.0176  1.6338
 5058TIP3    H236590   3.764   2.965  15.960 -1.3885 -0.5870  0.3295
 5059TIP3   OH236591   5.867   4.451  14.512 -0.1644 -0.3333 -0.7923
 5059TIP3    H136592   5.811   4.490  14.444  0.2609 -0.6072 -1.3046
 5059TIP3    H236593   5.819   4.374  14.541 -1.3464  0.9265  0.7246
 5060TIP3   OH236594   3.641   4.231  11.111  0.1548  0.4758  0.3565
 5060TIP3    H136595   3.561   4.204  11.066 -0.8862  0.8265  1.9823
 5060TIP3    H236596   3.703   4.249  11.040 -1.5507  1.2850 -0.9665
 5061TIP3   OH236597   6.061   2.850   5.529 -0.4816 -0.5456 -0.3100
 5061TIP3    H136598   6.108   2.842   5.611 -0.8619  0.4887  0.0164
 5061TIP3    H236599   5.981   2.798   5.542 -0.8831  0.2066  0.2318
 5062TIP3   OH236600   3.082   2.301  11.029  0.2975  0.0215  0.1350
 5062TIP3    H136601   3.144   2.310  11.102 -0.2913  0.3125  0.6036
 5062TIP3    H236602   3.130   2.330  10.952  0.4633  1.0517  0.6287
 5063TIP3   OH236603   2.557   2.730   4.264  0.2312 -0.6362 -0.3059
 5063TIP3    H136604   2.596   2.767   4.184  2.0660 -1.0948  0.3647
 5063TIP3    H236605   2.485   2.676   4.232  0.0015  0.3738 -1.5614
 5064TIP3   OH236606   1.442   4.760  16.576  0.2035  0.1507 -0.4064
 5064TIP3    H136607   1.355   4.728  16.598  0.7034 -0.4917  0.6886
 5064TIP3    H236608   1.496   4.735  16.651  1.6534 -0.8969 -1.7616
 5065TIP3   OH236609   3.360   6.374  11.529  0.2550  0.0102 -0.4243
 5065TIP3    H136610   3.391   6.283  11.537 -0.3236 -0.1686 -0.1953
 5065TIP3    H236611   3.394   6.418  11.607 -1.2379 -0.5315  0.5667
 5066TIP3   OH236612   2.183   4.302   1.371  0.2245  0.0078  1.1676
 5066TIP3    H136613   2.174   4.329   1.462  0.7555  0.1501  1.1822
 5066TIP3    H236614   2.150   4.377   1.321 -1.8353 -0.7980  1.2582
 5067TIP3   OH236615   3.414   5.740  16.610 -0.5168  0.5429 -0.1183
 5067TIP3    H136616   3.455   5.661  16.575 -1.8166 -0.8418  1.4082
 5067TIP3    H236617   3.395   5.719  16.701 -2.7592  1.8838 -0.2387
 5068TIP3   OH236618   1.137   3.891   5.821  0.0886  0.2868 -0.3137
 5068TIP3    H136619   1.051   3.870   5.785 -0.7484 -1.3828  2.4574
 5068TIP3    H236620   1.131   3.983   5.845 -0.7932  0.2834 -0.5073
 5069TIP3   OH236621   2.122   0.004   0.472 -0.3725 -0.0493 -0.7815
 5069TIP3    H136622   2.126  -0.021   0.380  0.4170 -1.7283 -0.3247
 5069TIP3    H236623   2.210  -0.016   0.506 -1.3018 -1.5245  0.8215
 5070TIP3   OH236624   4.286   6.146   1.912  0.0844  0.0654  0.0918
 5070TIP3    H136625   4.309   6.223   1.860 -1.0811  0.1516 -0.3085
 5070TIP3    H236626   4.225   6.179   1.978  1.0969 -0.1568  1.1727
 5071TIP3   OH236627   5.739   5.834  14.570 -0.3110 -0.1004 -0.3241
 5071TIP3    H136628   5.666   5.894  14.590 -1.7916 -0.5168 -4.1499
 5071TIP3    H236629   5.696   5.754  14.540  1.7289 -1.3268 -0.0277
 5072TIP3   OH236630   3.629   3.327   1.642  0.5223  0.1113 -0.3277
 5072TIP3    H136631   3.571   3.354   1.714 -0.9582 -0.4573 -1.2771
 5072TIP3    H236632   3.696   3.274   1.685  0.8427  1.4817  0.9139
 5073TIP3   OH236633   1.042   4.242  14.891  0.4899  0.0814  0.6580
 5073TIP3    H136634   1.032   4.313  14.828  2.1057 -0.5255 -0.3245
 5073TIP3    H236635   0.953   4.223  14.920  0.0481  2.6221  1.1019
 5074TIP3   OH236636   2.124   5.531  13.078  0.6050  0.1989 -0.1022
 5074TIP3    H136637   2.191   5.483  13.030  0.7273 -0.6106  0.8692
 5074TIP3    H236638   2.054   5.467  13.093  0.0003  0.7986 -0.3311
 5075TIP3   OH236639   3.850   2.120  15.816  0.2381 -0.7868  0.2734
 5075TIP3    H136640   3.946   2.129  15.811  0.1391 -0.2995 -0.9625
 5075TIP3    H236641   3.819   2.209  15.832 -0.1028 -0.7179 -0.7939
 5076TIP3   OH236642   3.419   5.928  12.396  0.1837  0.1134 -0.4048
 5076TIP3    H136643   3.327   5.953  12.397 -0.4971 -2.2420  1.2098
 5076TIP3    H236644   3.464   6.002  12.437 -1.1316  0.8090 -0.1925
 5077TIP3   OH236645   6.515   2.944   1.599  0.2066 -0.1921 -0.3985
 5077TIP3    H136646   6.475   2.954   1.686  1.7866  0.3922  0.2787
 5077TIP3    H236647   6.554   3.029   1.581  0.9262 -0.6762 -1.1592
 5078TIP3   OH236648   3.095   3.906  15.317 -0.1962  0.1474  0.2542
 5078TIP3    H136649   3.042   3.831  15.291 -0.9102  0.3758  1.0338
 5078TIP3    H236650   3.183   3.885  15.286 -0.5929 -0.5612 -0.4044
 5079TIP3   OH236651   0.769   4.019  14.750  0.7909 -0.3041  0.1793
 5079TIP3    H136652   0.677   3.992  14.746  0.4277  0.8769  0.1599
 5079TIP3    H236653   0.776   4.069  14.832  1.8029 -1.7255  0.9752
 5080TIP3   OH236654   6.706   2.135  15.605  0.4036 -0.2784  0.5179
 5080TIP3    H136655   6.646   2.158  15.534 -2.6188 -4.1533  1.6121
 5080TIP3    H236656   6.792   2.134  15.564 -1.1518 -1.5465 -2.9448
 5081TIP3   OH236657   4.779   5.717  15.840  0.2197  0.0459  0.4093
 5081TIP3    H136658   4.869   5.744  15.820 -0.4247 -0.0577 -3.0326
 5081TIP3    H236659   4.785   5.622  15.851  0.5082  0.0152  0.0235
 5082TIP3   OH236660   0.146   3.166  14.977 -0.1088  0.4893 -0.5424
 5082TIP3    H136661   0.198   3.086  14.964 -0.6851  0.2476 -1.4145
 5082TIP3    H236662   0.196   3.235  14.935  0.0093  0.4431 -0.4771
 5083TIP3   OH236663   2.008   0.218   3.672  0.2937 -0.0495  0.6534
 5083TIP3    H136664   1.994   0.133   3.714  2.1753 -0.6896  0.0143
 5083TIP3    H236665   2.078   0.202   3.609 -0.9154  1.4423 -1.1166
 5084TIP3   OH236666   5.957   3.415  15.934  0.1694  0.0340 -0.1001
 5084TIP3    H136667   5.959   3.320  15.928 -0.4758  0.0062  0.1215
 5084TIP3    H236668   5.979   3.445  15.846  3.7596 -0.2801  0.6364
 5085TIP3   OH236669   3.119   6.010   1.483  0.1705 -0.0511  0.4281
 5085TIP3    H136670   3.055   5.999   1.413  0.7063  0.6257 -0.1785
 5085TIP3    H236671   3.187   5.945   1.465 -0.0219 -0.3246  0.6949
 5086TIP3   OH236672   4.075   5.337   1.275 -0.1138 -0.3864  0.0529
 5086TIP3    H136673   4.011   5.399   1.311 -1.4111 -0.1805 -2.4422
 5086TIP3    H236674   4.144   5.393   1.239 -0.7767 -0.3835 -1.2681
 5087TIP3   OH236675   5.345   0.320  12.009  0.7952  0.1462  0.2803
 5087TIP3    H136676   5.379   0.295  12.095  0.5468  1.2673  0.7179
 5087TIP3    H236677   5.353   0.241  11.956 -1.4680 -1.3448  2.0754
 5088TIP3   OH236678   3.739   1.254   3.876  0.0228  0.4758 -0.3772
 5088TIP3    H136679   3.700   1.217   3.797  0.9375 -1.0158 -0.1387
 5088TIP3    H236680   3.664   1.279   3.930 -0.6058  0.9985 -1.4770
 5089TIP3   OH236681   1.152   6.707  14.953 -0.0561  0.2976  0.1271
 5089TIP3    H136682   1.175   6.659  15.033  0.4501  0.2498 -0.0457
 5089TIP3    H236683   1.223   6.770  14.942 -0.5066  0.7986  0.1182
 5090TIP3   OH236684   3.227   4.465  13.981 -0.1144 -0.0752  0.2551
 5090TIP3    H136685   3.207   4.437  13.892 -0.0270 -0.9815  0.5133
 5090TIP3    H236686   3.169   4.412  14.036 -0.1673  0.4770  0.7398
 5091TIP3   OH236687   6.151   5.990  13.664  1.1690 -0.3689  0.1078
 5091TIP3    H136688   6.120   5.945  13.742  0.7255 -0.1345  0.0655
 5091TIP3    H236689   6.125   5.933  13.592 -0.2435  0.4111 -0.0195
 5092TIP3   OH236690   2.892   2.819  14.308  0.7708 -0.1151  0.0148
 5092TIP3    H136691   2.933   2.741  14.270 -0.3211 -0.0202 -1.3969
 5092TIP3    H236692   2.944   2.892  14.275 -0.4151 -0.0031 -1.6914
 5093TIP3   OH236693   5.698   1.938   0.533 -0.0956 -0.2449  0.1150
 5093TIP3    H136694   5.671   1.848   0.552  0.3618 -0.4133 -0.0027
 5093TIP3    H236695   5.685   1.948   0.439  2.6908 -1.2073 -0.4351
 5094TIP3   OH236696   1.528   0.856  13.311  0.1679 -0.0379 -0.5229
 5094TIP3    H136697   1.605   0.838  13.365  0.4032  0.0929 -0.8125
 5094TIP3    H236698   1.538   0.797  13.236  0.0727  0.1030 -0.6462
 5095TIP3   OH236699   0.707   1.219   6.068  0.7185 -0.0060 -0.8498
 5095TIP3    H136700   0.712   1.229   5.973  1.6795  0.3184 -0.7756
 5095TIP3    H236701   0.637   1.278   6.094 -0.2511 -0.8799 -1.4684
 5096TIP3   OH236702   1.754   4.394   2.465 -0.0279  0.0171 -0.2738
 5096TIP3    H136703   1.840   4.403   2.424 -0.1940  1.9841 -0.2593
 5096TIP3    H236704   1.713   4.480   2.453 -2.1798 -1.0209 -0.6869
 5097TIP3   OH236705   2.895   6.278   3.241  0.8158  0.9585  0.0594
 5097TIP3    H136706   2.857   6.345   3.184 -1.2402 -0.0611  0.1786
 5097TIP3    H236707   2.880   6.196   3.194  2.6232  0.5007  0.2719
 5098TIP3   OH236708   2.399   4.925  11.824  0.3584 -0.4275 -0.1399
 5098TIP3    H136709   2.327   4.964  11.873  0.2939 -0.8661  0.1190
 5098TIP3    H236710   2.443   4.867  11.886  0.1708 -1.1221 -0.6442
 5099TIP3   OH236711   4.662   6.591  11.701 -0.5180  0.2764 -0.2405
 5099TIP3    H136712   4.674   6.677  11.660  0.7984 -0.1259 -0.7257
 5099TIP3    H236713   4.701   6.530  11.639 -0.5578 -0.5704  0.5683
 5100TIP3   OH236714   1.917   5.775   0.922  0.0044  0.1241 -0.3859
 5100TIP3    H136715   1.939   5.746   0.834  1.1741 -0.0902 -0.0277
 5100TIP3    H236716   1.825   5.801   0.916 -0.2484 -0.9537 -1.3927
 5101TIP3   OH236717   0.869   2.496   2.111 -0.2493  0.2526  0.4633
 5101TIP3    H136718   0.828   2.420   2.070  1.0562 -0.2927  0.1311
 5101TIP3    H236719   0.962   2.486   2.092  0.3100  0.4060  2.8626
 5102TIP3   OH236720   5.546   1.226   1.663 -0.1444  0.2276  0.2765
 5102TIP3    H136721   5.607   1.202   1.732  0.3451  0.9907  0.1185
 5102TIP3    H236722   5.545   1.322   1.663  1.2454  0.2745 -1.9583
 5103TIP3   OH236723   4.243   2.637  12.227  0.0759  0.1715 -0.4361
 5103TIP3    H136724   4.335   2.661  12.217 -0.2227  1.0352 -1.2099
 5103TIP3    H236725   4.205   2.708  12.278 -0.3062  0.1421 -0.6784
 5104TIP3   OH236726   4.778   0.267  14.500  0.3220 -0.0772 -0.5283
 5104TIP3    H136727   4.789   0.351  14.545 -0.5350 -0.2272 -0.0201
 5104TIP3    H236728   4.767   0.290  14.408 -2.0926  0.5398 -0.1121
 5105TIP3   OH236729   3.280   2.446   4.543  0.0718  0.5204 -0.3091
 5105TIP3    H136730   3.299   2.465   4.451  1.5065 -2.2460 -0.6318
 5105TIP3    H236731   3.258   2.531   4.581  0.3580  1.8446 -2.9807
 5106TIP3   OH236732   1.406   4.876   2.731 -0.0894  0.5927  0.1157
 5106TIP3    H136733   1.328   4.924   2.760 -1.4530 -1.4800 -0.0593
 5106TIP3    H236734   1.475   4.906   2.790 -1.1737  1.9098  0.7474
 5107TIP3   OH236735   5.608   0.305  12.156 -0.4466  0.1764 -0.0001
 5107TIP3    H136736   5.633   0.237  12.093 -0.2474 -0.5034  0.8101
 5107TIP3    H236737   5.611   0.386  12.106  0.5278 -0.2570 -0.6565
 5108TIP3   OH236738   1.232   6.564  13.528 -0.3184  0.0376 -0.1727
 5108TIP3    H136739   1.193   6.477  13.534  1.2052 -0.6162  0.5384
 5108TIP3    H236740   1.323   6.548  13.502  0.3051  1.3297  1.1296
 5109TIP3   OH236741   4.242   4.927   5.789  0.2420  0.3742 -0.0531
 5109TIP3    H136742   4.287   4.842   5.790 -1.0605 -0.3698  3.0361
 5109TIP3    H236743   4.266   4.968   5.872 -0.9932  2.0168 -0.4746
 5110TIP3   OH236744   1.504   2.792  12.210  0.3619 -0.2691 -0.0246
 5110TIP3    H136745   1.481   2.793  12.118  0.3133  1.8447 -0.0044
 5110TIP3    H236746   1.598   2.812  12.212  0.4261 -0.5833  0.3737
 5111TIP3   OH236747   4.138   0.351   5.220 -0.2868  0.1698 -0.3930
 5111TIP3    H136748   4.165   0.269   5.180  0.4726  0.0493  0.3678
 5111TIP3    H236749   4.095   0.326   5.302 -2.8342  0.3460 -1.6238
 5112TIP3   OH236750   4.492   5.986  10.570 -0.3232  0.0316  0.2133
 5112TIP3    H136751   4.545   5.906  10.563 -0.9864 -0.4463  0.6260
 5112TIP3    H236752   4.537   6.049  10.514  0.7306 -0.3477  0.6162
 5113TIP3   OH236753   3.254   5.617   3.145  0.0380 -0.0292  0.2436
 5113TIP3    H136754   3.307   5.696   3.149 -2.2794  1.5973 -0.3263
 5113TIP3    H236755   3.273   5.571   3.227  1.2367  1.2164  0.6795
 5114TIP3   OH236756   2.087   0.085   6.271  0.3378 -0.4461 -0.2939
 5114TIP3    H136757   2.057   0.004   6.313 -0.2219  1.3085  2.8831
 5114TIP3    H236758   2.013   0.113   6.217 -1.8731  1.0142  3.2810
 5115TIP3   OH236759   1.220   5.455   6.550 -0.4729  0.1571  1.0096
 5115TIP3    H136760   1.195   5.473   6.460  1.1635  3.3121  1.1258
 5115TIP3    H236761   1.313   5.435   6.547 -0.5006 -0.1665  1.9412
 5116TIP3   OH236762   0.630   3.863  10.777  0.0958 -0.0817 -0.4918
 5116TIP3    H136763   0.684   3.925  10.827  1.1768 -0.6313 -0.9506
 5116TIP3    H236764   0.677   3.780  10.785 -0.6062 -0.5304 -1.0492
 5117TIP3   OH236765   0.015   1.584  13.092  0.2865  0.2306  0.0733
 5117TIP3    H136766   0.025   1.649  13.022 -1.4787  1.1973  0.6704
 5117TIP3    H236767   0.085   1.522  13.078  1.2229  1.5721 -1.3065
 5118TIP3   OH236768   2.871   2.530  14.849  0.0751 -0.1415 -0.1682
 5118TIP3    H136769   2.902   2.515  14.938 -1.0009  0.2664  0.2901
 5118TIP3    H236770   2.903   2.617  14.827  0.8348 -0.4738 -0.4076
 5119TIP3   OH236771   5.438   1.614  15.605 -0.2971  0.1049 -0.1627
 5119TIP3    H136772   5.353   1.638  15.569  0.0306  0.3534 -0.7716
 5119TIP3    H236773   5.483   1.697  15.620 -0.0703 -0.0361 -0.0581
 5120TIP3   OH236774   5.376   0.089   3.221  0.8467 -0.2431 -0.4383
 5120TIP3    H136775   5.392   0.028   3.293  0.7372  0.2116 -0.0251
 5120TIP3    H236776   5.418   0.048   3.145  0.6444 -0.9037 -0.1978
 5121TIP3   OH236777   0.486   0.403   4.387  0.1300 -0.4521  0.2238
 5121TIP3    H136778   0.573   0.416   4.424  0.0123 -1.5351  0.9146
 5121TIP3    H236779   0.492   0.435   4.298  0.7593  1.0799  0.8114
 5122TIP3   OH236780   5.607   0.095   0.810 -0.0601  0.0546 -0.0935
 5122TIP3    H136781   5.658   0.042   0.749  0.2161 -1.7857  1.7070
 5122TIP3    H236782   5.596   0.040   0.887 -1.4543  1.8888  1.0628
 5123TIP3   OH236783   5.551   3.798  14.741  0.0308 -0.7237 -0.5298
 5123TIP3    H136784   5.599   3.838  14.668 -2.4886 -0.5356 -2.1686
 5123TIP3    H236785   5.556   3.862  14.811  0.9185 -0.0758 -1.1658
 5124TIP3   OH236786   4.611   0.715  14.254 -0.2128 -0.2077 -0.3750
 5124TIP3    H136787   4.614   0.678  14.342 -2.6394  1.0928  0.3134
 5124TIP3    H236788   4.533   0.677  14.214  0.6441 -0.4831 -1.8357
 5125TIP3   OH236789   3.683   4.164  12.509 -0.0661 -0.3029  0.0204
 5125TIP3    H136790   3.670   4.251  12.548 -1.9826 -0.0185 -1.1631
 5125TIP3    H236791   3.770   4.168  12.470  0.3920  0.6348  1.1011
 5126TIP3   OH236792   1.544   0.828   3.944 -0.2656 -0.0704 -0.3648
 5126TIP3    H136793   1.586   0.907   3.912 -1.4979 -0.2090 -2.3697
 5126TIP3    H236794   1.538   0.840   4.039  2.0209  1.0200 -0.3380
 5127TIP3   OH236795   5.505   1.531  12.512  0.0488  0.3352  0.3742
 5127TIP3    H136796   5.492   1.622  12.487 -0.7000 -0.0537 -0.6818
 5127TIP3    H236797   5.456   1.481  12.447  1.9016 -0.9033 -0.1012
 5128TIP3   OH236798   2.499   3.454  12.650  0.2192 -0.4135  0.3492
 5128TIP3    H136799   2.432   3.387  12.639  2.1135 -2.3087 -0.2226
 5128TIP3    H236800   2.487   3.513  12.575 -0.1175 -1.3605 -0.3487
 5129TIP3   OH236801   0.898   6.111   1.457  0.2630 -0.1494 -0.6451
 5129TIP3    H136802   0.974   6.163   1.486 -0.4408  0.6204 -0.1562
 5129TIP3    H236803   0.934   6.050   1.392  1.7323 -1.3885  1.2830
 5130TIP3   OH236804   3.507   2.872   4.818 -0.4696 -0.0520 -0.1697
 5130TIP3    H136805   3.598   2.899   4.832  0.4013 -4.0013  2.5889
 5130TIP3    H236806   3.457   2.923   4.882  0.2786 -0.3576  0.6692
 5131TIP3   OH236807   2.569   2.317  16.449 -0.1678  0.2383  0.3099
 5131TIP3    H136808   2.661   2.301  16.472 -0.0687  0.1430 -0.1392
 5131TIP3    H236809   2.519   2.256  16.502 -0.0011  0.5985  0.8902
 5132TIP3   OH236810   3.685   4.062   0.130  0.4935  0.3881 -0.0861
 5132TIP3    H136811   3.675   4.008   0.052 -0.7247  0.8355 -0.2465
 5132TIP3    H236812   3.601   4.056   0.175  0.4113  1.9779 -0.0005
 5133TIP3   OH236813   3.057   5.367  15.155 -0.1454  0.6049 -0.2767
 5133TIP3    H136814   3.116   5.293  15.134  0.9971  1.5126 -0.3282
 5133TIP3    H236815   3.113   5.444  15.148 -0.6156  1.2631  2.5785
 5134TIP3   OH236816   1.871   6.378   0.469  0.4054  0.0811  0.0033
 5134TIP3    H136817   1.894   6.391   0.376 -1.5965  0.6951 -0.4129
 5134TIP3    H236818   1.868   6.466   0.506 -2.5717  0.1206 -0.2744
 5135TIP3   OH236819   3.367   2.970  14.164  0.4355  0.3307  0.0580
 5135TIP3    H136820   3.427   2.916  14.112 -0.3311 -0.8122  0.3624
 5135TIP3    H236821   3.425   3.026  14.216  1.2217  0.9512 -1.4434
 5136TIP3   OH236822   5.546   5.357  12.696 -0.3072  0.0427 -0.3094
 5136TIP3    H136823   5.523   5.441  12.656 -0.8257 -0.0485 -0.2059
 5136TIP3    H236824   5.618   5.377  12.756  0.4265  0.1944 -1.2321
 5137TIP3   OH236825   3.498   5.135   5.458 -0.5882  0.7023  0.2414
 5137TIP3    H136826   3.433   5.177   5.515 -1.6161 -1.2153  0.5143
 5137TIP3    H236827   3.453   5.125   5.374 -0.4866 -0.1700  0.2872
 5138TIP3   OH236828   3.835   2.155  10.810 -0.0011  0.9348  0.0382
 5138TIP3    H136829   3.774   2.082  10.805  1.0943  0.0596 -0.9769
 5138TIP3    H236830   3.882   2.152  10.727  1.5310  1.4846  0.8694
 5139TIP3   OH236831   0.773   5.748   1.041  0.0469 -0.1852  0.4760
 5139TIP3    H136832   0.819   5.696   0.975  1.6177  0.9093  0.6843
 5139TIP3    H236833   0.842   5.790   1.091 -1.1560 -0.1109  2.1175
 5140TIP3   OH236834   1.013   0.069   2.529  0.6572  0.2250  0.9016
 5140TIP3    H136835   1.002  -0.025   2.514  0.8344  0.1767  1.0589
 5140TIP3    H236836   1.027   0.106   2.442  0.1290  0.1719  0.7928
 5141TIP3   OH236837   0.991   1.779  14.177 -0.4447 -0.1100  0.5094
 5141TIP3    H136838   0.945   1.840  14.120 -2.2510 -1.2662  0.6916
 5141TIP3    H236839   0.943   1.783  14.260 -1.2049 -2.4659  0.2178
 5142TIP3   OH236840   4.320   4.964  13.314 -0.0998 -0.4050 -0.0019
 5142TIP3    H136841   4.252   4.924  13.259  0.0002 -0.2218 -0.2596
 5142TIP3    H236842   4.400   4.916  13.293 -0.0394 -0.2640 -0.0962
 5143TIP3   OH236843   2.218   1.352  10.844 -0.2465 -0.1144 -0.5396
 5143TIP3    H136844   2.205   1.355  10.939 -0.7155  1.7813 -0.6197
 5143TIP3    H236845   2.312   1.351  10.832 -0.1534  1.2267 -0.0449
 5144TIP3   OH236846   2.171   2.217  11.954  0.2627  0.3401 -0.4817
 5144TIP3    H136847   2.097   2.157  11.956  1.1066 -0.7255 -0.8560
 5144TIP3    H236848   2.135   2.298  11.918 -0.7215 -0.1632 -0.6572
 5145TIP3   OH236849   3.963   5.210  16.080 -0.4081  0.1219 -0.4140
 5145TIP3    H136850   4.019   5.152  16.132 -0.3538  1.0201  0.5516
 5145TIP3    H236851   3.958   5.290  16.131  0.8762  1.5894 -2.5282
 5146TIP3   OH236852   6.291   6.701   5.014  0.4040 -0.3197  0.1909
 5146TIP3    H136853   6.228   6.633   4.990 -0.5024  0.5106  0.2207
 5146TIP3    H236854   6.271   6.721   5.105  0.7171 -0.0566  0.2020
 5147TIP3   OH236855   2.342   0.618  14.749  0.3867 -0.1138  0.3408
 5147TIP3    H136856   2.395   0.696  14.766  0.8023  0.2847 -2.5499
 5147TIP3    H236857   2.252   0.647  14.764  0.5963  0.6960  0.0710
 5148TIP3   OH236858   3.698   5.053   2.179 -0.1239 -1.0656  0.7987
 5148TIP3    H136859   3.788   5.032   2.204  0.5358 -0.2929 -0.8451
 5148TIP3    H236860   3.696   5.042   2.084 -1.7388 -0.9379  0.7958
 5149TIP3   OH236861   0.406   6.725   5.470  0.1827  0.9034  0.0558
 5149TIP3    H136862   0.453   6.708   5.552 -1.3700 -2.1470  0.3553
 5149TIP3    H236863   0.439   6.660   5.409 -0.9228  1.1617 -0.8432
 5150TIP3   OH236864   3.375   1.727   2.545 -0.1951  0.3062  0.1750
 5150TIP3    H136865   3.462   1.757   2.569 -0.3116 -0.0216  1.0425
 5150TIP3    H236866   3.360   1.650   2.601 -1.2270  0.6431  0.3764
 5151TIP3   OH236867   2.449   0.729  12.503 -0.0192 -0.1497 -0.4602
 5151TIP3    H136868   2.506   0.762  12.573  0.4994 -0.3267 -0.8001
 5151TIP3    H236869   2.389   0.802  12.486  0.8783  0.4947 -0.9439
 5152TIP3   OH236870   2.522   3.318   2.831  0.2333  0.4633  0.8660
 5152TIP3    H136871   2.507   3.412   2.836 -0.5883  0.4838 -1.3474
 5152TIP3    H236872   2.617   3.309   2.825  0.2169  1.3033 -1.0396
 5153TIP3   OH236873   6.285   0.170  12.008 -0.0129 -0.4238 -0.4505
 5153TIP3    H136874   6.342   0.136  11.940  0.5507 -1.3403  0.4714
 5153TIP3    H236875   6.197   0.145  11.981  0.1419 -0.2128 -1.1644
 5154TIP3   OH236876   2.132   1.158   5.153  0.7149  0.4362  0.0658
 5154TIP3    H136877   2.048   1.192   5.121 -0.0578 -0.6053  0.9282
 5154TIP3    H236878   2.121   1.063   5.151  1.9440  0.2886  0.0286
 5155TIP3   OH236879   0.861   1.949   6.548 -0.2855 -0.3357  0.0404
 5155TIP3    H136880   0.863   1.905   6.634 -0.2000  0.2902  0.3575
 5155TIP3    H236881   0.798   2.019   6.559 -0.6555 -0.5747 -0.5695
 5156TIP3   OH236882   4.513   5.495  15.701 -1.2020 -0.1602  0.5158
 5156TIP3    H136883   4.489   5.403  15.696 -1.9609  0.0709 -0.3288
 5156TIP3    H236884   4.529   5.512  15.793  1.2806 -1.7206  0.4135
 5157TIP3   OH236885   5.367   3.272  15.307 -0.4784 -0.0403  0.4678
 5157TIP3    H136886   5.449   3.320  15.315 -0.5616  0.2758 -0.4934
 5157TIP3    H236887   5.299   3.334  15.334 -0.4230 -0.2019  0.9709
 5158TIP3   OH236888   3.697   1.483  17.076 -0.1583 -0.1148 -0.6306
 5158TIP3    H136889   3.696   1.421  17.003 -1.9138  1.0892 -1.6734
 5158TIP3    H236890   3.747   1.557  17.043 -1.9434  0.9286 -1.0791
 5159TIP3   OH236891   3.578   6.287   0.696 -0.4928 -0.3804 -0.3196
 5159TIP3    H136892   3.548   6.369   0.737 -0.1989  0.3883 -1.5977
 5159TIP3    H236893   3.514   6.222   0.724 -0.9630  0.3742  0.4031
 5160TIP3   OH236894   0.999   2.289   0.741  0.1648 -0.4500  0.2799
 5160TIP3    H136895   1.041   2.282   0.656 -0.5577 -0.7333 -0.0622
 5160TIP3    H236896   0.999   2.383   0.761  0.1039 -0.3571 -0.1546
 5161TIP3   OH236897   2.688   2.003  15.680  0.4886  0.3492  0.2799
 5161TIP3    H136898   2.652   2.084  15.716 -0.3401  0.5083 -0.8797
 5161TIP3    H236899   2.629   1.935  15.711 -0.3270  0.5060 -0.8710
 5162TIP3   OH236900   4.670   4.716   4.926  0.0356 -0.1484  0.6786
 5162TIP3    H136901   4.730   4.642   4.934 -0.2700 -0.3436  1.1805
 5162TIP3    H236902   4.699   4.762   4.847 -0.4946 -1.4712 -0.2982
 5163TIP3   OH236903   3.535   0.413  11.904  0.4887 -0.3426 -0.1807
 5163TIP3    H136904   3.441   0.413  11.885  0.1897  1.5696  1.1288
 5163TIP3    H236905   3.541   0.427  11.999  2.0926 -1.2659 -0.1180
 5164TIP3   OH236906   2.744   5.308  13.192 -0.0520  0.3215 -0.2088
 5164TIP3    H136907   2.775   5.308  13.102 -0.2869 -0.6022 -0.2959
 5164TIP3    H236908   2.770   5.222  13.226 -1.7643 -0.1609 -0.0472
 5165TIP3   OH236909   4.516   5.090   2.783  0.0339  0.1362  0.1246
 5165TIP3    H136910   4.423   5.103   2.801 -0.2818 -0.6908 -0.8715
 5165TIP3    H236911   4.542   5.167   2.733  0.2626  1.1202  1.7364
 5166TIP3   OH236912   6.115   1.389   5.224 -0.5737  0.4939  0.1726
 5166TIP3    H136913   6.193   1.334   5.218 -0.1782  0.9448  1.0840
 5166TIP3    H236914   6.042   1.328   5.230 -0.1905  0.0757  0.5365
 5167TIP3   OH236915   6.236   2.279  11.883 -0.1612 -0.2301 -0.2442
 5167TIP3    H136916   6.327   2.303  11.900  0.0510 -0.3975 -1.1230
 5167TIP3    H236917   6.221   2.305  11.792 -0.8773 -0.5677 -0.2274
 5168TIP3   OH236918   5.725   0.462   6.321 -0.4416 -0.7872  0.9256
 5168TIP3    H136919   5.772   0.536   6.281  1.2490 -1.7423  1.0884
 5168TIP3    H236920   5.634   0.474   6.294 -0.0695  0.9589  0.3612
 5169TIP3   OH236921   3.242   0.332  16.833 -0.0031  0.0471  1.0952
 5169TIP3    H136922   3.191   0.402  16.792 -0.6281 -0.1861  1.4584
 5169TIP3    H236923   3.195   0.252  16.808  0.6104 -0.2268  0.8204
 5170TIP3   OH236924   3.636   1.465  11.824  0.6781  1.1518  0.1599
 5170TIP3    H136925   3.548   1.500  11.839  0.0173  0.3515 -1.7330
 5170TIP3    H236926   3.695   1.536  11.851 -0.5970  2.5312 -0.6363
 5171TIP3   OH236927   6.042   2.146  15.465  0.1853 -0.5957  0.2811
 5171TIP3    H136928   6.011   2.227  15.507  1.1243 -1.4921  2.8150
 5171TIP3    H236929   6.010   2.076  15.522  0.5217 -1.9559 -1.1605
 5172TIP3   OH236930   3.360   0.365  16.101  0.0314 -0.3552  0.2515
 5172TIP3    H136931   3.361   0.343  16.194 -0.3524 -0.1258  0.3112
 5172TIP3    H236932   3.285   0.318  16.066  0.1534 -0.4109  0.0648
 5173TIP3   OH236933   4.769   2.816  12.787  0.1425  0.3637 -0.5659
 5173TIP3    H136934   4.824   2.749  12.746  1.0329  0.6132  0.1932
 5173TIP3    H236935   4.733   2.774  12.865  0.0610  0.5156 -0.5203
 5174TIP3   OH236936   4.714   6.524   1.763 -0.4162 -0.5491 -0.2903
 5174TIP3    H136937   4.799   6.563   1.744  0.3791 -1.9174  0.4001
 5174TIP3    H236938   4.711   6.518   1.858 -1.5202 -0.0480 -0.2749
 5175TIP3   OH236939   3.678   4.818   6.371  0.2047  0.2903 -0.6874
 5175TIP3    H136940   3.761   4.786   6.407 -0.8860 -1.2206  0.5053
 5175TIP3    H236941   3.649   4.884   6.434 -0.0957 -0.0314 -0.4910
 5176TIP3   OH236942   5.924   1.197  11.961 -0.3041 -0.3667  0.1608
 5176TIP3    H136943   5.881   1.129  12.013 -0.6870 -0.9226 -0.8871
 5176TIP3    H236944   6.014   1.166  11.950  0.3240  0.6497  2.0849
 5177TIP3   OH236945   2.463   3.301  15.449  0.4462 -0.4851 -0.0050
 5177TIP3    H136946   2.470   3.396  15.436  2.0075 -0.3912  1.3298
 5177TIP3    H236947   2.375   3.279  15.418  0.5484  1.1826 -1.5710
 5178TIP3   OH236948   3.747   2.884   4.117 -0.0429 -0.0237  0.1595
 5178TIP3    H136949   3.747   2.928   4.202  0.8678 -0.5063  0.4161
 5178TIP3    H236950   3.788   2.799   4.134  1.3580  0.3930 -1.0236
 5179TIP3   OH236951   5.632   5.228   1.360 -0.2383  0.3881  0.2716
 5179TIP3    H136952   5.698   5.224   1.429  1.5406 -1.9220 -1.4819
 5179TIP3    H236953   5.550   5.242   1.406  1.1187  0.4678  2.7351
 5180TIP3   OH236954   3.043   0.761  15.374 -0.2699 -0.2032  0.1539
 5180TIP3    H136955   3.025   0.811  15.295  1.6222 -0.7970 -0.6795
 5180TIP3    H236956   2.971   0.698  15.380 -2.2699  2.0421  0.7960
 5181TIP3   OH236957   2.417   0.128  16.381 -0.2901  0.0301 -0.1002
 5181TIP3    H136958   2.406   0.223  16.373  1.0445  0.3661  1.6868
 5181TIP3    H236959   2.329   0.093  16.371 -0.5733  1.3105 -2.4654
 5182TIP3   OH236960   4.700   1.263   4.144 -0.1885  0.8775  0.2696
 5182TIP3    H136961   4.617   1.216   4.152 -1.4136  2.8728 -0.3116
 5182TIP3    H236962   4.732   1.242   4.057 -0.7684  1.1731 -0.0150
 5183TIP3   OH236963   5.015   5.923  14.748 -0.2218 -0.4178  0.1683
 5183TIP3    H136964   5.086   5.948  14.690 -1.3044 -0.6826 -1.3150
 5183TIP3    H236965   4.962   5.862  14.696 -3.3790  2.2911 -0.0042
 5184TIP3   OH236966   0.774   3.187   0.906 -0.0976  0.9292  0.5833
 5184TIP3    H136967   0.705   3.138   0.952  0.5161  0.9092  1.4900
 5184TIP3    H236968   0.855   3.160   0.949  0.4782  0.9534 -0.4884
 5185TIP3   OH236969   2.780   0.302   2.007 -0.1184  0.2751  0.4821
 5185TIP3    H136970   2.750   0.292   1.917  1.9623 -1.0334 -0.1024
 5185TIP3    H236971   2.722   0.246   2.058  1.1045 -2.0299 -0.5924
 5186TIP3   OH236972   3.901   1.440  13.806 -0.0966  0.0995  0.3032
 5186TIP3    H136973   3.819   1.468  13.766  0.0686 -0.3890 -0.3783
 5186TIP3    H236974   3.886   1.451  13.900 -1.6130 -1.7209  0.2979
 5187TIP3   OH236975   3.311   4.129  14.820  0.0254 -0.2591 -0.7088
 5187TIP3    H136976   3.240   4.088  14.870 -0.2423 -0.8158 -1.5311
 5187TIP3    H236977   3.382   4.065  14.822  0.1736 -0.0916 -0.6530
 5188TIP3   OH236978   6.253   2.379   1.056 -0.4775 -0.1111  0.3979
 5188TIP3    H136979   6.227   2.322   1.128 -0.5973  0.1497  0.5617
 5188TIP3    H236980   6.193   2.356   0.985 -1.6536  1.0126  1.0105
 5189TIP3   OH236981   1.705   1.615   3.067  0.2639  0.0465 -0.0050
 5189TIP3    H136982   1.613   1.624   3.094  0.2728 -2.0513  0.8875
 5189TIP3    H236983   1.754   1.618   3.150  0.6244 -2.7500 -0.0663
 5190TIP3   OH236984   2.107   4.944   4.501 -0.5153  0.0239  0.1974
 5190TIP3    H136985   2.014   4.956   4.522 -0.1757  1.6009  0.8736
 5190TIP3    H236986   2.111   4.951   4.406 -1.2668 -1.4259  0.0357
 5191TIP3   OH236987   4.806   4.172   1.680 -0.4741  0.5292  0.2075
 5191TIP3    H136988   4.808   4.262   1.712 -1.2700  0.5318  0.2472
 5191TIP3    H236989   4.819   4.180   1.585  0.8595  0.5878  0.3938
 5192TIP3   OH236990   4.411   0.746   2.109  0.4041  0.2913  0.0589
 5192TIP3    H136991   4.361   0.813   2.156  2.1015  0.4579  1.6549
 5192TIP3    H236992   4.351   0.716   2.041 -1.4804  1.2820  1.2297
 5193TIP3   OH236993   1.832   4.598   0.833 -0.0077  0.0839 -0.1815
 5193TIP3    H136994   1.903   4.582   0.770 -0.2734  0.8746 -0.7016
 5193TIP3    H236995   1.824   4.517   0.883 -0.2691 -0.8156 -1.6542
 5194TIP3   OH236996   0.047   3.634  12.771  0.7592 -0.2575  0.3180
 5194TIP3    H136997   0.097   3.706  12.732  0.5165 -0.2322  0.0547
 5194TIP3    H236998  -0.039   3.639  12.730 -0.1439  0.9720  2.2831
 5195TIP3   OH236999   2.891   0.460  15.668 -0.2567 -0.6856 -0.4480
 5195TIP3    H137000   2.978   0.486  15.699 -1.2874  2.2078  0.1406
 5195TIP3    H237001   2.837   0.537  15.681 -2.9835 -2.5033 -0.6430
 5196TIP3   OH237002   0.362   6.430  17.196  0.0824 -0.4084 -0.4074
 5196TIP3    H137003   0.441   6.377  17.186  0.9585  0.9165 -0.6493
 5196TIP3    H237004   0.311   6.386  17.265  2.4165  0.3529  1.8775
 5197TIP3   OH237005   2.514   6.626   3.818  0.4706  0.4632  0.5911
 5197TIP3    H137006   2.517   6.680   3.897 -0.8963  1.4529 -0.0009
 5197TIP3    H237007   2.535   6.687   3.747 -1.3622  0.2976 -0.1188
 5198TIP3   OH237008   0.912   6.582  12.092  0.0121  0.2850 -0.1933
 5198TIP3    H137009   0.945   6.505  12.046 -1.6156  0.8316 -2.3525
 5198TIP3    H237010   0.983   6.608  12.151  0.6636 -2.7222  0.4312
 5199TIP3   OH237011   2.976   1.817  11.831  0.5008 -0.2117  0.1778
 5199TIP3    H137012   2.980   1.880  11.759  0.7749 -1.1303 -0.6101
 5199TIP3    H237013   2.940   1.738  11.793  1.3479 -0.9496  0.8661
 5200TIP3   OH237014   0.986   3.713   3.463  0.8054 -0.1836 -0.5974
 5200TIP3    H137015   1.073   3.707   3.502 -0.3858  0.8604  2.3553
 5200TIP3    H237016   0.982   3.801   3.426  1.3644 -0.6089 -1.6870
 5201TIP3   OH237017   2.159   6.686  13.907 -0.3067 -0.9597 -0.2245
 5201TIP3    H137018   2.081   6.680  13.962 -1.4531  0.4183 -1.6170
 5201TIP3    H237019   2.208   6.760  13.942 -0.0635 -1.2921  0.1315
 5202TIP3   OH237020   0.622   2.859   2.104  0.3366 -0.2056  0.0284
 5202TIP3    H137021   0.533   2.877   2.073  0.2807 -0.0152  0.2987
 5202TIP3    H237022   0.614   2.852   2.199  0.3699 -1.6428 -0.0621
 5203TIP3   OH237023   4.750   5.114   1.869 -0.1250 -0.4475  0.0573
 5203TIP3    H137024   4.662   5.103   1.835 -0.3961 -1.9285  1.1876
 5203TIP3    H237025   4.798   5.037   1.840  1.5960  1.6259 -2.8622
 5204TIP3   OH237026   2.659   5.629  14.880  0.1746  0.5895 -0.2626
 5204TIP3    H137027   2.577   5.651  14.924 -0.3570 -0.6974 -0.5864
 5204TIP3    H237028   2.635   5.624  14.787  0.7208  0.6853 -0.4065
 5205TIP3   OH237029   4.703   1.330   3.604  0.4173 -0.6699  0.1066
 5205TIP3    H137030   4.712   1.423   3.585 -0.6496 -0.7019 -0.5888
 5205TIP3    H237031   4.656   1.326   3.687 -0.0413 -0.5967 -0.1506
 5206TIP3   OH237032   3.248   0.048  11.607  0.1322  0.8132 -0.3086
 5206TIP3    H137033   3.240   0.005  11.692 -0.4362 -0.8372 -1.1801
 5206TIP3    H237034   3.332   0.016  11.572 -1.5460 -1.8367 -2.1435
 5207TIP3   OH237035   4.120   5.938   0.622 -0.0088  0.4604 -0.0791
 5207TIP3    H137036   4.053   5.959   0.556  0.2816  0.2600 -0.4392
 5207TIP3    H237037   4.113   6.008   0.686  1.0632  1.7611 -1.3625
 5208TIP3   OH237038   5.370   4.878  15.152 -0.1970 -0.4164 -0.2959
 5208TIP3    H137039   5.356   4.806  15.213  0.3330  0.4574  0.8751
 5208TIP3    H237040   5.412   4.838  15.076 -1.7394 -1.6781 -0.5112
 5209TIP3   OH237041   4.046   3.388  12.888  0.2950  0.1032  0.0785
 5209TIP3    H137042   3.974   3.324  12.886 -0.7455  1.0737  2.9088
 5209TIP3    H237043   4.114   3.346  12.941  0.6064  0.3632 -0.1128
 5210TIP3   OH237044   3.586   5.932  12.703  0.1741  0.7400 -0.1846
 5210TIP3    H137045   3.604   5.990  12.777  2.3289 -0.6713  0.4490
 5210TIP3    H237046   3.663   5.940  12.647  1.2315 -2.5118  0.6345
 5211TIP3   OH237047   3.281   0.078   0.395 -0.2374 -0.0701  0.2943
 5211TIP3    H137048   3.271   0.068   0.300 -0.1543 -1.6997  0.4469
 5211TIP3    H237049   3.267  -0.010   0.430  1.4864  0.1608  1.6383
 5212TIP3   OH237050   6.087   5.966   0.990 -0.0211  0.2105 -0.2353
 5212TIP3    H137051   6.076   6.050   0.944  1.7355 -1.0873 -3.2187
 5212TIP3    H237052   6.070   5.986   1.082  1.4962  4.1140 -0.6975
 5213TIP3   OH237053   5.664   0.430   5.381  0.1564 -0.4278 -0.2118
 5213TIP3    H137054   5.571   0.442   5.361  0.1347  0.8200  0.6145
 5213TIP3    H237055   5.689   0.352   5.331 -1.2316 -0.5384 -0.7575
 5214TIP3   OH237056   0.890   1.015  14.340  0.4127 -0.0295 -0.0174
 5214TIP3    H137057   0.980   1.027  14.369 -0.0993  0.7671  1.3032
 5214TIP3    H237058   0.844   1.093  14.371 -1.3999 -1.8705  2.2030
 5215TIP3   OH237059   3.211   2.716  13.787 -0.3816  0.0244  0.3420
 5215TIP3    H137060   3.257   2.689  13.707 -2.0914  0.3432 -0.7708
 5215TIP3    H237061   3.276   2.703  13.857  1.2767  0.1335 -1.1344
 5216TIP3   OH237062   5.784   4.017  15.566 -0.2111  0.0294  0.6754
 5216TIP3    H137063   5.749   4.100  15.534 -0.2669 -0.1220  0.3324
 5216TIP3    H237064   5.792   3.963  15.487 -0.0224 -0.2340  0.8737
 5217TIP3   OH237065   5.849   0.311  13.482  0.2046 -0.2247  0.2243
 5217TIP3    H137066   5.886   0.233  13.523  1.1611  0.0878 -0.0371
 5217TIP3    H237067   5.828   0.283  13.393  0.6988 -0.1295  0.0815
 5218TIP3   OH237068   5.048   2.091  15.310 -0.3878 -0.2435  0.8775
 5218TIP3    H137069   4.982   2.084  15.380 -1.2253 -1.0317  0.0126
 5218TIP3    H237070   5.082   2.002  15.300 -1.5532 -0.5065 -0.9512
 5219TIP3   OH237071   4.231   5.055   1.427 -0.4634  0.0975 -0.7259
 5219TIP3    H137072   4.256   5.128   1.371  0.2770  1.8087  1.7194
 5219TIP3    H237073   4.313   5.008   1.443 -0.1933  1.0734  0.8825
 5220TIP3   OH237074   4.886   2.753   4.953 -0.2360 -0.4704 -0.1475
 5220TIP3    H137075   4.824   2.824   4.972  0.2833 -0.1586  0.4095
 5220TIP3    H237076   4.868   2.687   5.020  1.5130  0.5750  1.3915
 5221TIP3   OH237077   0.918   4.647   2.634  0.5231 -0.2310 -0.0488
 5221TIP3    H137078   0.878   4.710   2.694  0.5623 -2.2613  2.2283
 5221TIP3    H237079   0.902   4.682   2.547  1.5113  3.4776  1.1653
 5222TIP3   OH237080   2.352   0.310   0.387 -0.3514 -0.3156 -0.2369
 5222TIP3    H137081   2.392   0.391   0.357  1.6000 -0.8498  0.8169
 5222TIP3    H237082   2.395   0.291   0.471 -2.4302 -1.2195  0.6614
 5223TIP3   OH237083   1.457   1.566   1.412  0.2066  0.5126 -0.0081
 5223TIP3    H137084   1.522   1.512   1.365  1.1209  1.8090 -0.2538
 5223TIP3    H237085   1.385   1.576   1.349  0.5142  0.4908 -0.3671
 5224TIP3   OH237086   2.318   1.696  16.321  0.2449 -0.3963  0.0042
 5224TIP3    H137087   2.354   1.609  16.304 -0.2871 -0.2897 -1.7283
 5224TIP3    H237088   2.284   1.725  16.237  0.3547  1.4778  0.5868
 5225TIP3   OH237089   1.057   0.775  16.072 -0.0560 -0.5759  0.5900
 5225TIP3    H137090   1.125   0.817  16.124 -0.6087  1.2706 -0.1595
 5225TIP3    H237091   0.976   0.816  16.100 -0.8249 -2.4216  1.1312
 5226TIP3   OH237092   1.699   4.331  12.749  1.0118  0.5128 -0.6900
 5226TIP3    H137093   1.640   4.372  12.813  1.8176  1.1471 -0.3466
 5226TIP3    H237094   1.657   4.247  12.729  1.7951 -0.6884  2.3162
 5227TIP3   OH237095   5.156   3.078  11.238 -0.3521  0.2635 -0.0634
 5227TIP3    H137096   5.214   3.124  11.177  1.8056 -1.3710  0.6923
 5227TIP3    H237097   5.137   2.995  11.194  0.3712 -0.4859  1.0370
 5228TIP3   OH237098   4.236   5.877   0.928  0.3714  0.1491 -0.2764
 5228TIP3    H137099   4.251   5.964   0.965  2.5470 -0.7844  1.1332
 5228TIP3    H237100   4.314   5.860   0.876  0.8417 -1.7636  1.0409
 5229TIP3   OH237101   6.423   2.546   5.906 -0.3323  0.2409 -0.2400
 5229TIP3    H137102   6.388   2.577   5.989  0.7106 -1.7072  0.9715
 5229TIP3    H237103   6.422   2.623   5.849 -0.1105  1.8693  1.8850
 5230TIP3   OH237104   1.230   3.297  16.196 -0.4701  0.3990  0.2806
 5230TIP3    H137105   1.188   3.269  16.115  1.0307 -1.7594  0.2096
 5230TIP3    H237106   1.280   3.375  16.172  0.6269 -0.7006 -1.0808
 5231TIP3   OH237107   0.701   1.718   5.188 -0.3461 -0.4030 -0.5142
 5231TIP3    H137108   0.762   1.674   5.130 -1.8404 -2.0224 -0.8824
 5231TIP3    H237109   0.637   1.759   5.130 -0.7495 -0.3914 -0.0690
 5232TIP3   OH237110   6.709   1.690   4.582  0.7207 -0.0796  0.2216
 5232TIP3    H137111   6.699   1.615   4.524  1.2871 -0.4112  0.5458
 5232TIP3    H237112   6.647   1.674   4.653 -0.0669  0.3918 -0.3514
 5233TIP3   OH237113   4.633   4.423   1.135 -0.1943  0.7948 -0.2843
 5233TIP3    H137114   4.628   4.372   1.054 -1.4607  0.1730  0.1733
 5233TIP3    H237115   4.679   4.503   1.110  1.2320 -0.2633 -1.1652
 5234TIP3   OH237116   2.019   2.972  14.902 -0.1353  0.2146 -0.3164
 5234TIP3    H137117   2.036   2.890  14.855 -0.3555  1.2811 -2.2889
 5234TIP3    H237118   2.072   3.037  14.856 -0.7655  1.3798  0.5915
 5235TIP3   OH237119   5.617   4.532   0.799 -0.2520 -0.1318  0.1818
 5235TIP3    H137120   5.584   4.554   0.712  0.5286  0.3491  0.0002
 5235TIP3    H237121   5.698   4.484   0.782 -0.7117 -1.0695  0.6252
 5236TIP3   OH237122   4.572   2.213  12.040 -0.2616 -0.3816  0.2626
 5236TIP3    H137123   4.503   2.275  12.014  0.6262  0.4090 -0.2816
 5236TIP3    H237124   4.636   2.267  12.087 -1.2244 -1.5751  3.0426
 5237TIP3   OH237125   0.168   4.169  13.378 -0.4945 -1.0800 -0.3551
 5237TIP3    H137126   0.209   4.246  13.340 -0.6634 -0.7147  0.1986
 5237TIP3    H237127   0.181   4.100  13.313  0.8563 -0.9324 -0.2539
 5238TIP3   OH237128   5.159   3.554   0.972 -1.0124 -0.4690 -0.9994
 5238TIP3    H137129   5.219   3.517   0.908  1.0981  0.9767  0.1092
 5238TIP3    H237130   5.130   3.479   1.025 -1.5166 -1.4124 -2.5845
 5239TIP3   OH237131   1.276   5.798   2.314  0.1493 -0.5201  0.0527
 5239TIP3    H137132   1.206   5.748   2.271 -0.4203  1.0796 -0.9273
 5239TIP3    H237133   1.344   5.806   2.247  0.0192  0.4612  0.0381
 5240TIP3   OH237134   4.464   5.787   0.486  0.1874 -0.8459 -0.8884
 5240TIP3    H137135   4.414   5.729   0.543 -1.3577  1.3061 -0.0001
 5240TIP3    H237136   4.401   5.818   0.422  0.8710  0.2489 -1.0522
 5241TIP3   OH237137   0.192   5.126  12.437  0.4595 -0.0296  0.2107
 5241TIP3    H137138   0.266   5.069  12.417 -0.5705 -1.4879  0.4647
 5241TIP3    H237139   0.125   5.067  12.471 -0.5378  1.3809  0.7414
 5242TIP3   OH237140   3.511   6.154   4.613 -0.6170  0.3936 -0.0950
 5242TIP3    H137141   3.604   6.149   4.588 -0.1042 -1.0226  1.9582
 5242TIP3    H237142   3.491   6.066   4.645 -2.8240  0.5584 -0.9890
 5243TIP3   OH237143   6.072   0.867   2.701 -0.0180  0.0706  0.0741
 5243TIP3    H137144   5.985   0.875   2.662 -0.3357 -1.0063  0.5219
 5243TIP3    H237145   6.126   0.828   2.632  0.0095  0.3631 -0.0701
 5244TIP3   OH237146   1.669   3.525   1.523 -0.4676  0.2681  0.8688
 5244TIP3    H137147   1.632   3.596   1.470  0.7653  0.0388 -0.3251
 5244TIP3    H237148   1.764   3.537   1.517 -0.0480 -3.4209 -2.2110
 5245TIP3   OH237149   4.995   1.895  11.217 -0.3343  0.0367  0.3807
 5245TIP3    H137150   4.981   1.941  11.300  0.8676  2.4596 -0.7307
 5245TIP3    H237151   4.940   1.940  11.154  1.5143  0.5494 -0.9084
 5246TIP3   OH237152   6.476   3.519   5.624 -0.2762  0.5725  0.1728
 5246TIP3    H137153   6.534   3.506   5.549 -1.0452  1.4624 -0.5899
 5246TIP3    H237154   6.529   3.567   5.688  0.3578 -0.1324  0.1876
 5247TIP3   OH237155   6.541   4.458  12.854  0.6309 -0.2944  0.0013
 5247TIP3    H137156   6.485   4.533  12.871  0.8224 -0.1301 -0.0822
 5247TIP3    H237157   6.505   4.388  12.908 -0.5985 -0.6269 -1.2194
 5248TIP3   OH237158   0.312   4.019  11.326 -0.1239  0.6357  0.4936
 5248TIP3    H137159   0.320   4.114  11.314 -2.5587  0.6021 -1.8171
 5248TIP3    H237160   0.386   3.983  11.276  0.0360  1.2814  0.2553
 5249TIP3   OH237161   6.597   0.005  13.022  0.5358 -0.3419  0.1339
 5249TIP3    H137162   6.593   0.038  13.111 -1.1211  2.4171 -0.8902
 5249TIP3    H237163   6.523  -0.056  13.016  1.0085 -0.9886  0.8026
 5250TIP3   OH237164   3.709   1.275   0.004 -0.6150 -0.0098  0.4870
 5250TIP3    H137165   3.785   1.232  -0.035 -0.2573 -0.0539  1.2182
 5250TIP3    H237166   3.715   1.365  -0.027  0.9499  0.5270  2.2403
 5251TIP3   OH237167   4.733   0.958   3.014  0.4147  0.0080  0.2564
 5251TIP3    H137168   4.720   0.910   3.096  0.5149  0.0614  0.3023
 5251TIP3    H237169   4.814   0.923   2.978  0.0120 -0.5147 -0.1640
 5252TIP3   OH237170   4.034   1.843   3.150 -0.1754  0.1716  0.1174
 5252TIP3    H137171   3.996   1.826   3.064 -1.0297 -1.7935  0.8379
 5252TIP3    H237172   4.104   1.778   3.159 -0.4199  0.0261  1.0984
 5253TIP3   OH237173   2.604   0.136  14.509  0.6425  0.0821  0.0884
 5253TIP3    H137174   2.667   0.201  14.477 -0.6171  0.5320 -1.4998
 5253TIP3    H237175   2.657   0.077  14.562  1.7454  2.7154  2.0711
 5254TIP3   OH237176   4.980   6.559  12.542  0.1396 -0.1247 -0.0246
 5254TIP3    H137177   5.071   6.555  12.572  0.4995  0.5955 -0.9774
 5254TIP3    H237178   4.983   6.616  12.465 -1.1670  0.1210  0.0999
 5255TIP3   OH237179   4.442   4.697  12.249  0.2914 -0.0401  0.6874
 5255TIP3    H137180   4.390   4.728  12.323 -3.8766 -2.7125 -0.9558
 5255TIP3    H237181   4.410   4.748  12.174  1.1365 -0.6464 -0.0967
 5256TIP3   OH237182   5.741   4.866  15.997 -0.4972 -0.3586  0.2208
 5256TIP3    H137183   5.682   4.932  16.034  0.5215 -0.0070  1.2485
 5256TIP3    H237184   5.788   4.912  15.928  0.2333 -0.0012  0.9572
 5257TIP3   OH237185   5.495   6.192   1.444 -0.1008 -0.3903  0.7855
 5257TIP3    H137186   5.433   6.134   1.488  1.4270 -0.6805  2.5885
 5257TIP3    H237187   5.548   6.229   1.514  0.0439  1.9221 -0.4899
 5258TIP3   OH237188   6.351   6.715  11.593 -0.8593  0.0186 -0.7643
 5258TIP3    H137189   6.370   6.663  11.516 -1.0833 -1.9960  0.5115
 5258TIP3    H237190   6.284   6.665  11.640 -0.1680  0.8048  1.1221
 5259TIP3   OH237191   4.335   4.846   5.053 -0.7558 -0.7602  0.0957
 5259TIP3    H137192   4.245   4.822   5.028 -1.4133  0.9439  0.7321
 5259TIP3    H237193   4.324   4.914   5.120  1.0151  0.2168 -0.5680
 5260TIP3   OH237194   0.586   3.380  16.125 -0.1811  0.4441  0.0747
 5260TIP3    H137195   0.574   3.419  16.039 -1.7367  2.4855  1.1703
 5260TIP3    H237196   0.543   3.295  16.119  0.6763  0.1008 -1.4649
 5261TIP3   OH237197   1.805   2.511   5.206  0.4296  0.5281  0.5349
 5261TIP3    H137198   1.900   2.512   5.196  0.5294 -1.5633  0.9589
 5261TIP3    H237199   1.791   2.478   5.295 -0.6857  1.8430  0.8671
 5262TIP3   OH237200   1.898   5.108  16.429  0.1094  0.0113 -0.4121
 5262TIP3    H137201   1.912   5.018  16.399  0.5866  0.6045 -2.0232
 5262TIP3    H237202   1.955   5.117  16.505 -0.5757 -1.3039  0.2907
 5263TIP3   OH237203   3.732   4.535  14.972 -0.6907  0.0864 -0.5173
 5263TIP3    H137204   3.719   4.448  14.935 -0.6835 -0.5065  0.8364
 5263TIP3    H237205   3.700   4.528  15.062 -0.7121  1.4933 -0.4047
 5264TIP3   OH237206   1.610   5.624   3.732 -0.1548  0.2552  0.3117
 5264TIP3    H137207   1.705   5.609   3.734 -0.5677 -2.6616 -0.3231
 5264TIP3    H237208   1.595   5.674   3.652  0.7513  0.0579  0.0196
 5265TIP3   OH237209   1.007   5.059  11.851 -0.0637  0.7327  0.5747
 5265TIP3    H137210   1.076   5.017  11.799 -0.3111  0.1997  0.6700
 5265TIP3    H237211   0.949   5.098  11.785 -0.6316 -0.3425  0.4168
 5266TIP3   OH237212   1.564   1.978  15.897  0.2046 -0.3431  0.1798
 5266TIP3    H137213   1.508   1.902  15.880  0.5832 -0.5685 -0.0877
 5266TIP3    H237214   1.597   1.965  15.985 -0.3125 -0.1133  0.4100
 5267TIP3   OH237215   0.544   0.234  12.796 -0.3071  0.0193 -0.2614
 5267TIP3    H137216   0.461   0.228  12.748 -0.9834  1.9207  0.6214
 5267TIP3    H237217   0.518   0.231  12.888  0.6697  0.0092  0.0127
 5268TIP3   OH237218   6.681   3.359   0.454  0.2424  0.3635 -0.1398
 5268TIP3    H137219   6.732   3.354   0.535  0.1140  2.0871  0.0602
 5268TIP3    H237220   6.671   3.453   0.437 -2.7475  0.0782 -0.2410
 5269TIP3   OH237221   6.714   3.008  12.295 -0.1734 -0.7628 -0.0147
 5269TIP3    H137222   6.628   3.050  12.297  0.1326 -0.1093 -0.5067
 5269TIP3    H237223   6.726   2.973  12.383 -0.9780 -0.9285  0.0308
 5270TIP3   OH237224   4.397   1.785  12.346  0.0489  0.2348  0.7609
 5270TIP3    H137225   4.452   1.852  12.305  1.4649 -0.8277  0.8836
 5270TIP3    H237226   4.308   1.820  12.339  0.0908 -0.3097 -4.0426
 5271TIP3   OH237227   5.073   2.177   3.223  0.0914  0.1806  0.2101
 5271TIP3    H137228   5.078   2.122   3.301 -1.6340 -0.4812 -0.1159
 5271TIP3    H237229   5.161   2.171   3.184  1.0568  0.7411  2.2105
 5272TIP3   OH237230   3.558   0.718   4.525  0.3751  0.4852  0.5843
 5272TIP3    H137231   3.600   0.664   4.593  1.7519 -0.8090 -1.2380
 5272TIP3    H237232   3.625   0.780   4.499  0.2954  0.1241 -0.5010
 5273TIP3   OH237233   3.620   2.195  13.087 -0.0202 -0.6520  0.1836
 5273TIP3    H137234   3.630   2.259  13.016  0.4019  0.5954  1.3345
 5273TIP3    H237235   3.671   2.119  13.058  1.1743  0.3088 -0.3088
 5274TIP3   OH237236   3.203   4.898   3.214  0.1597 -0.0445 -0.1057
 5274TIP3    H137237   3.187   4.912   3.307 -2.0040  0.1547 -0.4965
 5274TIP3    H237238   3.297   4.913   3.204 -0.0224  2.5349  1.5928
 5275TIP3   OH237239   2.878   0.105   0.319 -0.1296 -0.2977  0.5794
 5275TIP3    H137240   2.926   0.047   0.261 -4.0387 -0.9670 -2.1985
 5275TIP3    H237241   2.842   0.047   0.387 -0.6584 -0.4866  0.1384
 5276TIP3   OH237242   2.282   2.139   3.059  0.3835 -0.2795  0.4064
 5276TIP3    H137243   2.288   2.154   3.153  0.8847 -2.7932  0.8284
 5276TIP3    H237244   2.373   2.142   3.029  0.2458  0.2758  0.0309
 5277TIP3   OH237245   2.642   2.392   1.484 -0.4161 -0.0899  0.1930
 5277TIP3    H137246   2.566   2.358   1.530 -0.9470 -3.0044 -2.6328
 5277TIP3    H237247   2.608   2.466   1.433 -1.2549 -0.9221 -0.4826
 5278TIP3   OH237248   4.952   5.888  11.321 -0.6611  0.0842  0.4293
 5278TIP3    H137249   4.937   5.816  11.260 -2.7815 -0.0366  1.0512
 5278TIP3    H237250   5.016   5.854  11.384  0.1898 -0.3978 -0.6909
 5279TIP3   OH237251   1.090   1.222   5.942 -0.3090  0.6322 -0.2550
 5279TIP3    H137252   1.078   1.312   5.912  1.0678  1.4776  1.6872
 5279TIP3    H237253   1.090   1.227   6.037  1.5787 -1.1468 -0.1058
 5280TIP3   OH237254   6.332   0.215   5.919 -0.0577  0.2991  0.1274
 5280TIP3    H137255   6.368   0.277   5.982 -2.5807  1.1787  0.7447
 5280TIP3    H237256   6.316   0.267   5.840  0.0985 -0.1048 -0.1732
 5281TIP3   OH237257   4.037   3.540  13.890  0.4278  0.7368 -0.5245
 5281TIP3    H137258   4.022   3.549  13.984  1.6151  0.6686 -0.3301
 5281TIP3    H237259   4.063   3.448  13.879  3.2854  1.4995 -0.5006
 5282TIP3   OH237260   1.657   5.560   0.945 -0.1917  0.0968  0.2872
 5282TIP3    H137261   1.722   5.573   1.013  0.3638 -1.3824  0.0586
 5282TIP3    H237262   1.573   5.556   0.992 -0.0642  1.4218  0.6347
 5283TIP3   OH237263   3.438   5.756  14.026  0.1217  0.3732 -0.1110
 5283TIP3    H137264   3.513   5.698  14.037 -0.6183 -0.6165 -0.2707
 5283TIP3    H237265   3.453   5.801  13.943  0.5387  0.1810 -0.1360
 5284TIP3   OH237266   6.378   5.453  13.178 -0.0481  0.0770  0.1055
 5284TIP3    H137267   6.289   5.467  13.210  0.0259  0.9464 -0.0369
 5284TIP3    H237268   6.433   5.502  13.239  0.3808 -0.8305  0.4559
 5285TIP3   OH237269   5.477   4.428  13.203 -0.1896  0.1500 -0.0134
 5285TIP3    H137270   5.528   4.430  13.122 -2.3738 -1.2659 -1.4878
 5285TIP3    H237271   5.442   4.517  13.211 -0.9010 -0.0033 -1.2721
 5286TIP3   OH237272   2.837   1.667  15.312 -0.0876 -0.6017  0.4623
 5286TIP3    H137273   2.807   1.657  15.402  0.8783 -2.4466  0.5963
 5286TIP3    H237274   2.783   1.606  15.262 -0.5223  0.3117 -0.1914
 5287TIP3   OH237275   2.422   6.530  13.581 -0.2725 -0.2995  0.4232
 5287TIP3    H137276   2.440   6.462  13.645  1.6215 -0.3274 -0.1107
 5287TIP3    H237277   2.462   6.499  13.500 -0.5655  0.8235 -0.1652
 5288TIP3   OH237278   6.251   4.538  16.503 -0.4459 -0.3910  0.4500
 5288TIP3    H137279   6.189   4.590  16.553 -0.5858  0.0485 -0.1728
 5288TIP3    H237280   6.336   4.558  16.542 -0.4894  0.3597  0.1717
 5289TIP3   OH237281   3.002   4.606  12.248  0.0808  0.7598  0.0731
 5289TIP3    H137282   2.982   4.686  12.296  2.1917  0.5126  1.4249
 5289TIP3    H237283   3.097   4.610  12.235 -0.1583 -0.2511 -2.1690
 5290TIP3   OH237284   1.677   2.738   4.828  0.3145  0.6851 -0.0992
 5290TIP3    H137285   1.766   2.765   4.807  0.7412 -0.7279 -0.1948
 5290TIP3    H237286   1.689   2.661   4.885 -0.8402 -0.5957 -1.5628
 5291TIP3   OH237287   2.328   5.021  13.352  0.2957 -0.2676 -0.2727
 5291TIP3    H137288   2.401   4.981  13.303 -0.4149 -0.3170 -1.3106
 5291TIP3    H237289   2.272   5.059  13.284  1.4967  3.4655  0.7249
 5292TIP3   OH237290   2.231   5.969   0.135 -0.4032  0.7632  0.0404
 5292TIP3    H137291   2.261   5.888   0.176 -0.4834  0.9186  0.4057
 5292TIP3    H237292   2.162   5.942   0.075  0.2345  0.4410 -0.5604
 5293TIP3   OH237293   5.380   1.654  11.647 -0.3619  0.0703 -0.1915
 5293TIP3    H137294   5.405   1.569  11.682 -0.1702  0.4613  0.6252
 5293TIP3    H237295   5.461   1.704  11.643 -0.3511 -0.0181 -1.3487
 5294TIP3   OH237296   0.963   3.974   2.481  0.3909 -0.1578  0.2611
 5294TIP3    H137297   0.991   3.982   2.572 -1.3027  0.0834  0.7865
 5294TIP3    H237298   1.008   4.045   2.436 -0.9996  1.5409  1.4883
 5295TIP3   OH237299   3.614   5.656   1.578  0.7846 -0.1613  0.0946
 5295TIP3    H137300   3.649   5.628   1.493  1.2744  2.2232 -0.5195
 5295TIP3    H237301   3.556   5.584   1.605 -1.3276  0.0988 -3.4238
 5296TIP3   OH237302   1.180   6.356  12.384  0.1139  0.8843 -0.5222
 5296TIP3    H137303   1.126   6.319  12.455  0.0645  2.3597  0.2520
 5296TIP3    H237304   1.248   6.291  12.369 -1.9622 -1.1036 -1.6286
 5297TIP3   OH237305   0.054   3.569  13.631  0.0250  0.1610  0.3684
 5297TIP3    H137306   0.044   3.640  13.567  0.1788 -1.6954 -1.7867
 5297TIP3    H237307   0.149   3.556  13.637 -0.0422 -0.5465 -0.0414
 5298TIP3   OH237308   6.663   4.669  14.785 -0.1404  0.1416  0.0527
 5298TIP3    H137309   6.723   4.719  14.729 -0.7216  0.6156 -0.1485
 5298TIP3    H237310   6.691   4.689  14.874  1.2499 -1.1749 -0.0565
 5299TIP3   OH237311   5.155   4.282  13.667 -1.2640 -0.8826  0.7212
 5299TIP3    H137312   5.149   4.322  13.753 -1.3036 -0.3673  0.4835
 5299TIP3    H237313   5.248   4.290  13.643 -1.8213  2.0571 -0.7162
 5300TIP3   OH237314   3.694   3.255   6.108 -0.1275 -0.1055  0.0371
 5300TIP3    H137315   3.779   3.278   6.143  0.3687 -1.0681 -0.5274
 5300TIP3    H237316   3.648   3.214   6.181 -0.2596  0.7570  0.4511
 5301TIP3   OH237317   6.492   0.291   0.835 -1.3568 -0.7648  0.1404
 5301TIP3    H137318   6.454   0.248   0.912 -2.4203  1.0091  0.6246
 5301TIP3    H237319   6.581   0.314   0.863 -1.7078 -0.2027  0.8182
 5302TIP3   OH237320   6.526   3.739  16.169 -0.1745  0.0443  0.2570
 5302TIP3    H137321   6.531   3.769  16.078 -1.8964  1.8775  0.7442
 5302TIP3    H237322   6.607   3.690  16.182  0.6581  0.7782 -1.8930
 5303TIP3   OH237323   1.394   1.872  11.282  0.4281  0.2106 -0.3718
 5303TIP3    H137324   1.486   1.893  11.297  0.1966  0.5063  0.6452
 5303TIP3    H237325   1.392   1.776  11.276  0.9230  0.2459 -1.2785
 5304TIP3   OH237326   0.859   6.457  14.923 -0.0115 -0.0024  0.2669
 5304TIP3    H137327   0.929   6.466  14.859 -1.1357 -0.6118 -1.0845
 5304TIP3    H237328   0.898   6.407  14.995  0.7867 -0.8590 -0.7331
 5305TIP3   OH237329   5.746   3.982  12.672  0.3884 -0.1775  0.1030
 5305TIP3    H137330   5.788   3.902  12.640 -0.4737 -0.8457  0.6273
 5305TIP3    H237331   5.802   4.013  12.743  1.0232 -0.0033 -0.4679
 5306TIP3   OH237332   1.801   3.241   0.955  0.2835 -0.2520 -0.0795
 5306TIP3    H137333   1.891   3.234   0.987  0.2364  0.3196  0.1756
 5306TIP3    H237334   1.752   3.279   1.028 -0.3622 -1.4564  0.1241
 5307TIP3   OH237335   1.610   0.556  17.005 -0.7360  0.0337  0.1582
 5307TIP3    H137336   1.578   0.584  17.091  1.1352 -0.3108  1.0090
 5307TIP3    H237337   1.668   0.627  16.976 -0.5722 -0.3014 -0.3433
 5308TIP3   OH237338   1.905   3.771  13.392  0.2332  0.7870  0.3120
 5308TIP3    H137339   1.935   3.778  13.301 -0.9868 -1.8520 -0.3326
 5308TIP3    H237340   1.922   3.680  13.416  0.0312  1.3116  2.5812
 5309TIP3   OH237341   4.404   0.231  12.963  0.0691  0.6547 -0.3838
 5309TIP3    H137342   4.312   0.205  12.970  0.3974 -0.7929 -1.1738
 5309TIP3    H237343   4.452   0.148  12.958  1.5043  1.3641  0.9404
 5310TIP3   OH237344   2.777   4.468   2.469  0.4308 -0.0822  0.7829
 5310TIP3    H137345   2.801   4.383   2.504 -2.3938 -0.4158  2.0189
 5310TIP3    H237346   2.696   4.452   2.420 -0.7399  2.0778  1.9579
 5311TIP3   OH237347   3.660   1.824  15.486  0.3371  0.6802  0.2956
 5311TIP3    H137348   3.674   1.828  15.392  1.2395 -0.7668  0.3624
 5311TIP3    H237349   3.591   1.759  15.498  0.0039  1.0905  0.6082
 5312TIP3   OH237350   6.375   3.919  15.382  0.9051 -0.3904  1.0008
 5312TIP3    H137351   6.351   3.851  15.319 -0.6141  1.3919 -0.4083
 5312TIP3    H237352   6.329   3.895  15.463 -0.7022 -0.3603  0.1218
 5313TIP3   OH237353   3.918   2.613   5.207  0.1395  0.6799 -0.0934
 5313TIP3    H137354   4.012   2.631   5.204  0.2857 -0.0356 -0.0019
 5313TIP3    H237355   3.888   2.629   5.118  0.5128  0.0907 -0.3322
 5314TIP3   OH237356   4.121   4.711   2.438  0.5457  0.3222  0.1644
 5314TIP3    H137357   4.133   4.621   2.468  2.3765  0.0717 -1.2119
 5314TIP3    H237358   4.170   4.764   2.501  1.9820  0.0591 -0.7005
 5315TIP3   OH237359   0.375   6.347   3.980 -0.3161  0.0179 -0.0809
 5315TIP3    H137360   0.395   6.437   4.009 -1.0125  0.3848 -0.7185
 5315TIP3    H237361   0.296   6.323   4.029  0.2360 -0.4990  0.5718
 5316TIP3   OH237362   3.000   1.727  14.197 -0.5044  0.2077 -0.4401
 5316TIP3    H137363   3.094   1.735  14.214 -0.6681  3.7725 -0.9653
 5316TIP3    H237364   2.958   1.765  14.275 -1.5423 -1.2331 -0.2672
 5317TIP3   OH237365   0.812   3.528  16.106 -0.1827 -0.0834 -0.5877
 5317TIP3    H137366   0.906   3.511  16.104 -0.0816  0.4511 -0.4363
 5317TIP3    H237367   0.777   3.460  16.163  0.3493  0.7589  0.7725
 5318TIP3   OH237368   6.341   4.193   2.080  0.1612 -0.2448  0.6085
 5318TIP3    H137369   6.399   4.227   2.148  1.5180  0.0888 -0.6773
 5318TIP3    H237370   6.365   4.243   2.002 -1.6699 -0.3233 -0.0139
 5319TIP3   OH237371   4.756   2.929   4.190 -0.3347 -0.6386 -0.3661
 5319TIP3    H137372   4.733   2.990   4.260 -2.4577  0.3878 -1.8953
 5319TIP3    H237373   4.848   2.909   4.205 -0.7207 -0.4017  2.6753
 5320TIP3   OH237374   5.386   2.785  13.342 -0.8125 -0.0550  0.1726
 5320TIP3    H137375   5.389   2.712  13.403  1.1841 -0.2188 -0.0954
 5320TIP3    H237376   5.448   2.849  13.376  0.9940 -0.5152 -2.1097
 5321TIP3   OH237377   6.154   5.050   3.967  0.3536 -0.2743  0.5859
 5321TIP3    H137378   6.124   5.024   4.055  1.1443  0.9023  1.2158
 5321TIP3    H237379   6.246   5.074   3.979  0.6095 -0.5985 -0.6784
 5322TIP3   OH237380   0.973   5.981  14.403  0.3850 -0.3961  0.0405
 5322TIP3    H137381   1.028   6.048  14.443  0.0501 -0.0184 -0.1286
 5322TIP3    H237382   0.944   6.020  14.321 -0.5595 -0.3970  0.3747
 5323TIP3   OH237383   1.441   5.844  13.194  0.0674 -0.2390  0.5138
 5323TIP3    H137384   1.412   5.780  13.129 -0.3919  0.5194 -0.0333
 5323TIP3    H237385   1.491   5.793  13.258  0.4379 -1.0063 -0.3804
 5324TIP3   OH237386   6.196   2.842   1.821  0.5562 -0.0274  0.4146
 5324TIP3    H137387   6.228   2.782   1.888  1.4047  0.1907  0.2016
 5324TIP3    H237388   6.218   2.929   1.852 -0.0396  0.1405  0.3797
 5325TIP3   OH237389   6.069   3.695   1.490  0.6132 -0.6882  0.4816
 5325TIP3    H137390   6.047   3.610   1.452 -2.8547  1.4716 -2.5910
 5325TIP3    H237391   5.992   3.719   1.541  1.4983  0.7484  1.1787
 5326TIP3   OH237392   5.487   6.466  15.769  0.4978 -0.4212 -0.3919
 5326TIP3    H137393   5.422   6.519  15.816  1.8674  0.9631  0.0245
 5326TIP3    H237394   5.554   6.448  15.835  1.0985 -0.8174 -1.1098
 5327TIP3   OH237395   0.168   3.595  15.830  0.2624 -0.7154 -0.5645
 5327TIP3    H137396   0.221   3.535  15.883  0.5676  0.1901  0.1891
 5327TIP3    H237397   0.142   3.664  15.892  0.5976  0.3486 -1.6039
 5328TIP3   OH237398   5.192   0.865   5.908 -0.1230 -0.0777  0.4254
 5328TIP3    H137399   5.249   0.927   5.862 -0.5454  0.2246  0.3075
 5328TIP3    H237400   5.205   0.884   6.001  3.0561 -2.7094  0.6092
 5329TIP3   OH237401   1.975   5.058   5.543  0.1428  0.1572  0.1316
 5329TIP3    H137402   1.904   5.098   5.493  1.1336  0.3419 -1.1306
 5329TIP3    H237403   2.030   5.131   5.569  0.1523 -0.0435  0.6801
 5330TIP3   OH237404   3.008   3.026   5.723 -0.1796  0.1289  0.0715
 5330TIP3    H137405   2.941   2.991   5.665  0.0227 -1.1738  0.6237
 5330TIP3    H237406   2.964   3.036   5.808  0.5703 -1.7035  0.7076
 5331TIP3   OH237407   1.590   1.463  13.809  0.3966  0.1560  0.3319
 5331TIP3    H137408   1.682   1.441  13.825 -0.0455 -0.8545  1.5831
 5331TIP3    H237409   1.542   1.410  13.872 -1.0980  0.1028 -0.8333
 5332TIP3   OH237410   6.614   3.578   4.976  0.1397 -0.1222 -1.2263
 5332TIP3    H137411   6.575   3.532   5.050 -2.0209  1.4144 -1.3620
 5332TIP3    H237412   6.671   3.514   4.934 -1.4459 -2.1145 -0.3957
 5333TIP3   OH237413   3.485   0.819  14.745  0.0331 -0.2628 -0.0903
 5333TIP3    H137414   3.401   0.815  14.790 -0.1266  0.2827 -0.3379
 5333TIP3    H237415   3.507   0.727  14.727  0.1546 -0.4914  1.1930
 5334TIP3   OH237416   2.512   6.542  16.385  0.1308 -0.0796 -0.2876
 5334TIP3    H137417   2.487   6.591  16.307  0.9772  1.0573  0.1393
 5334TIP3    H237418   2.512   6.450  16.356 -0.4158  0.2553 -1.3833
 5335TIP3   OH237419   5.964   3.965   1.021  0.0283 -0.1603  0.4609
 5335TIP3    H137420   6.056   3.940   1.018 -0.1188 -0.6271 -4.6279
 5335TIP3    H237421   5.920   3.890   1.062  1.5102 -1.4947 -0.3468
 5336TIP3   OH237422   1.083   3.145  15.574  0.2014  0.1720  0.0688
 5336TIP3    H137423   0.989   3.156  15.588 -0.5464 -1.7481 -2.8720
 5336TIP3    H237424   1.108   3.220  15.520  0.0373 -0.0179 -0.2780
 5337TIP3   OH237425   4.028   4.963   2.701 -0.4630  0.1712 -0.4958
 5337TIP3    H137426   4.055   4.882   2.744 -0.8679  0.0067 -0.5437
 5337TIP3    H237427   3.939   4.979   2.735 -0.9503 -0.1804 -1.5955
 5338TIP3   OH237428   0.825   3.235   4.790 -0.0770  0.3632  0.1824
 5338TIP3    H137429   0.911   3.245   4.831 -0.9183  0.1890  2.0276
 5338TIP3    H237430   0.794   3.150   4.821 -1.8100  1.3559  1.2048
 5339TIP3   OH237431   1.736   6.671  12.383 -0.1422  0.1035 -1.0712
 5339TIP3    H137432   1.743   6.576  12.384 -0.3128  0.0983  0.5356
 5339TIP3    H237433   1.682   6.692  12.459  1.2374  1.5695 -0.4722
 5340TIP3   OH237434   0.767   0.747   3.336 -0.1012  0.1648 -0.3357
 5340TIP3    H137435   0.685   0.700   3.322  0.2108 -0.3152 -0.5655
 5340TIP3    H237436   0.829   0.705   3.277  0.2714  0.6352 -0.2842
 5341TIP3   OH237437   6.713   3.496  14.557  0.2258  0.0995  0.0778
 5341TIP3    H137438   6.698   3.590  14.570  0.8571  0.0096  1.6666
 5341TIP3    H237439   6.632   3.463  14.519  0.8559  1.7103 -2.7548
 5342TIP3   OH237440   2.722   2.127   0.168 -0.1524 -0.0643 -0.1333
 5342TIP3    H137441   2.802   2.094   0.209  0.4246  0.1696 -1.0616
 5342TIP3    H237442   2.752   2.177   0.093 -1.2486 -1.5506 -1.6163
 5343TIP3   OH237443   0.991   2.581   3.644 -0.2736  0.4269  0.2755
 5343TIP3    H137444   1.084   2.595   3.660  0.0374 -0.6707 -0.4949
 5343TIP3    H237445   0.966   2.652   3.585  0.4736 -0.2596 -0.8739
 5344TIP3   OH237446   3.121   4.160   0.531 -0.1118  0.3868 -0.0282
 5344TIP3    H137447   3.182   4.115   0.472  2.1813 -0.6348  3.0176
 5344TIP3    H237448   3.151   4.251   0.530  0.0020  0.3501 -0.3271
 5345TIP3   OH237449   4.314   3.435   1.634  0.4427 -0.1033  0.3377
 5345TIP3    H137450   4.265   3.407   1.711  0.3102  0.4590  0.4567
 5345TIP3    H237451   4.377   3.499   1.667  0.1425  0.4118 -0.0773
 5346TIP3   OH237452   3.382   6.067  11.570 -0.2624  0.2201 -0.1616
 5346TIP3    H137453   3.292   6.037  11.583 -0.8129  1.0800 -1.7316
 5346TIP3    H237454   3.420   6.003  11.510  0.6019 -0.8589  1.5049
 5347TIP3   OH237455   2.974   4.799   5.720  0.4484  0.1758 -0.0823
 5347TIP3    H137456   3.069   4.802   5.722  0.4898  1.0195 -2.1123
 5347TIP3    H237457   2.953   4.717   5.675  0.1848 -0.5329  1.3080
 5348TIP3   OH237458   0.856   5.544   6.305 -0.1121  0.5137  0.2406
 5348TIP3    H137459   0.912   5.593   6.366 -0.2178 -0.7633  1.3866
 5348TIP3    H237460   0.906   5.465   6.286 -1.0402 -0.1056  0.3863
 5349TIP3   OH237461   3.665   4.283  11.817 -0.4845  0.2455  0.4187
 5349TIP3    H137462   3.738   4.276  11.878  0.4071 -1.8255 -0.8136
 5349TIP3    H237463   3.587   4.282  11.872  0.3159 -1.4734  1.5633
 5350TIP3   OH237464   4.558   3.063  13.472 -0.8084  0.4299 -0.2115
 5350TIP3    H137465   4.648   3.070  13.439 -1.1332 -1.5346 -1.6492
 5350TIP3    H237466   4.567   3.063  13.567  0.8018 -0.6767 -0.3414
 5351TIP3   OH237467   4.946   2.177  12.983 -0.5693 -0.2394  0.1092
 5351TIP3    H137468   4.860   2.214  13.005 -1.4592 -1.2637 -1.5593
 5351TIP3    H237469   5.005   2.253  12.983 -1.1148  0.2594  2.8310
 5352TIP3   OH237470   4.274   4.786  12.466 -1.1708 -0.6679 -0.1014
 5352TIP3    H137471   4.317   4.822  12.544  0.2919  0.7803 -1.5253
 5352TIP3    H237472   4.182   4.777  12.491 -1.2897  2.5472  0.9173
 5353TIP3   OH237473   0.465   5.496   5.711 -0.2866  0.1650  0.0560
 5353TIP3    H137474   0.489   5.544   5.791  0.5214  0.5877 -0.4314
 5353TIP3    H237475   0.391   5.544   5.676  0.4206  0.9694 -0.3441
 5354TIP3   OH237476   5.558   2.302  13.566 -0.0839  0.2293  0.9932
 5354TIP3    H137477   5.509   2.223  13.588 -0.2467  0.2216  0.6132
 5354TIP3    H237478   5.542   2.361  13.639  0.2748 -0.1997  1.4160
 5355TIP3   OH237479   4.343   3.299   4.472  0.2214 -0.3856  0.1460
 5355TIP3    H137480   4.399   3.325   4.399 -0.2698  1.0234  0.2736
 5355TIP3    H237481   4.265   3.263   4.430  0.3561 -0.4922 -0.0181
 5356TIP3   OH237482   6.652   5.976   6.512 -0.7866  0.0064  0.4955
 5356TIP3    H137483   6.600   5.925   6.450  0.2955  0.5593 -0.8879
 5356TIP3    H237484   6.665   5.918   6.587 -1.1322 -1.0766 -0.2855
 5357TIP3   OH237485   0.482   3.397  16.927 -0.1386 -0.0026  0.4018
 5357TIP3    H137486   0.544   3.339  16.972  0.2502 -0.0173 -0.1459
 5357TIP3    H237487   0.453   3.346  16.851 -1.8655 -0.5174  1.3955
 5358TIP3   OH237488   3.268   1.840   5.357  0.1381 -0.2422  0.3444
 5358TIP3    H137489   3.289   1.824   5.449  0.0505 -0.0202  0.4042
 5358TIP3    H237490   3.216   1.921   5.359  0.1873 -0.2061  0.0945
 5359TIP3   OH237491   1.462   4.497   4.794  0.6086 -0.2238  0.4971
 5359TIP3    H137492   1.416   4.581   4.800  0.4141 -0.3536  0.8800
 5359TIP3    H237493   1.554   4.519   4.807  0.7862  0.1760 -1.3495
 5360TIP3   OH237494   0.635   2.823   5.069  0.8124 -0.0386  0.2417
 5360TIP3    H137495   0.540   2.812   5.065  0.8866 -0.1152 -1.7102
 5360TIP3    H237496   0.652   2.906   5.025  1.7437 -0.5798 -0.4266
 5361TIP3   OH237497   0.953   4.000  16.652 -0.1315  0.0388  0.0699
 5361TIP3    H137498   0.903   4.063  16.704 -0.0754 -1.9415  2.5746
 5361TIP3    H237499   1.039   4.041  16.641 -0.7622  1.3217 -0.1540
 5362TIP3   OH237500   0.988   4.629  16.491 -0.1091  0.2640 -0.1993
 5362TIP3    H137501   0.894   4.637  16.472  0.1537  0.5809 -1.3455
 5362TIP3    H237502   1.028   4.606  16.408  0.6810 -1.2306  0.5652
 5363TIP3   OH237503   4.170   0.001  11.254 -0.2847 -0.2507 -0.1560
 5363TIP3    H137504   4.218  -0.021  11.174  0.0182 -0.0262 -0.0386
 5363TIP3    H237505   4.113  -0.074  11.269 -0.4577 -0.2268 -0.6682
 5364TIP3   OH237506   0.833   5.703   6.587 -0.1873 -0.7988 -0.2479
 5364TIP3    H137507   0.755   5.670   6.543 -0.2363 -0.7563 -0.1932
 5364TIP3    H237508   0.799   5.753   6.662 -0.0658 -2.1776  0.7410
 5365TIP3   OH237509   0.565   2.018   6.291  0.1436  0.0812 -0.1540
 5365TIP3    H137510   0.529   1.929   6.293  0.3946 -0.0339 -0.8132
 5365TIP3    H237511   0.601   2.028   6.203  0.5705  0.6563  0.0826
 5366TIP3   OH237512   1.365   3.833   0.156 -0.2991 -0.2953  0.2625
 5366TIP3    H137513   1.311   3.894   0.105 -2.9292 -1.2812  1.7927
 5366TIP3    H237514   1.432   3.889   0.196  0.3519  0.8357 -2.3082
 5367TIP3   OH237515   0.829   3.747   3.702 -0.6166 -0.1645  0.3124
 5367TIP3    H137516   0.851   3.675   3.761 -1.4331 -1.4634 -0.9500
 5367TIP3    H237517   0.895   3.742   3.633  0.4247  1.4431  1.1532
 5368TIP3   OH237518   1.021   5.365   4.843  0.2355  0.2869 -0.1387
 5368TIP3    H137519   1.040   5.458   4.830 -1.2475  0.8490  1.5174
 5368TIP3    H237520   0.928   5.356   4.821  0.2366 -0.6927  0.2276
 5369TIP3   OH237521   4.298   5.670   5.009 -0.1738  0.0321  0.6306
 5369TIP3    H137522   4.344   5.690   5.091  0.0716  3.5454 -0.2672
 5369TIP3    H237523   4.229   5.736   5.005 -0.4185 -0.3548 -1.7902
 5370TIP3   OH237524   2.795   4.598   3.068  0.3746 -0.3127 -0.1789
 5370TIP3    H137525   2.752   4.581   3.152  0.0336  0.6534 -0.1480
 5370TIP3    H237526   2.829   4.687   3.076 -1.8167  0.7333 -1.9532
 5371TIP3   OH237527   3.638   5.512   2.828  0.1236  0.5397  0.2584
 5371TIP3    H137528   3.543   5.501   2.827 -0.1379  2.3244  2.1728
 5371TIP3    H237529   3.670   5.437   2.878 -0.3169  0.3294  0.2290
 5372TIP3   OH237530   6.228   6.078   5.016 -0.1176  0.0445 -0.4941
 5372TIP3    H137531   6.171   6.002   5.022 -0.1509 -0.1291 -2.6802
 5372TIP3    H237532   6.221   6.120   5.102 -2.2858 -0.8579 -0.1925
 5373TIP3   OH237533   4.768   5.889   0.939  0.1740  0.0500 -0.2215
 5373TIP3    H137534   4.834   5.955   0.958  0.7377 -0.6799  0.3423
 5373TIP3    H237535   4.752   5.846   1.022 -0.8806  0.0945 -0.3921
 5374TIP3   OH237536   2.029   6.298   5.800 -0.4832  0.2875  0.1093
 5374TIP3    H137537   2.100   6.337   5.852  1.5426 -1.8925 -0.9191
 5374TIP3    H237538   1.978   6.247   5.863 -0.2996  0.7172  0.6093
 5375TIP3   OH237539   5.696   3.201  13.452  0.4755 -0.4981  0.4317
 5375TIP3    H137540   5.689   3.240  13.539  2.7108  2.4113 -0.5952
 5375TIP3    H237541   5.632   3.249  13.399  2.1240  0.7661 -0.4745
 5376TIP3   OH237542   0.970   2.682   6.544  0.2408 -0.2609 -0.0829
 5376TIP3    H137543   1.036   2.734   6.591  0.9763 -1.0684 -0.2120
 5376TIP3    H237544   0.905   2.661   6.611  0.7400 -0.4962  0.3313
 5377TIP3   OH237545   4.586   2.390   3.699  0.1817 -0.1229 -0.2770
 5377TIP3    H137546   4.514   2.363   3.757 -0.0936 -1.2022 -1.0998
 5377TIP3    H237547   4.581   2.329   3.625  2.2661 -0.5648 -0.0988
 5378TIP3   OH237548   2.715   4.070  14.869  0.2831  0.2446 -0.3666
 5378TIP3    H137549   2.660   4.101  14.798 -1.1138 -0.5938  0.3188
 5378TIP3    H237550   2.804   4.097  14.845 -0.5276  2.4263 -1.0405
 5379TIP3   OH237551   5.867   3.379   2.103  0.4597 -0.3796  0.0459
 5379TIP3    H137552   5.839   3.346   2.018 -1.4605 -0.2904  0.6150
 5379TIP3    H237553   5.797   3.440   2.129  2.1365  1.3076  0.6718
 5380TIP3   OH237554   4.260   4.681  16.192  0.3359  0.0627 -0.8944
 5380TIP3    H137555   4.235   4.606  16.245  0.1132  1.3236  0.8469
 5380TIP3    H237556   4.334   4.720  16.238 -0.2006  1.4851 -1.1890
 5381TIP3   OH237557   6.245   4.707   5.028  0.1122  0.9480  0.1641
 5381TIP3    H137558   6.237   4.691   4.934  0.2065  2.4876 -0.1184
 5381TIP3    H237559   6.154   4.708   5.060  0.0643  0.7261  0.0273
 5382TIP3   OH237560   1.774   6.172  14.999 -0.2659  0.5322 -0.1254
 5382TIP3    H137561   1.849   6.230  15.012  0.0940 -0.2628  1.5750
 5382TIP3    H237562   1.760   6.132  15.085 -1.1243 -1.1481 -1.0207
 5383TIP3   OH237563   5.994   0.432  12.412 -0.3251 -0.3971  0.0855
 5383TIP3    H137564   5.937   0.355  12.408  0.9983 -1.4166  0.4371
 5383TIP3    H237565   6.047   0.417  12.491  0.3682  0.5721 -0.1954
 5384TIP3   OH237566   6.334   3.895   3.053 -0.2912  0.4275  0.0300
 5384TIP3    H137567   6.386   3.829   3.098  0.0229  0.8745  0.3209
 5384TIP3    H237568   6.322   3.860   2.964 -1.9985 -1.0633  0.8166
 5385TIP3   OH237569   0.412   5.300   6.047  0.1077 -0.5958  0.0663
 5385TIP3    H137570   0.502   5.316   6.077 -0.9975 -1.1514  4.0044
 5385TIP3    H237571   0.392   5.211   6.077 -1.6550 -0.5714 -0.9744
 5386TIP3   OH237572   0.240   1.068  15.823 -0.0316 -0.3850 -0.0500
 5386TIP3    H137573   0.323   1.062  15.775 -1.0460  0.3402 -1.9393
 5386TIP3    H237574   0.184   1.002  15.782 -0.4420 -0.7476  1.0993
 5387TIP3   OH237575   2.172   3.437  14.876 -0.0746 -0.1420 -0.3340
 5387TIP3    H137576   2.144   3.496  14.807 -0.7974 -0.5466 -0.3927
 5387TIP3    H237577   2.143   3.478  14.958 -1.6579 -0.9814 -0.4452
 5388TIP3   OH237578   1.928   4.789  11.096  0.1148 -0.3476  0.2564
 5388TIP3    H137579   1.994   4.743  11.148 -0.0995 -1.3373 -0.3195
 5388TIP3    H237580   1.912   4.731  11.022 -0.3177  0.5808 -0.3879
 5389TIP3   OH237581   5.247   5.574  13.474  0.2875 -0.2894  0.6004
 5389TIP3    H137582   5.172   5.532  13.431 -2.0781  2.9087  1.4133
 5389TIP3    H237583   5.251   5.532  13.560 -0.8598 -0.2133  0.7087
 5390TIP3   OH237584   1.723   0.512   1.451  0.1934 -0.0780  0.9017
 5390TIP3    H137585   1.709   0.544   1.540  0.4499 -0.6304  1.1445
 5390TIP3    H237586   1.652   0.449   1.437  0.8815 -0.9236  1.1744
 5391TIP3   OH237587   4.407   4.168  16.830 -0.0405 -0.1677 -0.5417
 5391TIP3    H137588   4.324   4.216  16.829  0.6585  1.0686 -0.5743
 5391TIP3    H237589   4.416   4.136  16.920 -0.9917 -1.0993 -0.7746
 5392TIP3   OH237590   1.878   4.259  16.972  0.5381  0.2350 -0.4127
 5392TIP3    H137591   1.918   4.184  17.016 -2.2195 -1.2214 -0.2917
 5392TIP3    H237592   1.899   4.334  17.028  1.0231 -0.8598  0.8956
 5393TIP3   OH237593   0.533   2.885  13.887  0.7621 -0.3340  0.0134
 5393TIP3    H137594   0.454   2.858  13.935  0.7205 -1.3307 -0.6029
 5393TIP3    H237595   0.550   2.974  13.918  0.1336 -0.5811  1.1009
 5394TIP3   OH237596   5.884   0.732   2.494 -0.0334 -0.4139 -0.5338
 5394TIP3    H137597   5.828   0.678   2.438  0.3602 -0.0244 -1.3112
 5394TIP3    H237598   5.911   0.674   2.565  0.1793 -1.1653 -1.2236
 5395TIP3   OH237599   0.373   0.008   5.146 -0.0764  0.5064 -0.5121
 5395TIP3    H137600   0.319   0.070   5.195 -0.1536  0.3774 -0.4330
 5395TIP3    H237601   0.310  -0.055   5.111  0.1661 -0.4954  0.8160
 5396TIP3   OH237602   1.922   0.401  11.415 -0.2163  1.0232 -0.3182
 5396TIP3    H137603   1.852   0.368  11.359  0.7788  1.1255 -1.6480
 5396TIP3    H237604   1.989   0.333  11.413 -0.1127  1.0990  0.6156
 5397TIP3   OH237605   6.440   2.600  11.340  0.2850 -0.6415  0.2052
 5397TIP3    H137606   6.426   2.618  11.246  0.0435  2.8167  0.8132
 5397TIP3    H237607   6.354   2.574  11.372 -0.1300  0.2934 -0.1239
 5398TIP3   OH237608   6.673   3.526   3.107  0.3158 -0.2094  0.3667
 5398TIP3    H137609   6.741   3.588   3.081 -0.4774 -0.2769 -2.0305
 5398TIP3    H237610   6.596   3.553   3.056 -0.0806 -3.0670 -0.6333
 5399TIP3   OH237611   3.746   4.966  15.081 -0.6361  0.7232  0.4683
 5399TIP3    H137612   3.707   4.907  15.145  0.7257 -0.5777  0.1513
 5399TIP3    H237613   3.673   5.013  15.043 -1.9623 -2.0270 -0.5028
 5400TIP3   OH237614   5.805   2.586   5.545 -0.3424  0.7336 -0.0740
 5400TIP3    H137615   5.728   2.631   5.579 -0.1460 -0.1132  1.5124
 5400TIP3    H237616   5.858   2.565   5.622  1.2472  0.8767 -1.1053
 5401TIP3   OH237617   2.088   2.170   0.164  0.5715 -0.1946 -0.5172
 5401TIP3    H137618   2.109   2.178   0.257 -0.0225  0.7218 -0.4651
 5401TIP3    H237619   2.079   2.076   0.150  0.4608 -0.3227  0.3910
 5402TIP3   OH237620   5.045   2.418   0.278  0.7596  0.2195 -0.2696
 5402TIP3    H137621   5.070   2.347   0.338 -0.3993 -0.1728 -0.2304
 5402TIP3    H237622   4.981   2.469   0.328 -0.2708 -0.1537 -1.2106
 5403TIP3   OH237623   4.546   2.177  16.666  0.2210 -0.0792  0.6065
 5403TIP3    H137624   4.545   2.180  16.570 -1.6632  2.5691  0.6276
 5403TIP3    H237625   4.589   2.258  16.692 -0.1813 -0.2974  1.9857
 5404TIP3   OH237626   6.718   5.693   5.307  0.1390  0.2011 -0.4356
 5404TIP3    H137627   6.769   5.683   5.227 -1.6289 -0.8007 -1.4576
 5404TIP3    H237628   6.715   5.605   5.345 -0.8874  0.2381 -0.4242
 5405TIP3   OH237629   3.262   3.520   0.333  0.1197 -0.0677  0.3306
 5405TIP3    H137630   3.315   3.465   0.276 -2.6342  0.8967 -3.3158
 5405TIP3    H237631   3.281   3.488   0.421  0.6569 -5.0602 -1.4508
 5406TIP3   OH237632   5.215   5.421   5.114 -0.3217 -0.0921  0.3610
 5406TIP3    H137633   5.178   5.440   5.200  0.8005 -0.5626  0.9605
 5406TIP3    H237634   5.223   5.507   5.072  1.7712  0.4951  1.8295
 5407TIP3   OH237635   3.960   0.679   5.771 -0.3128 -0.2461  0.5092
 5407TIP3    H137636   3.939   0.659   5.862 -1.6861 -1.6358 -0.0835
 5407TIP3    H237637   3.906   0.618   5.720 -0.3123  1.1795 -1.2583
 5408TIP3   OH237638   2.112   0.686   4.506 -0.0085 -0.2984  0.7264
 5408TIP3    H137639   2.103   0.734   4.589  0.8102 -0.4681  0.9124
 5408TIP3    H237640   2.024   0.653   4.488 -0.1484 -0.4139  1.6219
 5409TIP3   OH237641   3.102   6.674   4.591 -0.0161  0.0071 -0.1010
 5409TIP3    H137642   3.080   6.590   4.551  1.6372 -0.7007  0.4306
 5409TIP3    H237643   3.189   6.694   4.558  1.1889 -0.3631  2.6933
 5410TIP3   OH237644   1.854   3.103  12.355 -0.2372 -0.3254 -0.5606
 5410TIP3    H137645   1.897   3.155  12.287 -0.0977 -1.1222 -1.0840
 5410TIP3    H237646   1.917   3.035  12.378 -1.8785 -2.6443 -2.6602
 5411TIP3   OH237647   6.586   3.096   5.570 -0.1827  0.5927  0.6284
 5411TIP3    H137648   6.497   3.062   5.569  0.2338 -0.5132 -0.6709
 5411TIP3    H237649   6.587   3.161   5.641 -1.6293 -0.4003  1.5776
 5412TIP3   OH237650   6.045   4.611  15.887 -0.3250 -0.0227 -0.7745
 5412TIP3    H137651   6.070   4.527  15.849  1.6915  1.8188 -3.7241
 5412TIP3    H237652   5.969   4.639  15.836  1.2653  1.6009 -2.3398
 5413TIP3   OH237653   2.434   4.250   5.140 -0.0510 -0.0948 -0.7746
 5413TIP3    H137654   2.373   4.176   5.138 -1.0051  0.5618  2.1155
 5413TIP3    H237655   2.405   4.306   5.068 -0.5959 -1.5047 -1.6964
 5414TIP3   OH237656   3.472   3.472   1.822 -0.2842 -0.3892 -0.0583
 5414TIP3    H137657   3.507   3.412   1.888 -2.5352 -1.6960 -0.0019
 5414TIP3    H237658   3.483   3.559   1.861  3.2465 -0.6691 -0.2440
 5415TIP3   OH237659   3.092   3.608   1.479 -0.0518  0.1516  0.1965
 5415TIP3    H137660   3.129   3.633   1.563  0.9559  2.0034 -0.7468
 5415TIP3    H237661   3.016   3.665   1.468  0.3007  0.5075 -0.4857
 5416TIP3   OH237662   0.560   3.546  11.413  0.6379 -0.4541 -0.3860
 5416TIP3    H137663   0.634   3.607  11.420  1.0624 -1.0764  0.8167
 5416TIP3    H237664   0.496   3.591  11.359  0.9104  1.0937  0.5524
 5417TIP3   OH237665   0.528   5.287   1.390 -0.0932 -0.1185 -0.1962
 5417TIP3    H137666   0.617   5.315   1.369 -0.3532  1.4060  0.6930
 5417TIP3    H237667   0.540   5.211   1.447  0.6234 -0.7049 -1.1125
 5418TIP3   OH237668   3.875   3.704   4.650  0.2506 -0.2240 -0.1061
 5418TIP3    H137669   3.894   3.613   4.672  0.2440 -0.2193 -0.0807
 5418TIP3    H237670   3.913   3.717   4.563  2.5445  0.4778  0.9508
 5419TIP3   OH237671   0.575   6.523   2.676  0.0594 -0.9340 -0.2259
 5419TIP3    H137672   0.555   6.611   2.643 -0.7685 -1.5075 -1.2863
 5419TIP3    H237673   0.667   6.528   2.702  0.4338 -0.1632 -1.6503
 5420TIP3   OH237674   2.306   2.966   3.261 -0.3340 -0.1515  0.4456
 5420TIP3    H137675   2.239   2.928   3.205 -0.6811 -0.1932  0.8950
 5420TIP3    H237676   2.274   3.054   3.281 -0.0170  0.0125  0.2555
 5421TIP3   OH237677   1.620   2.349   2.681  0.1111 -0.0280  0.2184
 5421TIP3    H137678   1.655   2.428   2.722  0.9413 -0.1438 -0.2427
 5421TIP3    H237679   1.528   2.346   2.707  0.0583  1.1277  0.1619
 5422TIP3   OH237680   4.784   4.380   5.873 -0.1902  0.1089  0.5339
 5422TIP3    H137681   4.732   4.346   5.946 -1.3284  1.2011  0.2438
 5422TIP3    H237682   4.768   4.319   5.801 -0.8951  0.3033  0.5198
 5423TIP3   OH237683   1.170   6.037  16.396  1.0218 -0.2836  0.2088
 5423TIP3    H137684   1.102   6.066  16.335  0.9494  0.2352  0.5290
 5423TIP3    H237685   1.247   6.021  16.341  0.5738 -1.0910 -0.1831
 5424TIP3   OH237686   1.035   1.416  15.425  0.6155 -0.0859 -0.2335
 5424TIP3    H137687   1.067   1.401  15.515  0.9263  1.1788 -0.1280
 5424TIP3    H237688   1.066   1.504  15.403  0.0661 -0.1754 -1.3850
 5425TIP3   OH237689   0.926   2.237  12.912 -0.4641 -0.7803  0.2454
 5425TIP3    H137690   0.902   2.295  12.840  0.7960 -0.0082  0.4171
 5425TIP3    H237691   0.975   2.166  12.871  2.1447  0.7911  0.5540
 5426TIP3   OH237692   3.226   6.132   3.709  0.1412  0.0516 -0.5638
 5426TIP3    H137693   3.177   6.157   3.787  0.5659 -0.4000 -0.1530
 5426TIP3    H237694   3.161   6.134   3.639  0.2232  2.7826 -0.6402
 5427TIP3   OH237695   1.911   3.583  14.329 -0.5036  0.4821  0.1235
 5427TIP3    H137696   1.999   3.549  14.348 -1.0829 -1.0455  0.1073
 5427TIP3    H237697   1.860   3.506  14.304 -1.1241  1.7250 -2.6339
 5428TIP3   OH237698   3.394   3.854  11.798 -0.2306 -0.5230  0.7775
 5428TIP3    H137699   3.324   3.790  11.781 -0.7715  0.1654  0.3475
 5428TIP3    H237700   3.348   3.930  11.833  0.2939 -0.0357  0.4145
 5429TIP3   OH237701   1.294   3.023   3.540  0.0113 -0.1268 -0.1225
 5429TIP3    H137702   1.253   3.051   3.459  0.8478 -0.9244 -0.8300
 5429TIP3    H237703   1.283   3.097   3.600 -1.8013 -0.0590 -0.5216
 5430TIP3   OH237704   6.121   4.457   0.910 -0.3806 -0.4668  0.2694
 5430TIP3    H137705   6.167   4.487   0.988  0.2226 -0.3329 -0.1363
 5430TIP3    H237706   6.092   4.369   0.932 -0.7665 -0.1888  0.8780
 5431TIP3   OH237707   4.521   5.103   2.269  0.1955 -0.0156  0.1387
 5431TIP3    H137708   4.591   5.039   2.271  1.1460  0.9916 -0.2992
 5431TIP3    H237709   4.558   5.178   2.223 -0.9719  0.7650  0.4327
 5432TIP3   OH237710   1.946   5.787   1.750  0.0717 -0.2303 -0.5739
 5432TIP3    H137711   1.879   5.852   1.729 -1.1266 -0.8128  1.3109
 5432TIP3    H237712   2.000   5.829   1.817  0.5782 -0.3999 -0.8728
 5433TIP3   OH237713   5.326   1.225   3.977 -0.1554  0.3714  0.3408
 5433TIP3    H137714   5.274   1.304   3.995  0.1410  0.8279 -0.8128
 5433TIP3    H237715   5.289   1.159   4.036 -2.2909  0.5853 -0.6901
 5434TIP3   OH237716   2.946   1.951   6.079 -0.6300 -0.3354  0.4625
 5434TIP3    H137717   2.870   1.980   6.028 -1.6706 -4.0727 -0.2934
 5434TIP3    H237718   3.015   1.939   6.014 -1.4151 -3.3130  0.0898
 5435TIP3   OH237719   4.891   3.390   5.262  0.3251 -0.2518 -0.1304
 5435TIP3    H137720   4.925   3.479   5.267 -0.4399  0.1740 -2.0310
 5435TIP3    H237721   4.920   3.358   5.176  1.9309 -2.4039  1.1411
 5436TIP3   OH237722   1.341   1.458  13.521 -1.0185 -0.2896  0.0085
 5436TIP3    H137723   1.320   1.540  13.564 -0.9073 -1.3598  2.1778
 5436TIP3    H237724   1.292   1.392  13.570  1.3372 -1.8799  0.3298
 5437TIP3   OH237725   0.942   0.592  15.860  0.5847 -0.3868  0.7309
 5437TIP3    H137726   0.950   0.664  15.922 -2.1601  1.3821 -0.8742
 5437TIP3    H237727   0.887   0.528  15.904  0.1425  0.0612  0.8412
 5438TIP3   OH237728   0.986   5.338  14.415  1.2059  0.5235 -0.2237
 5438TIP3    H137729   1.019   5.256  14.378 -1.7134 -0.7615 -0.1328
 5438TIP3    H237730   1.015   5.338  14.506  2.5013  0.3409 -0.6273
 5439TIP3   OH237731   4.628   5.892  13.205  0.0738  0.3518  0.4871
 5439TIP3    H137732   4.655   5.945  13.280 -0.0334 -0.0523  0.8150
 5439TIP3    H237733   4.693   5.821  13.201 -0.6670 -0.3600  0.9942
 5440TIP3   OH237734   6.603   6.193   3.034 -0.0228 -0.0015 -0.1955
 5440TIP3    H137735   6.584   6.143   3.114 -0.9578 -0.4253 -0.6831
 5440TIP3    H237736   6.524   6.185   2.981 -0.4407  2.5305 -0.0125
 5441TIP3   OH237737   6.786   0.419   1.118  0.5706  0.4182 -0.2907
 5441TIP3    H137738   6.880   0.417   1.132  0.5191  1.1670  0.1747
 5441TIP3    H237739   6.774   0.478   1.043  0.3809  1.3444  0.4612
 5442TIP3   OH237740   1.489   1.660   2.836 -0.5827 -0.4643  0.3522
 5442TIP3    H137741   1.451   1.665   2.923 -1.2752 -1.4509  0.1201
 5442TIP3    H237742   1.541   1.579   2.837 -0.2887 -0.2820 -0.0238
 5443TIP3   OH237743   2.742   3.341   4.773 -0.3534  0.0049  0.3330
 5443TIP3    H137744   2.826   3.326   4.818 -0.5979 -0.0763  0.7694
 5443TIP3    H237745   2.681   3.281   4.816 -0.8458  0.7192  0.6464
 5444TIP3   OH237746   2.114   4.560  14.923 -0.1013 -0.1916 -0.6880
 5444TIP3    H137747   2.066   4.514  14.854  0.6934 -0.9212 -0.7735
 5444TIP3    H237748   2.074   4.531  15.004 -0.4775 -0.0019 -0.8059
 5445TIP3   OH237749   3.501   0.402  12.997  0.5379  0.3011  0.2349
 5445TIP3    H137750   3.571   0.455  13.035  0.5238  1.9233 -1.8814
 5445TIP3    H237751   3.545   0.332  12.951  0.6423 -0.2617  1.1763
 5446TIP3   OH237752   5.264   1.626  14.406  0.4638  0.4400  0.6194
 5446TIP3    H137753   5.330   1.558  14.405  0.2867  0.2619  1.0754
 5446TIP3    H237754   5.209   1.606  14.481 -0.1174  0.5759  0.2402
 5447TIP3   OH237755   6.323   6.383  12.732  0.7639 -0.0990  0.7024
 5447TIP3    H137756   6.369   6.404  12.651  1.0266 -0.3540  0.7807
 5447TIP3    H237757   6.234   6.417  12.720  1.4286  1.8636  1.1972
 5448TIP3   OH237758   2.373   1.932   5.128  0.1038  0.2489  0.9099
 5448TIP3    H137759   2.353   2.023   5.147  1.8919  0.7139  0.5871
 5448TIP3    H237760   2.468   1.926   5.130  0.1038 -1.1675 -1.0990
 5449TIP3   OH237761   6.128   5.059   3.110  0.0706  0.0197  0.3725
 5449TIP3    H137762   6.161   5.038   3.023  0.4621  0.1270  0.4935
 5449TIP3    H237763   6.120   4.974   3.153  0.8455  0.0412  0.5743
 5450TIP3   OH237764   0.891   2.137   2.891 -0.4322  0.7025 -0.2409
 5450TIP3    H137765   0.916   2.069   2.954 -0.7408  0.7783 -0.0363
 5450TIP3    H237766   0.935   2.111   2.810  1.3451  1.5170  0.4441
 5451TIP3   OH237767   3.673   1.781   1.986  0.1943  0.0059 -0.2763
 5451TIP3    H137768   3.585   1.819   1.977 -0.4499 -1.2398  0.6218
 5451TIP3    H237769   3.703   1.769   1.896 -0.7225  0.1037 -0.6022
 5452TIP3   OH237770   3.236   5.159  14.400 -0.9205  0.7660  0.2730
 5452TIP3    H137771   3.295   5.162  14.324 -1.7109 -0.7913 -0.4305
 5452TIP3    H237772   3.295   5.168  14.475 -0.0516  1.6824 -0.4981
 5453TIP3   OH237773   6.266   3.366   4.826  0.2775 -0.0587 -0.0812
 5453TIP3    H137774   6.236   3.418   4.901 -0.8229 -0.5674 -0.1502
 5453TIP3    H237775   6.321   3.298   4.864  1.0638  0.6752  0.0933
 5454TIP3   OH237776   6.293   2.305   2.314  0.6031  0.0524 -0.3278
 5454TIP3    H137777   6.379   2.290   2.352  1.5350  0.4008 -2.2442
 5454TIP3    H237778   6.278   2.230   2.257 -0.4195 -0.0534  0.0574
 5455TIP3   OH237779   5.322   1.159  17.102 -0.1840 -0.2178  0.2008
 5455TIP3    H137780   5.367   1.080  17.132  1.1537  0.1896 -0.6579
 5455TIP3    H237781   5.305   1.208  17.182  0.7455 -0.4728  0.5711
 5456TIP3   OH237782   6.102   1.371  12.155 -0.5191  0.1210 -0.3122
 5456TIP3    H137783   6.014   1.376  12.191  0.1034  1.5723  1.0348
 5456TIP3    H237784   6.095   1.407  12.066 -1.3577 -0.2075 -0.3772
 5457TIP3   OH237785   5.575   3.389  11.681 -0.3513  0.1811  0.0003
 5457TIP3    H137786   5.643   3.386  11.614  0.1723 -0.1711  0.5489
 5457TIP3    H237787   5.620   3.369  11.763 -1.6642 -3.3741 -0.0629
 5458TIP3   OH237788   3.369   4.661   1.535 -0.2317  0.5990  0.4844
 5458TIP3    H137789   3.403   4.625   1.617 -0.2552  0.1854  0.3127
 5458TIP3    H237790   3.278   4.684   1.555 -0.5699 -0.4981  0.2811
 5459TIP3   OH237791   3.957   2.111  14.371 -0.1570  0.4605 -0.0298
 5459TIP3    H137792   3.921   2.056  14.302 -0.4803  1.2523 -0.5055
 5459TIP3    H237793   3.895   2.184  14.378  0.9490  1.4471 -0.3225
 5460TIP3   OH237794   1.436   4.023  15.046  0.1385 -1.6057 -0.7003
 5460TIP3    H137795   1.466   3.995  14.959 -0.2619 -1.5977 -0.8430
 5460TIP3    H237796   1.442   3.945  15.100 -1.2331 -2.0451 -1.1646
 5461TIP3   OH237797   5.744   5.768   4.123 -0.2043  0.1167  0.3085
 5461TIP3    H137798   5.824   5.817   4.101  0.4767 -0.7051  0.9179
 5461TIP3    H237799   5.673   5.820   4.086  0.6623  0.5382 -0.7803
 5462TIP3   OH237800   6.593   1.622   2.279  0.3324  0.0897  0.2054
 5462TIP3    H137801   6.640   1.551   2.322 -2.7882 -1.8800  0.5059
 5462TIP3    H237802   6.530   1.578   2.222  0.6835  2.6527 -2.2977
 5463TIP3   OH237803   1.749   4.376   5.459  0.2004  0.5126  0.2021
 5463TIP3    H137804   1.695   4.420   5.525  1.3946  2.6430 -0.1967
 5463TIP3    H237805   1.765   4.289   5.494 -1.4063  0.7156  1.4760
 5464TIP3   OH237806   4.452   4.873   0.511 -0.3191 -0.0485  0.2547
 5464TIP3    H137807   4.411   4.915   0.586 -0.0113 -0.3082  0.5670
 5464TIP3    H237808   4.436   4.779   0.524 -2.4038  0.0448 -1.2474
 5465TIP3   OH237809   5.200   2.862  12.300  0.1691 -0.4194 -0.0992
 5465TIP3    H137810   5.174   2.797  12.365  2.2198 -1.5132 -0.3346
 5465TIP3    H237811   5.247   2.812  12.234 -0.6816  0.8977 -1.7384
 5466TIP3   OH237812   0.101   2.960  16.550  0.1087  0.6305  0.4068
 5466TIP3    H137813   0.128   2.870  16.536 -0.9017  0.4015 -0.1055
 5466TIP3    H237814   0.142   2.984  16.633  0.5270 -0.2379  0.4572
 5467TIP3   OH237815   1.529   1.873   2.148  0.2008  0.0602 -0.6137
 5467TIP3    H137816   1.574   1.795   2.181  1.3026  1.1972  0.6388
 5467TIP3    H237817   1.436   1.852   2.159  0.4879 -0.8726  0.2172
 5468TIP3   OH237818   4.489   3.655   2.140 -0.0502  0.9458  0.8200
 5468TIP3    H137819   4.508   3.710   2.064  0.3696  1.5560  1.3564
 5468TIP3    H237820   4.546   3.690   2.209 -0.5940  0.5441  1.4731
 5469TIP3   OH237821   2.818   1.924   3.437  0.0756 -0.0058 -0.1328
 5469TIP3    H137822   2.892   1.983   3.449  0.3532 -0.5577  0.8920
 5469TIP3    H237823   2.818   1.869   3.515  0.4403 -2.0324 -1.5112
 5470TIP3   OH237824   2.093   4.884   3.121  0.3192  0.3899  0.3863
 5470TIP3    H137825   2.003   4.899   3.150 -0.2867 -0.9750 -0.6968
 5470TIP3    H237826   2.088   4.886   3.026  1.6964  1.6594  0.3244
 5471TIP3   OH237827   0.398   1.418   4.580 -0.0522 -0.0166  0.6904
 5471TIP3    H137828   0.422   1.350   4.516  1.9050 -0.5822  1.9899
 5471TIP3    H237829   0.387   1.497   4.527 -0.4391 -0.9214 -0.6056
 5472TIP3   OH237830   6.578   0.927  11.265 -0.1437  0.4142 -0.0533
 5472TIP3    H137831   6.581   0.905  11.172 -1.5713  0.9658 -0.2449
 5472TIP3    H237832   6.485   0.943  11.283  0.4887  3.4208  0.7555
 5473TIP3   OH237833   3.106   1.643  15.333  0.8178  0.1585  0.1954
 5473TIP3    H137834   3.011   1.653  15.324  0.6084 -0.3181  1.6539
 5473TIP3    H237835   3.132   1.715  15.391  1.1773 -0.3998  0.7257
 5474TIP3   OH237836   5.373   3.964   6.343 -0.4303  0.2656  0.0098
 5474TIP3    H137837   5.283   3.935   6.358 -0.6822  1.3959  0.7651
 5474TIP3    H237838   5.365   4.038   6.283 -0.1437  1.3246  1.2512
 5475TIP3   OH237839   5.726   0.562   1.806  0.0684  0.0001  0.1817
 5475TIP3    H137840   5.710   0.657   1.807 -0.4253 -0.0843  0.6212
 5475TIP3    H237841   5.793   0.549   1.874 -1.0791 -0.1699  1.2939
 5476TIP3   OH237842   1.868   0.343  13.893  0.1914 -0.2370 -0.0071
 5476TIP3    H137843   1.793   0.398  13.870  1.3842  1.0310 -0.9012
 5476TIP3    H237844   1.883   0.289  13.816  0.7693  0.1584 -0.1744
 5477TIP3   OH237845   1.473   0.645   2.276  0.4841  0.4771 -0.2347
 5477TIP3    H137846   1.393   0.603   2.245 -0.2397  2.3428 -0.9458
 5477TIP3    H237847   1.540   0.617   2.214  0.8151 -2.5326  1.3770
 5478TIP3   OH237848   2.867   3.044   0.185 -0.2022 -0.2477  0.1546
 5478TIP3    H137849   2.822   3.086   0.112 -0.2673  0.1786  0.4386
 5478TIP3    H237850   2.830   3.086   0.263 -0.2850 -0.8457  0.4410
 5479TIP3   OH237851   5.409   0.579  12.523 -0.0735 -0.4660 -0.3424
 5479TIP3    H137852   5.445   0.546  12.440 -0.4546 -0.5778 -0.4620
 5479TIP3    H237853   5.315   0.562  12.517 -0.4243  1.5055 -0.8023
 5480TIP3   OH237854   5.199   2.044   0.390  0.0367 -0.1661 -0.1516
 5480TIP3    H137855   5.262   1.974   0.376 -0.4422 -0.3381 -1.4658
 5480TIP3    H237856   5.162   2.061   0.304  0.7893  2.3229 -0.0410
 5481TIP3   OH237857   1.310   1.898  15.709  0.4336  0.9522  0.0225
 5481TIP3    H137858   1.324   1.828  15.773 -0.4891 -1.6509 -2.5421
 5481TIP3    H237859   1.394   1.907  15.664  0.8367  2.2186  0.9757
 5482TIP3   OH237860   6.744   0.131   0.689 -0.3735  0.7147  0.3422
 5482TIP3    H137861   6.782   0.215   0.664  1.4356  0.4351  1.9877
 5482TIP3    H237862   6.684   0.152   0.761  0.7646  0.5033  1.3643
 5483TIP3   OH237863   2.922   2.814   4.382  0.3167  0.4899  0.1329
 5483TIP3    H137864   3.011   2.791   4.407  1.4609  1.2574 -3.0203
 5483TIP3    H237865   2.914   2.907   4.403  0.0716  0.3121  0.8538
 5484TIP3   OH237866   0.483   2.027   0.592 -0.6711 -0.0196  0.3673
 5484TIP3    H137867   0.500   1.973   0.669 -0.3293  1.3628  1.2979
 5484TIP3    H237868   0.539   2.104   0.605  0.9407 -0.6834 -2.2904
 5485TIP3   OH237869   1.335   2.577  14.957  0.2300 -0.2468  0.5305
 5485TIP3    H137870   1.321   2.664  14.920  1.6187 -1.8892 -4.2128
 5485TIP3    H237871   1.410   2.588  15.016 -0.3926  1.9854  0.9409
 5486TIP3   OH237872   3.802   2.393  15.868  0.5397  0.8435  0.6896
 5486TIP3    H137873   3.801   2.370  15.961 -0.0683  2.4638  1.1045
 5486TIP3    H237874   3.882   2.445  15.858  0.1723  1.3650  0.4790
 5487TIP3   OH237875   4.431   1.781   0.203 -0.1266 -0.0681  0.3897
 5487TIP3    H137876   4.416   1.746   0.290  2.1554 -2.5489 -0.1373
 5487TIP3    H237877   4.379   1.725   0.145  1.5732 -1.0805 -0.2067
 5488TIP3   OH237878   0.049   3.095  13.661  0.1463 -0.6094 -0.4135
 5488TIP3    H137879   0.073   3.013  13.620  0.2565 -1.6848  1.7502
 5488TIP3    H237880   0.021   3.071  13.749 -1.1902  1.5072 -0.2237
 5489TIP3   OH237881   4.514   2.385   4.617  0.1765 -0.3980  0.0743
 5489TIP3    H137882   4.605   2.371   4.645 -0.1372 -1.9545  0.3458
 5489TIP3    H237883   4.463   2.322   4.667 -0.9854 -0.0145 -0.5973
 5490TIP3   OH237884   2.958   6.567  15.885  0.0948  0.5648  0.1697
 5490TIP3    H137885   3.024   6.582  15.952 -0.6269  1.4025  0.7034
 5490TIP3    H237886   2.894   6.510  15.926 -1.1270  2.2951  0.7154
 5491TIP3   OH237887   5.259   3.966   0.683 -0.4469  0.0065 -0.1437
 5491TIP3    H137888   5.228   4.040   0.630  2.2574  1.4730  0.2768
 5491TIP3    H237889   5.354   3.971   0.678 -0.1979 -3.2082  0.2676
 5492TIP3   OH237890   0.166   3.477   2.212 -0.1404 -0.5242  0.0775
 5492TIP3    H137891   0.193   3.395   2.172 -0.5448 -0.6477  0.0604
 5492TIP3    H237892   0.070   3.476   2.209 -0.1352  0.8511 -1.7448
 5493TIP3   OH237893   1.776   1.047  14.682 -0.2085  0.1256  0.3862
 5493TIP3    H137894   1.827   1.122  14.652 -1.9107  0.9531 -0.4622
 5493TIP3    H237895   1.828   0.970  14.657 -0.5730  0.8658 -2.7155
 5494TIP3   OH237896   3.053   5.441   2.204  0.2976  0.4067  0.7982
 5494TIP3    H137897   3.043   5.369   2.265 -0.2340  0.5690  0.9014
 5494TIP3    H237898   3.147   5.462   2.207  0.3903 -0.0344  1.0359
 5495TIP3   OH237899   4.590   3.132  16.412  0.2577 -0.7281 -0.9766
 5495TIP3    H137900   4.671   3.153  16.458 -0.1735 -3.9859  1.4808
 5495TIP3    H237901   4.521   3.148  16.476 -0.7733 -0.8305 -2.0450
 5496TIP3   OH237902   3.406   6.043  13.599  0.3252 -0.5040  0.4432
 5496TIP3    H137903   3.370   6.098  13.530 -0.0411 -0.5649  0.5879
 5496TIP3    H237904   3.499   6.036  13.578  0.6707  1.3533  1.2070
 5497TIP3   OH237905   4.195   4.553  15.290  0.0040  0.0759  0.2855
 5497TIP3    H137906   4.280   4.508  15.285  0.1100  0.5073 -2.3245
 5497TIP3    H237907   4.199   4.620  15.222 -2.1522  0.6319  0.6671
 5498TIP3   OH237908   2.488   3.941   0.883 -0.1762 -0.0465 -0.2677
 5498TIP3    H137909   2.581   3.927   0.903 -0.4661 -0.2207  0.9925
 5498TIP3    H237910   2.441   3.885   0.944 -1.1470  0.9131 -0.1086
 5499TIP3   OH237911   0.870   5.702  12.487  0.2585 -0.0734 -0.4973
 5499TIP3    H137912   0.821   5.765  12.540  0.5783  0.0116 -0.2984
 5499TIP3    H237913   0.954   5.746  12.470  0.8743 -0.8513  0.4890
 5500TIP3   OH237914   4.796   5.674  13.231  0.2984  0.0044 -0.2154
 5500TIP3    H137915   4.793   5.696  13.324  0.9609 -1.1492  0.0799
 5500TIP3    H237916   4.866   5.609  13.223  0.3512  0.2029 -1.5417
 5501TIP3   OH237917   4.728   5.619   3.819  0.0000  0.4939 -0.3634
 5501TIP3    H137918   4.640   5.633   3.851  0.2565  0.7002  0.2552
 5501TIP3    H237919   4.785   5.661   3.884  0.5107  1.1317 -1.2124
 5502TIP3   OH237920   5.026   5.488   3.366  0.2141  0.0149 -0.3954
 5502TIP3    H137921   5.108   5.538   3.366 -0.4485  1.1131 -0.9139
 5502TIP3    H237922   5.000   5.485   3.274 -0.2132 -0.5390 -0.2585
 5503TIP3   OH237923   0.104   1.777  11.561 -1.1880  0.0397  0.4361
 5503TIP3    H137924   0.090   1.734  11.477  0.1594  1.1852 -0.4088
 5503TIP3    H237925   0.056   1.724  11.624 -1.5707 -1.2810 -0.9437
 5504TIP3   OH237926   0.081   4.438  12.283 -0.3258  0.5872  0.2044
 5504TIP3    H137927   0.115   4.522  12.312 -0.4378  0.5155  0.5512
 5504TIP3    H237928   0.076   4.386  12.363  0.7331 -0.0987 -0.1666
 5505TIP3   OH237929   2.445   2.876  15.798 -0.6100 -0.2494  0.7648
 5505TIP3    H137930   2.477   2.803  15.744  0.4430  0.3532  0.5759
 5505TIP3    H237931   2.518   2.937  15.802 -1.9652  1.4738 -0.2377
 5506TIP3   OH237932   1.933   3.819   5.152  0.5788 -0.2347 -0.0306
 5506TIP3    H137933   1.972   3.847   5.236  0.6672 -1.3426  0.3040
 5506TIP3    H237934   1.970   3.879   5.088  0.1087  0.9591  0.7987
 5507TIP3   OH237935   3.046   3.094  16.553  0.5714 -0.3663 -0.3427
 5507TIP3    H137936   2.963   3.139  16.539  0.5558 -0.3021 -0.0519
 5507TIP3    H237937   3.041   3.016  16.498  0.5646 -0.0550 -0.7827
 5508TIP3   OH237938   2.273   3.304  14.039  0.6646 -0.3405  0.2583
 5508TIP3    H137939   2.231   3.272  14.119  1.2665  0.0322  0.7275
 5508TIP3    H237940   2.286   3.225  13.986 -2.2937 -0.2336 -0.7088
 5509TIP3   OH237941   2.153   3.476  14.428 -0.2178 -0.3010  0.8674
 5509TIP3    H137942   2.175   3.389  14.461 -0.0916 -0.7711 -0.4277
 5509TIP3    H237943   2.235   3.510  14.393 -0.8107 -0.7317 -0.9934
 5510TIP3   OH237944   1.385   4.413   5.840  0.1900 -0.2138  0.5285
 5510TIP3    H137945   1.397   4.398   5.933 -1.8274  2.2730  1.2393
 5510TIP3    H237946   1.473   4.429   5.806  0.7933  0.1041  2.2341
 5511TIP3   OH237947   2.605   1.399   2.343 -0.0368 -0.4120  0.0961
 5511TIP3    H137948   2.548   1.468   2.308  2.3924  1.2471 -0.7393
 5511TIP3    H237949   2.638   1.436   2.425  0.6977 -0.8789  0.0126
 5512TIP3   OH237950   1.934   0.266   4.997  0.6262  0.2179  0.3860
 5512TIP3    H137951   2.001   0.244   5.062  0.5841  1.0441  0.7185
 5512TIP3    H237952   1.851   0.255   5.043  0.5957  0.7887  0.4650
 5513TIP3   OH237953   4.549   3.754  17.008 -0.2285  0.2397 -0.0002
 5513TIP3    H137954   4.629   3.804  16.994 -0.1505  0.0730 -0.1555
 5513TIP3    H237955   4.579   3.664  17.018 -0.2252  0.4383  1.8909
 5514TIP3   OH237956   2.961   3.131   0.662  0.2824 -0.0264  0.8940
 5514TIP3    H137957   2.906   3.164   0.591 -1.0087 -2.2959  0.7849
 5514TIP3    H237958   2.912   3.151   0.742  0.5257  0.2789  0.9643
 5515TIP3   OH237959   1.690   1.123   2.236 -0.5288  0.0971 -0.2971
 5515TIP3    H137960   1.746   1.177   2.291 -2.2866  2.0086 -0.3127
 5515TIP3    H237961   1.615   1.180   2.215 -1.8774 -1.9730 -1.2563
 5516TIP3   OH237962   2.105   5.108  16.611 -0.0363 -0.0943 -0.0582
 5516TIP3    H137963   2.155   5.035  16.572  0.6177  0.7815 -0.8925
 5516TIP3    H237964   2.160   5.138  16.683  0.2815  0.3556 -0.4813
 5517TIP3   OH237965   5.452   0.208   0.623  0.2583 -0.6856 -0.2216
 5517TIP3    H137966   5.447   0.137   0.560  1.0290 -1.2684  0.3531
 5517TIP3    H237967   5.483   0.166   0.704 -0.7109  0.0396  0.5448
 5518TIP3   OH237968   5.596   6.632  11.616  0.0117  0.3095 -0.3940
 5518TIP3    H137969   5.504   6.650  11.595 -0.3764  0.7934  1.6043
 5518TIP3    H237970   5.592   6.581  11.697  1.5488  1.3797  0.3654
 5519TIP3   OH237971   5.632   4.652  11.355 -0.2333  0.0656  0.1207
 5519TIP3    H137972   5.581   4.571  11.346  1.6303 -0.9450 -1.5403
 5519TIP3    H237973   5.716   4.623  11.390  0.2024  1.3836  0.1636
 5520TIP3   OH237974   4.533   0.511  10.865  0.2839 -0.3793 -0.3623
 5520TIP3    H137975   4.468   0.510  10.795  1.3360  0.6806 -1.3752
 5520TIP3    H237976   4.519   0.429  10.912 -3.0055  0.6336  0.5925
 5521TIP3   OH237977   2.718   2.411  12.831  0.7033 -0.9965 -0.2429
 5521TIP3    H137978   2.737   2.343  12.896 -1.5568 -2.1527 -0.7402
 5521TIP3    H237979   2.636   2.450  12.861 -0.1818 -1.2972 -2.1988
 5522TIP3   OH237980   5.468   4.141  17.128 -0.0543  0.3455 -0.5065
 5522TIP3    H137981   5.463   4.114  17.036  0.0375  0.9113 -0.6829
 5522TIP3    H237982   5.396   4.203  17.138 -0.4051 -0.1372 -0.0529
 5523TIP3   OH237983   5.730   0.272   2.404  0.0861 -0.2289  0.1484
 5523TIP3    H137984   5.676   0.326   2.462 -1.8671  0.1230 -1.9350
 5523TIP3    H237985   5.668   0.211   2.363  1.4817 -0.6951 -1.3100
 5524TIP3   OH237986   0.972   0.148   6.169 -0.0187  0.0999 -0.2384
 5524TIP3    H137987   1.056   0.103   6.160 -0.3639 -0.4759 -0.5755
 5524TIP3    H237988   0.910   0.080   6.194 -0.3255  0.5795  0.3074
 5525TIP3   OH237989   3.759   4.464   0.306  0.0243  0.4379  0.4299
 5525TIP3    H137990   3.798   4.440   0.223 -1.1697  0.9256 -0.2831
 5525TIP3    H237991   3.723   4.382   0.341  0.7508  0.1864  0.5915
 5526TIP3   OH237992   5.490   2.435  11.159 -0.2007 -0.1403 -0.2716
 5526TIP3    H137993   5.417   2.375  11.170 -1.5242  1.7965  1.8971
 5526TIP3    H237994   5.467   2.486  11.081 -0.5810 -0.3461 -0.2968
 5527TIP3   OH237995   6.227   6.453  13.612  0.5829  0.2606 -0.1907
 5527TIP3    H137996   6.162   6.438  13.543  2.1071  0.3803 -1.6838
 5527TIP3    H237997   6.228   6.372  13.663  1.3295 -0.8424 -1.9157
 5528TIP3   OH237998   1.544   3.429   6.502 -0.0868 -0.0325 -0.0983
 5528TIP3    H137999   1.637   3.452   6.496 -0.1525  0.2279 -0.1022
 5528TIP3    H238000   1.537   3.349   6.451 -0.0282  0.4206 -0.8265
 5529TIP3   OH238001   1.823   4.656   5.635 -0.2297  0.0914  0.0967
 5529TIP3    H138002   1.790   4.740   5.603 -0.0205 -0.2254 -0.9851
 5529TIP3    H238003   1.774   4.639   5.716 -0.5630  1.0515  0.0987
 5530TIP3   OH238004   4.963   1.647   0.672 -0.9417  0.2372  0.0327
 5530TIP3    H138005   4.982   1.612   0.759  0.0678 -0.4519 -0.4427
 5530TIP3    H238006   4.870   1.629   0.658 -1.1830  0.6470  1.0960
 5531TIP3   OH238007   1.411   5.111  14.790  0.2313  0.5227  0.0236
 5531TIP3    H138008   1.466   5.033  14.783 -0.8253 -0.5360  2.6530
 5531TIP3    H238009   1.360   5.111  14.709 -0.3468 -2.0180  0.3237
 5532TIP3   OH238010   4.948   4.938  15.904  0.2934  0.0922  0.9277
 5532TIP3    H138011   5.022   4.888  15.939  0.6912 -0.4982 -0.7119
 5532TIP3    H238012   4.873   4.907  15.955  0.4029 -2.7953 -0.5203
 5533TIP3   OH238013   0.194   3.669   1.628 -0.8983 -0.3918 -0.0793
 5533TIP3    H138014   0.269   3.626   1.669  0.2402  0.9103 -0.7625
 5533TIP3    H238015   0.151   3.716   1.699 -1.2258 -1.3278  0.3576
 5534TIP3   OH238016   6.002   5.449   4.735 -0.0403 -0.1061  0.4615
 5534TIP3    H138017   5.965   5.465   4.822  2.3604  1.1233  1.3156
 5534TIP3    H238018   5.942   5.494   4.676 -1.1350 -0.0473  1.5859
 5535TIP3   OH238019   5.178   5.208   1.375  0.5467  0.2060  0.4132
 5535TIP3    H138020   5.251   5.194   1.316  0.1444  2.6140 -0.7466
 5535TIP3    H238021   5.115   5.259   1.324 -1.0737 -0.1017  2.0168
 5536TIP3   OH238022   5.483   5.075  16.575  0.1428  0.0802  0.2282
 5536TIP3    H138023   5.388   5.078  16.587  0.4151 -1.5012  3.3658
 5536TIP3    H238024   5.505   5.159  16.535 -2.7490 -0.1863 -2.0732
 5537TIP3   OH238025   6.522   4.474   2.513 -0.2201 -0.4524  0.0443
 5537TIP3    H138026   6.524   4.554   2.566  0.4988 -0.9568  0.7760
 5537TIP3    H238027   6.587   4.489   2.445 -1.7237  0.5378 -1.2107
 5538TIP3   OH238028   4.692   3.417   5.583 -0.3274 -0.2742  0.2612
 5538TIP3    H138029   4.707   3.475   5.509  0.0256 -0.1321  0.4443
 5538TIP3    H238030   4.601   3.389   5.573  0.7583 -3.1732 -2.2524
 5539TIP3   OH238031   5.097   3.610  13.143 -0.1353 -0.8220 -0.2143
 5539TIP3    H138032   5.108   3.563  13.061 -0.5292  0.2288 -0.8726
 5539TIP3    H238033   5.187   3.632  13.170 -0.1194  1.0770 -1.6944
 5540TIP3   OH238034   5.964   4.178   4.155 -0.4134 -0.3422 -0.6089
 5540TIP3    H138035   5.876   4.207   4.181  0.5936  2.9188 -0.7265
 5540TIP3    H238036   5.949   4.127   4.075 -2.1127  1.1238 -1.2625
 5541TIP3   OH238037   0.545   4.153  13.090 -0.2717 -0.1010  0.3102
 5541TIP3    H138038   0.614   4.166  13.155 -2.1851  2.0473  1.9599
 5541TIP3    H238039   0.468   4.128  13.141 -1.5597  0.6991 -1.2089
 5542TIP3   OH238040   4.598   6.280   5.890  0.1236  0.3174  0.3329
 5542TIP3    H138041   4.662   6.255   5.957  1.6383  0.1705 -1.1311
 5542TIP3    H238042   4.539   6.205   5.886  1.1825 -0.5351  0.1436
 5543TIP3   OH238043   1.781   4.790   3.592  0.3208  0.3529 -0.1213
 5543TIP3    H138044   1.828   4.873   3.602 -1.1064  0.9835  1.6686
 5543TIP3    H238045   1.692   4.816   3.570 -0.2394 -0.6740  0.8725
 5544TIP3   OH238046   3.720   4.943   6.141 -0.0716  0.5297 -0.1994
 5544TIP3    H138047   3.680   4.905   6.219 -1.8150  0.1715 -1.2403
 5544TIP3    H238048   3.737   5.034   6.165 -1.5116  0.6803  0.2856
 5545TIP3   OH238049   2.442   5.345   0.364  0.1618  0.2830  0.2025
 5545TIP3    H138050   2.531   5.319   0.386  0.6530  1.8444  0.0866
 5545TIP3    H238051   2.419   5.291   0.289  0.9742 -0.1890  0.2907
 5546TIP3   OH238052   6.129   1.139  10.858  0.4187 -0.4189  0.1437
 5546TIP3    H138053   6.119   1.175  10.946 -0.5995 -2.5767  0.9480
 5546TIP3    H238054   6.051   1.168  10.811  1.2321  1.2029 -0.2477
 5547TIP3   OH238055   5.341   4.988  12.909  0.1642  0.2248 -0.0734
 5547TIP3    H138056   5.405   5.018  12.845  2.3034 -0.9052  1.4894
 5547TIP3    H238057   5.297   4.914  12.866  1.1700 -0.1491 -0.4659
 5548TIP3   OH238058   6.172   6.200  13.467 -0.2175 -0.4113 -0.6676
 5548TIP3    H138059   6.256   6.186  13.424  0.8465  2.2126  0.4437
 5548TIP3    H238060   6.176   6.145  13.545  1.0892  0.7786  0.1287
 5549TIP3   OH238061   0.154   3.657   3.081 -0.1795  0.6550  0.4070
 5549TIP3    H138062   0.091   3.693   3.144 -0.9673 -0.1527  0.0879
 5549TIP3    H238063   0.155   3.720   3.009 -0.7748  0.5556  0.3146
 5550TIP3   OH238064   2.154   4.729   1.128  0.1693 -0.0043  0.3477
 5550TIP3    H138065   2.143   4.815   1.167  0.4177  1.1987 -2.1459
 5550TIP3    H238066   2.065   4.699   1.110  0.1271  0.1815  0.2496
 5551TIP3   OH238067   2.227   0.156   4.022 -0.4745  0.1193  0.1102
 5551TIP3    H138068   2.184   0.093   4.080  0.2522 -1.2358 -0.7710
 5551TIP3    H238069   2.247   0.231   4.078 -1.7987 -0.2340  1.0744
 5552TIP3   OH238070   2.357   3.743   0.349 -0.3705 -0.4925 -0.2274
 5552TIP3    H138071   2.398   3.795   0.418  1.8789 -1.8021 -0.5554
 5552TIP3    H238072   2.395   3.777   0.268  0.0895 -1.7321 -0.5333
 5553TIP3   OH238073   5.662   3.184   4.278  0.0272  0.1753 -0.0926
 5553TIP3    H138074   5.681   3.253   4.341 -1.3442  0.5251 -0.0570
 5553TIP3    H238075   5.646   3.106   4.331 -1.7547  0.6146  0.0396
 5554TIP3   OH238076   6.009   0.919   6.315  0.3547  0.0661  0.6598
 5554TIP3    H138077   6.070   0.991   6.330  1.2551 -0.6999  0.7275
 5554TIP3    H238078   6.044   0.873   6.239 -1.5157  1.0749 -0.8568
 5555TIP3   OH238079   3.325   4.655   4.713  0.3501 -0.0343  0.3334
 5555TIP3    H138080   3.352   4.737   4.671  1.5043 -0.2962  0.5509
 5555TIP3    H238081   3.403   4.600   4.710  0.0696 -0.5268  1.6754
 5556TIP3   OH238082   0.513   5.760   5.432  0.3117  0.0572  0.1753
 5556TIP3    H138083   0.498   5.839   5.381  0.0661 -0.0243  0.1213
 5556TIP3    H238084   0.452   5.767   5.506  2.0667  1.1575  1.5671
 5557TIP3   OH238085   3.690   0.061  11.276 -0.2338  0.4652  1.3335
 5557TIP3    H138086   3.616   0.122  11.273 -0.3475  0.3116  0.9202
 5557TIP3    H238087   3.687   0.024  11.365 -1.6336 -0.7274  0.8222
 5558TIP3   OH238088   2.400   1.931  13.258  0.2162  0.4431 -0.4040
 5558TIP3    H138089   2.402   1.883  13.341  0.8171 -0.5117 -0.9617
 5558TIP3    H238090   2.307   1.945  13.241 -0.0198 -1.3456 -0.6916
 5559TIP3   OH238091   0.518   1.843   2.454 -0.7250 -0.0978 -0.2725
 5559TIP3    H138092   0.587   1.882   2.507  2.1007 -3.8304 -1.0101
 5559TIP3    H238093   0.505   1.904   2.381  1.9443  0.5563 -0.2318
 5560TIP3   OH238094   4.974   1.432  12.412  0.6599  0.0740  0.1609
 5560TIP3    H138095   4.914   1.428  12.486  1.8406  1.8237  1.2675
 5560TIP3    H238096   4.928   1.484  12.347  0.0919 -0.4525  0.1433
 5561TIP3   OH238097   2.086   2.614  14.486 -0.5322 -0.4275  0.3288
 5561TIP3    H138098   2.137   2.658  14.418  0.1496  2.3477  2.5025
 5561TIP3    H238099   2.022   2.561  14.439  0.4136  0.8315 -2.4411
 5562TIP3   OH238100   5.297   3.965  16.639  0.5338  0.2243  0.1037
 5562TIP3    H138101   5.216   3.921  16.615  0.8404 -0.1850 -0.1750
 5562TIP3    H238102   5.326   4.007  16.558  0.4754  0.5701  0.2600
 5563TIP3   OH238103   2.037   2.342   1.780 -0.3928  0.0529 -0.7417
 5563TIP3    H138104   2.033   2.246   1.784 -0.6373  0.0077 -1.7765
 5563TIP3    H238105   2.113   2.359   1.724  0.0678  0.4823  0.0095
 5564TIP3   OH238106   0.257   3.196  13.048 -0.7987  0.0690  0.6752
 5564TIP3    H138107   0.297   3.176  13.133 -1.4487 -0.3485  0.8962
 5564TIP3    H238108   0.238   3.290  13.052  0.5670  0.3690  0.3802
 5565TIP3   OH238109   4.952   2.032   1.801 -0.0466  0.8114 -0.3720
 5565TIP3    H138110   4.893   2.016   1.727 -0.4625 -1.7945  0.4613
 5565TIP3    H238111   4.900   2.006   1.878  1.3564  0.7943  0.5753
 5566TIP3   OH238112   4.019   3.195   5.548  0.2118  0.0044 -0.0827
 5566TIP3    H138113   3.944   3.232   5.594 -1.4623 -1.6280 -1.4584
 5566TIP3    H238114   3.981   3.144   5.476  2.5658 -1.8359 -0.0835
 5567TIP3   OH238115   0.576   1.057  16.272 -0.1221  0.3810 -0.7004
 5567TIP3    H138116   0.528   1.038  16.352 -0.7093  1.7937 -0.7192
 5567TIP3    H238117   0.511   1.051  16.202  0.3591 -0.7173 -1.0843
 5568TIP3   OH238118   2.076   0.255   4.395 -0.5080 -0.0112  0.3692
 5568TIP3    H138119   2.067   0.160   4.407 -1.5605 -0.0150 -0.3781
 5568TIP3    H238120   2.078   0.290   4.484 -0.6464 -0.6839  0.6441
 5569TIP3   OH238121   5.353   1.436   4.225  0.2714 -0.0918  0.2305
 5569TIP3    H138122   5.310   1.422   4.141  4.5092 -0.5683 -1.9866
 5569TIP3    H238123   5.318   1.519   4.257 -1.8001 -0.1782 -1.7235
 5570TIP3   OH238124   1.198   4.542  12.813  0.1276  0.3803  0.0645
 5570TIP3    H138125   1.130   4.550  12.746  1.1743 -1.0928 -1.1873
 5570TIP3    H238126   1.213   4.448  12.821  0.2553  0.5546  2.1361
 5571TIP3   OH238127   5.447   3.612  16.999  0.0469  0.1296  0.0638
 5571TIP3    H138128   5.513   3.543  16.994  0.1005  0.1525  0.4454
 5571TIP3    H238129   5.469   3.672  16.928  1.5928  1.1477  1.3461
 5572TIP3   OH238130   5.356   5.640   5.504 -0.3247 -0.2479 -0.4177
 5572TIP3    H138131   5.408   5.610   5.430 -1.2330 -2.4880 -0.2019
 5572TIP3    H238132   5.272   5.595   5.494 -0.3779 -0.7718  2.0516
 5573TIP3   OH238133   3.247   3.055  15.491  0.0917 -0.3030  0.1253
 5573TIP3    H138134   3.251   2.994  15.417  1.0047  0.1150 -0.1753
 5573TIP3    H238135   3.178   3.116  15.467 -0.2850 -0.7428  0.0673
 5574TIP3   OH238136   4.360   1.436   3.932  0.0677 -0.1718  0.2334
 5574TIP3    H138137   4.299   1.363   3.928  0.7955 -0.7715 -0.0369
 5574TIP3    H238138   4.347   1.483   3.849 -1.0192  0.5194  0.7846
 5575TIP3   OH238139   1.306   0.771   0.518 -0.4692 -0.2462 -0.5925
 5575TIP3    H138140   1.224   0.722   0.529 -0.6128  0.3936  1.3510
 5575TIP3    H238141   1.322   0.811   0.604  0.0126  2.5356 -1.9276
 5576TIP3   OH238142   5.976   3.507   1.269  0.2551 -0.0297 -0.3459
 5576TIP3    H138143   6.050   3.506   1.209  1.4097  0.3738  1.0615
 5576TIP3    H238144   5.949   3.416   1.278  1.6139 -0.3582  0.4087
 5577TIP3   OH238145   6.483   3.065   4.773 -0.6032  0.5391 -0.0921
 5577TIP3    H138146   6.513   3.124   4.704 -2.6399  0.6861 -0.8762
 5577TIP3    H238147   6.442   3.122   4.838  0.3252  0.2832  0.7477
 5578TIP3   OH238148   5.450   1.019   5.356  0.0256  0.4540 -0.1165
 5578TIP3    H138149   5.518   1.079   5.327  0.8961 -0.5805 -0.2488
 5578TIP3    H238150   5.368   1.066   5.341  0.5587  0.7298 -2.3803
 5579TIP3   OH238151   1.503   4.462  12.213  0.0901 -0.1209  0.0773
 5579TIP3    H138152   1.527   4.459  12.120 -1.9742 -0.5563 -0.4747
 5579TIP3    H238153   1.432   4.526  12.218 -0.6340 -0.9793  1.1425
 5580TIP3   OH238154   2.111   1.916  12.538  0.8126  0.1841 -0.1155
 5580TIP3    H138155   2.048   1.895  12.469  0.7436 -3.0263  0.8588
 5580TIP3    H238156   2.117   2.012  12.536 -1.5013  0.3431 -2.5003
 5581TIP3   OH238157   3.545   4.400   6.389  0.1248 -0.4042 -0.5221
 5581TIP3    H138158   3.638   4.379   6.374  0.3610  1.7024 -2.2074
 5581TIP3    H238159   3.546   4.470   6.453 -0.3816 -1.3105  0.4861
 5582TIP3   OH238160   1.188   6.317   4.894  0.3534  0.1543 -0.2363
 5582TIP3    H138161   1.105   6.303   4.848  0.2713  1.8743 -0.6628
 5582TIP3    H238162   1.241   6.367   4.833  1.1453  0.3787  0.6235
 5583TIP3   OH238163   6.588   4.052   2.883 -0.1515  0.0105 -0.1347
 5583TIP3    H138164   6.615   4.077   2.794 -0.5984  2.9007  0.4979
 5583TIP3    H238165   6.527   3.980   2.870  0.1287  0.1056 -2.1541
 5584TIP3   OH238166   3.449   5.917   0.652 -0.5578 -0.4576 -0.6030
 5584TIP3    H138167   3.421   5.921   0.743 -0.8508 -1.2590 -0.6576
 5584TIP3    H238168   3.371   5.893   0.603 -0.9404  2.1237 -1.3516
 5585TIP3   OH238169   3.260   5.115  12.662  0.3750  0.3891 -0.5008
 5585TIP3    H138170   3.353   5.104  12.641  0.3537  0.1415 -0.4693
 5585TIP3    H238171   3.236   5.198  12.622  0.1323 -0.4415 -2.1201
 5586TIP3   OH238172   4.008   5.690  11.816  0.3066 -0.1772 -0.4415
 5586TIP3    H138173   4.060   5.731  11.886 -1.4441 -0.4974  1.0682
 5586TIP3    H238174   3.973   5.611  11.856 -0.6870 -0.3786 -1.7056
 5587TIP3   OH238175   6.269   2.720  15.394 -0.2504  0.8124 -0.2055
 5587TIP3    H138176   6.176   2.703  15.405  0.2402 -1.7386  0.2329
 5587TIP3    H238177   6.284   2.716  15.300 -0.2774 -0.5331 -0.1577
 5588TIP3   OH238178   4.978   2.079   3.732 -0.0715  0.1630 -0.0026
 5588TIP3    H138179   5.057   2.025   3.736 -0.7011 -0.8076 -0.3443
 5588TIP3    H238180   5.005   2.158   3.686  0.9648  0.3095  0.8538
 5589TIP3   OH238181   3.327   0.244  16.338 -0.3014 -0.1152  0.1314
 5589TIP3    H138182   3.358   0.162  16.377  3.7538  0.9721 -0.6726
 5589TIP3    H238183   3.343   0.311  16.404 -1.4122  0.4402 -0.1367
 5590TIP3   OH238184   6.420   1.765   1.896  0.0759 -0.0086 -0.2984
 5590TIP3    H138185   6.510   1.793   1.881  0.5982 -2.0291 -0.9898
 5590TIP3    H238186   6.405   1.784   1.989  0.4398  2.3994 -0.6952
 5591TIP3   OH238187   5.313   1.512   5.938 -0.0454  0.1375  0.0526
 5591TIP3    H138188   5.307   1.432   5.990  1.7158  0.2058  0.3991
 5591TIP3    H238189   5.406   1.535   5.940 -0.5838  2.4351  0.3286
 5592TIP3   OH238190   6.358   0.867  13.601  0.0080 -0.5384  0.2712
 5592TIP3    H138191   6.396   0.779  13.600  0.5165 -0.3339  1.7177
 5592TIP3    H238192   6.278   0.858  13.653  0.0835 -0.1295  0.4573
 5593TIP3   OH238193   0.619   6.683  16.279 -0.4481 -0.1347 -0.2774
 5593TIP3    H138194   0.656   6.699  16.365 -0.0193 -1.5035 -0.1918
 5593TIP3    H238195   0.654   6.753  16.224  1.6417 -0.9344 -0.0175
 5594TIP3   OH238196   0.446   5.848   5.869  0.6053 -1.2203 -0.6447
 5594TIP3    H138197   0.375   5.791   5.898  0.1459  0.1969  1.1208
 5594TIP3    H238198   0.524   5.793   5.870  0.4196 -1.4754  2.4111
 5595TIP3   OH238199   6.526   3.724  16.825 -0.1639 -0.5253 -0.4134
 5595TIP3    H138200   6.572   3.724  16.741  1.4183  1.6667  0.3991
 5595TIP3    H238201   6.464   3.796  16.818 -0.7286 -0.9729 -0.0586
 5596TIP3   OH238202   1.887   2.657  17.001 -0.2753  0.7888 -0.1335
 5596TIP3    H138203   1.850   2.601  16.932 -0.0803  1.3958 -0.7336
 5596TIP3    H238204   1.832   2.735  17.000 -1.3939  0.0680  1.6197
 5597TIP3   OH238205   1.135   2.346  16.755  0.2266  0.4255 -0.1008
 5597TIP3    H138206   1.185   2.264  16.748 -0.4835 -0.1084  0.9455
 5597TIP3    H238207   1.102   2.362  16.666  0.4761 -0.3567 -0.3377
 5598TIP3   OH238208   1.482   0.490  13.312  0.5902 -0.2431 -0.2075
 5598TIP3    H138209   1.527   0.418  13.269  1.4123  0.1573 -0.0398
 5598TIP3    H238210   1.532   0.568  13.287  0.2647  0.1543  0.3636
 5599TIP3   OH238211   4.131   3.739  16.287  0.3656 -0.2981 -0.5720
 5599TIP3    H138212   4.223   3.716  16.302  0.5307  2.0741  2.6101
 5599TIP3    H238213   4.131   3.780  16.200  2.3196 -0.2519 -0.5836
 5600TIP3   OH238214   6.110   0.112   6.046  0.0730 -0.5570 -0.4329
 5600TIP3    H138215   6.187   0.126   5.991 -0.3821  0.8861 -0.7372
 5600TIP3    H238216   6.141   0.122   6.136  0.3402 -0.5212 -0.5301
 5601TIP3   OH238217   5.766   4.906  13.862 -0.9225  0.1688  0.1762
 5601TIP3    H138218   5.768   4.930  13.770 -2.6008  1.2652  0.4016
 5601TIP3    H238219   5.857   4.917  13.892 -1.0770  3.6742 -0.4009
 5602TIP3   OH238220   3.780   4.693  14.614  0.1726  0.4475  0.3824
 5602TIP3    H138221   3.761   4.632  14.686 -0.8876 -0.2359 -0.4625
 5602TIP3    H238222   3.700   4.694  14.562  1.5539 -0.5408 -1.8638
 5603TIP3   OH238223   6.106   5.211  14.470 -0.1997  0.0289 -0.1656
 5603TIP3    H138224   6.046   5.157  14.521  0.9000 -1.3070 -0.2808
 5603TIP3    H238225   6.054   5.240  14.395 -0.7668 -0.9103 -0.1413
 5604TIP3   OH238226   3.672   2.261  14.455  0.1169 -0.2605 -0.8881
 5604TIP3    H138227   3.603   2.219  14.507 -1.0282  0.3566 -1.8750
 5604TIP3    H238228   3.666   2.219  14.370 -0.7207  1.5179 -1.7387
 5605TIP3   OH238229   6.280   6.001   5.589  0.3340 -0.0067  0.1807
 5605TIP3    H138230   6.224   5.958   5.524  1.3469 -0.8727 -0.1393
 5605TIP3    H238231   6.225   6.070   5.626  0.0230  1.1078 -2.2331
 5606TIP3   OH238232   0.610   5.775   4.591 -0.5017  0.0502 -0.3315
 5606TIP3    H138233   0.660   5.745   4.667  0.8260  0.5384 -1.0089
 5606TIP3    H238234   0.527   5.805   4.628 -0.2741 -0.6722  0.8063
 5607TIP3   OH238235   3.290   3.996   6.682 -0.0295  0.7095 -0.4804
 5607TIP3    H138236   3.371   4.023   6.726  0.9044 -1.8506 -0.5763
 5607TIP3    H238237   3.231   4.072   6.691  1.7464  1.9249  1.1338
 5608TIP3   OH238238   4.110   5.682  17.004  0.3628  0.8179  0.1699
 5608TIP3    H138239   4.170   5.737  16.955 -0.0188  1.0349 -0.0583
 5608TIP3    H238240   4.055   5.640  16.937  1.6429 -1.0381  0.2328
 5609TIP3   OH238241   3.107   5.623   0.387 -0.3327  0.5173 -0.5173
 5609TIP3    H138242   3.058   5.554   0.341  0.9500 -0.0105 -1.1136
 5609TIP3    H238243   3.059   5.635   0.469 -0.9641 -0.6134 -0.7008
 5610TIP3   OH238244   0.410   4.116   5.612 -0.3189 -0.1810 -0.2180
 5610TIP3    H138245   0.492   4.083   5.649 -0.3757 -2.8657 -2.3042
 5610TIP3    H238246   0.361   4.149   5.687  1.4075 -1.2930  1.4592
 5611TIP3   OH238247   5.156   6.753   6.066  0.3008  0.3762  0.4700
 5611TIP3    H138248   5.223   6.821   6.064  0.9072 -0.2355 -0.6888
 5611TIP3    H238249   5.074   6.800   6.083  0.7246  1.3839 -0.2426
 5612TIP3   OH238250   5.809   4.471   1.013 -0.2575  0.4246 -0.3177
 5612TIP3    H138251   5.719   4.438   1.016 -0.7158  1.7152  0.3390
 5612TIP3    H238252   5.863   4.393   1.002 -1.4069 -0.4335  0.0962
 5613TIP3   OH238253   1.106   0.611  13.538  0.0366  0.4710 -0.2915
 5613TIP3    H138254   1.163   0.637  13.466  0.1460  1.2686  0.0837
 5613TIP3    H238255   1.145   0.651  13.615 -0.8826  0.8027  0.0046
 5614TIP3   OH238256   6.676   5.446  14.315  0.2501  0.6483 -0.2419
 5614TIP3    H138257   6.686   5.416  14.406  0.0599 -1.3496 -0.8713
 5614TIP3    H238258   6.765   5.472  14.289  0.4137  0.6658  0.3150
 5615TIP3   OH238259   6.770   3.585   6.145 -0.4081 -0.1686  0.0011
 5615TIP3    H138260   6.850   3.563   6.194  0.1542  0.5923 -0.5684
 5615TIP3    H238261   6.764   3.516   6.078 -0.7044 -0.7164  0.5856
 5616TIP3   OH238262   2.261   0.151  14.065 -0.3571  0.0863  0.4089
 5616TIP3    H138263   2.210   0.095  14.123 -0.4963  0.0409  0.2417
 5616TIP3    H238264   2.215   0.234  14.063 -1.8174 -0.7157 -1.6910
 5617TIP3   OH238265   4.554   4.133   4.164 -0.0681  0.3638  0.4512
 5617TIP3    H138266   4.545   4.228   4.172  0.6973  0.4972 -0.2025
 5617TIP3    H238267   4.628   4.121   4.105  0.3454 -0.6511  1.1614
 5618TIP3   OH238268   6.428   2.359   1.314 -0.1458  0.1904  0.0325
 5618TIP3    H138269   6.502   2.420   1.316 -0.6844  0.8545 -0.1925
 5618TIP3    H238270   6.413   2.337   1.406 -0.0337  0.5018  0.1263
 5619TIP3   OH238271   3.969   1.251  14.390  0.4735 -0.0212 -0.5585
 5619TIP3    H138272   3.994   1.226  14.479 -0.4046  2.0928  0.2969
 5619TIP3    H238273   4.046   1.295  14.355  1.5508 -2.6432 -1.6000
 5620TIP3   OH238274   5.733   0.048  15.747 -0.0090  0.1208 -0.7599
 5620TIP3    H138275   5.701  -0.022  15.689  1.9298 -0.2731 -1.3717
 5620TIP3    H238276   5.759   0.118  15.688  0.1702  0.4759 -0.2607
 5621TIP3   OH238277   2.610   6.331   4.528 -0.1829 -0.5241  0.1278
 5621TIP3    H138278   2.698   6.327   4.490 -0.2964  0.0499 -0.1993
 5621TIP3    H238279   2.625   6.335   4.622  0.1112 -1.5669  0.1384
 5622TIP3   OH238280   2.543   6.753   0.228  0.1582 -0.4573 -0.2137
 5622TIP3    H138281   2.540   6.675   0.284 -0.1506 -0.8709 -0.7936
 5622TIP3    H238282   2.600   6.814   0.274 -0.5344 -0.5729  0.8224
 5623TIP3   OH238283   0.709   2.555  14.089  0.2144  0.2184 -0.4382
 5623TIP3    H138284   0.766   2.506  14.149  0.2258  0.2881 -0.3921
 5623TIP3    H238285   0.670   2.623  14.144 -2.4833 -1.8505  0.3129
 5624TIP3   OH238286   4.262   0.201   0.264 -0.2329 -0.1371 -0.8481
 5624TIP3    H138287   4.200   0.128   0.260 -1.6370  0.9740  0.0960
 5624TIP3    H238288   4.215   0.274   0.223 -1.3187  1.9285  3.7849
 5625TIP3   OH238289   2.491   3.634   1.359 -0.1295 -0.3346 -0.0748
 5625TIP3    H138290   2.442   3.714   1.340  0.2230 -0.0989  0.0130
 5625TIP3    H238291   2.447   3.597   1.436 -0.6979 -0.5696 -0.5088
 5626TIP3   OH238292   5.082   5.783   2.962  0.1835  0.1437 -0.3241
 5626TIP3    H138293   5.138   5.705   2.967 -1.2788 -0.9634 -1.0488
 5626TIP3    H238294   5.090   5.813   2.872 -0.3763 -0.0102 -0.4273
 5627TIP3   OH238295   4.853   5.893   1.837  0.0608 -0.3215  0.0023
 5627TIP3    H138296   4.867   5.814   1.785 -1.0939  0.3436 -1.3427
 5627TIP3    H238297   4.779   5.872   1.894 -0.2226 -0.2220 -0.3293
 5628TIP3   OH238298   0.223   0.728  15.402 -0.0712  0.2046  0.4125
 5628TIP3    H138299   0.155   0.777  15.357  0.9230  0.3313 -0.9735
 5628TIP3    H238300   0.239   0.652  15.346 -1.1032 -1.3545  2.1800
 5629TIP3   OH238301   2.375   1.774   0.647  0.3998  0.4932  0.2580
 5629TIP3    H138302   2.333   1.830   0.712  1.3722 -0.1572  1.4586
 5629TIP3    H238303   2.425   1.835   0.592  1.5015  0.8122  1.5952
 5630TIP3   OH238304   6.603   4.223   2.273  0.3200 -0.0975  0.1126
 5630TIP3    H138305   6.559   4.144   2.240  0.3802  0.3125 -0.9909
 5630TIP3    H238306   6.602   4.214   2.368 -1.1202 -0.6538  0.0576
 5631TIP3   OH238307   2.020   2.753  10.463  0.4396  0.0330 -0.3012
 5631TIP3    H138308   2.062   2.667  10.464 -0.6679 -0.5240 -0.6001
 5631TIP3    H238309   2.092   2.816  10.462  1.2566 -0.9082 -0.9339
 5632TIP3   OH238310   6.449   6.674  15.890 -0.3046  0.0469  0.3532
 5632TIP3    H138311   6.514   6.732  15.851  0.3077  0.3450  1.8013
 5632TIP3    H238312   6.386   6.658  15.819  1.3011 -0.2174 -1.0401
 5633TIP3   OH238313   6.579   3.293   1.529 -0.5201 -0.6029 -0.2261
 5633TIP3    H138314   6.619   3.356   1.469 -0.1364 -0.4979  0.1338
 5633TIP3    H238315   6.651   3.235   1.554 -0.3631  0.1684  1.1707
 5634TIP3   OH238316   0.742   2.626   6.674  0.1670  0.0074  0.1205
 5634TIP3    H138317   0.679   2.626   6.602  0.1528 -0.8803  0.1217
 5634TIP3    H238318   0.715   2.553   6.730 -0.8075  1.6740  1.9159
 5635TIP3   OH238319   3.400   3.073   1.768 -0.4087  0.4911 -0.0979
 5635TIP3    H138320   3.378   2.980   1.771  2.2375 -0.1906 -0.6010
 5635TIP3    H238321   3.424   3.095   1.858  0.3095  0.3112 -0.2370
 5636TIP3   OH238322   3.040   0.627  14.519 -0.0048  0.1022  0.3078
 5636TIP3    H138323   3.052   0.568  14.593  0.0565  0.3040  0.4570
 5636TIP3    H238324   2.945   0.632  14.507 -0.0126  0.0335  0.3409
 5637TIP3   OH238325   6.619   2.202  12.918  0.0779  0.3943 -0.3225
 5637TIP3    H138326   6.678   2.157  12.857 -0.6228  1.9044 -2.1661
 5637TIP3    H238327   6.667   2.282  12.942  0.4395 -0.2791  1.3313
 5638TIP3   OH238328   4.823   2.849  14.064 -0.1407  0.2304 -0.0468
 5638TIP3    H138329   4.853   2.804  14.143 -0.1368 -0.3173 -0.3563
 5638TIP3    H238330   4.903   2.883  14.025 -0.2103  1.0521  0.5168
 5639TIP3   OH238331   6.077   5.211   1.659  0.9831  0.4717  0.0397
 5639TIP3    H138332   6.029   5.276   1.608 -0.4066 -1.1890 -0.8109
 5639TIP3    H238333   6.143   5.177   1.599 -0.2419 -1.0296 -0.4828
 5640TIP3   OH238334   2.999   0.423   5.902 -0.2127  0.1002 -0.5297
 5640TIP3    H138335   3.094   0.425   5.886  0.0007  1.6844  0.8424
 5640TIP3    H238336   2.978   0.511   5.931 -1.8687 -0.6602  0.6162
 5641TIP3   OH238337   0.104   6.156   0.507  0.0223  0.4697 -0.2599
 5641TIP3    H138338   0.083   6.074   0.552 -1.3411  1.4352  0.8908
 5641TIP3    H238339   0.112   6.131   0.415  0.9484 -1.1893  0.2646
 5642TIP3   OH238340   5.670   1.207  13.880  0.2699 -0.1137  0.0703
 5642TIP3    H138341   5.725   1.243  13.949  0.2713 -1.3484  0.7329
 5642TIP3    H238342   5.595   1.266  13.874  0.8923  0.6959  0.2568
 5643TIP3   OH238343   2.105   6.160   5.553  0.7502 -0.0579 -0.3794
 5643TIP3    H138344   2.023   6.110   5.546  1.6249 -1.5684 -0.0539
 5643TIP3    H238345   2.084   6.233   5.611  0.1012 -1.4443  1.1618
 5644TIP3   OH238346   6.581   4.742  11.701 -0.2880 -0.4983 -0.1726
 5644TIP3    H138347   6.629   4.747  11.783  0.4771 -0.8855 -0.5908
 5644TIP3    H238348   6.628   4.676  11.650 -0.9930 -0.5437 -0.7625
 5645TIP3   OH238349   1.372   1.507  16.785  0.2078 -0.1380 -0.0773
 5645TIP3    H138350   1.450   1.553  16.816 -0.2654 -0.4681  1.6725
 5645TIP3    H238351   1.301   1.571  16.795 -0.8885 -1.9032  4.6733
 5646TIP3   OH238352   0.340   4.724  15.402 -0.1689  0.3862 -0.1242
 5646TIP3    H138353   0.405   4.738  15.471 -1.9441 -0.6875  1.8430
 5646TIP3    H238354   0.316   4.812  15.373  1.4602  0.8039 -0.2050
 5647TIP3   OH238355   2.048   4.090  13.509  0.2094  0.2268 -0.6255
 5647TIP3    H138356   2.119   4.105  13.572  1.0140 -0.6318 -1.2992
 5647TIP3    H238357   1.989   4.029  13.554  0.6571 -0.1900 -0.5875
 5648TIP3   OH238358   1.109   1.183   4.098 -0.2163  0.2924 -0.1935
 5648TIP3    H138359   1.174   1.213   4.161 -1.4059  0.2950  1.0480
 5648TIP3    H238360   1.112   1.088   4.103  1.0326  0.2491 -1.5334
 5649TIP3   OH238361   2.703   0.172  12.253  0.2162 -0.0577 -0.6108
 5649TIP3    H138362   2.736   0.261  12.266  0.9726 -0.3527 -0.4312
 5649TIP3    H238363   2.608   0.180  12.257  0.2594  0.8598 -1.3716
 5650TIP3   OH238364   4.229   2.875  11.689 -0.3990 -0.1680  0.4094
 5650TIP3    H138365   4.215   2.969  11.698 -1.6572 -0.2087 -0.9312
 5650TIP3    H238366   4.257   2.846  11.776 -1.0123  1.2654  1.0934
 5651TIP3   OH238367   2.554   0.861   6.010 -0.5384 -0.4028 -0.3642
 5651TIP3    H138368   2.545   0.776   6.053 -0.6373 -1.0308 -1.5942
 5651TIP3    H238369   2.648   0.868   5.990 -0.5819 -0.3707 -0.5578
 5652TIP3   OH238370   0.436   1.145   3.494  0.0835  0.4410  0.1221
 5652TIP3    H138371   0.518   1.145   3.445 -0.4535  0.5152 -0.7676
 5652TIP3    H238372   0.390   1.224   3.465 -0.5977  0.0500  0.1321
 5653TIP3   OH238373   1.603   5.989  15.179 -0.4751 -0.1567  0.4546
 5653TIP3    H138374   1.571   5.995  15.089  0.1241  0.5524  0.2806
 5653TIP3    H238375   1.697   5.973  15.170 -0.0979  1.6063  0.9289
 5654TIP3   OH238376   2.103   0.698   2.659 -0.2295  0.1813  0.0455
 5654TIP3    H138377   2.083   0.728   2.747  1.4535  1.2807  0.0963
 5654TIP3    H238378   2.192   0.732   2.642 -1.6568  2.6494 -3.1823
 5655TIP3   OH238379   5.477   3.301   2.225 -0.5863  0.1011 -0.1662
 5655TIP3    H138380   5.534   3.225   2.240  0.4846  0.8231 -0.5626
 5655TIP3    H238381   5.390   3.263   2.212  0.0307 -1.1052 -0.8735
 5656TIP3   OH238382   0.783   6.384   0.913  0.7794 -0.1263  0.2185
 5656TIP3    H138383   0.725   6.455   0.942 -0.9462 -0.6889 -1.6929
 5656TIP3    H238384   0.869   6.424   0.904  0.3137  1.1627  1.4361
 5657TIP3   OH238385   0.122   5.622  13.608  0.1032  0.0531  0.1244
 5657TIP3    H138386   0.119   5.531  13.640 -1.4129 -0.3168 -0.9788
 5657TIP3    H238387   0.141   5.613  13.514 -0.3392  0.8554 -0.0453
 5658TIP3   OH238388   2.164   5.448  13.528  0.4954 -0.1008  0.1232
 5658TIP3    H138389   2.115   5.375  13.568 -1.1116 -0.1750 -1.9109
 5658TIP3    H238390   2.254   5.417  13.525  0.2703 -0.9629  1.6764
 5659TIP3   OH238391   1.149   6.111   4.423 -0.2540 -0.9210 -0.1074
 5659TIP3    H138392   1.158   6.186   4.364  1.6818 -1.8551 -1.0649
 5659TIP3    H238393   1.206   6.132   4.497 -3.3690  0.6611  1.9646
 5660TIP3   OH238394   3.164   5.785   3.862  0.3937  0.4176 -0.2461
 5660TIP3    H138395   3.072   5.812   3.853  0.1756  0.0612  0.9170
 5660TIP3    H238396   3.213   5.867   3.856 -0.0397  0.6807 -0.2410
 5661TIP3   OH238397   4.244   6.378  11.938 -0.3852 -0.4814 -0.2212
 5661TIP3    H138398   4.181   6.307  11.931 -0.5783 -0.1922 -1.6125
 5661TIP3    H238399   4.191   6.458  11.940 -0.1767 -0.3611  1.3888
 5662TIP3   OH238400   0.498   1.899   3.121 -0.1131 -0.4858  0.1623
 5662TIP3    H138401   0.437   1.878   3.050  1.1951 -0.1327 -1.0961
 5662TIP3    H238402   0.583   1.909   3.077  0.3657  1.6808  1.4873
 5663TIP3   OH238403   2.131   6.719   0.879 -0.2743  0.1158  0.5749
 5663TIP3    H138404   2.208   6.663   0.873  0.2378  0.9584 -0.8903
 5663TIP3    H238405   2.057   6.658   0.885  0.3425 -0.7233 -0.2162
 5664TIP3   OH238406   0.900   0.079  13.607  0.3752 -0.6482  0.0907
 5664TIP3    H138407   0.950  -0.002  13.613  1.3734 -0.1142 -1.0192
 5664TIP3    H238408   0.819   0.054  13.561  0.5022 -1.0943  0.1099
 5665TIP3   OH238409   3.399   6.773   5.362  0.2584 -0.3268 -0.4496
 5665TIP3    H138410   3.371   6.857   5.398  1.6983  0.0637 -0.2293
 5665TIP3    H238411   3.424   6.721   5.438 -3.2167 -1.9716 -0.3298
 5666TIP3   OH238412   0.513   5.316  15.209  0.5108  0.1976 -0.1125
 5666TIP3    H138413   0.565   5.236  15.202 -0.4782 -0.3734 -1.2529
 5666TIP3    H238414   0.436   5.290  15.259  0.0047  0.3145 -0.8114
 5667TIP3   OH238415   6.573   1.292   5.328  0.2998 -0.0527 -0.4865
 5667TIP3    H138416   6.584   1.387   5.323  3.4225 -0.3357  0.2344
 5667TIP3    H238417   6.503   1.280   5.392  0.3162  1.7308 -0.0916
 5668TIP3   OH238418   1.440   0.681   1.205  0.4845  0.1049 -0.6107
 5668TIP3    H138419   1.523   0.649   1.241  0.4098  0.1705 -0.3810
 5668TIP3    H238420   1.441   0.775   1.224  0.4116  0.1273 -0.7157
 5669TIP3   OH238421   4.748   3.030  15.364 -0.8457 -0.0725 -0.3407
 5669TIP3    H138422   4.660   3.040  15.330 -0.6634  1.3486 -0.4371
 5669TIP3    H238423   4.780   2.948  15.327 -1.8160 -0.1622 -0.9747
 5670TIP3   OH238424   3.094   3.252   3.543  0.3379  0.1793 -0.2298
 5670TIP3    H138425   3.080   3.250   3.638  3.5485  0.1697  0.2937
 5670TIP3    H238426   3.073   3.163   3.514  1.5860 -0.4893  0.8505
 5671TIP3   OH238427   6.039   4.543  14.957 -0.5910 -0.0249  0.1301
 5671TIP3    H138428   6.067   4.547  14.865  0.4602  2.0577  0.5324
 5671TIP3    H238429   6.090   4.472  14.994 -2.1935 -1.9891 -1.2614
 5672TIP3   OH238430   2.711   0.628  10.832 -0.1159 -0.2809 -0.1961
 5672TIP3    H138431   2.794   0.641  10.787  0.2467  0.1525  0.5675
 5672TIP3    H238432   2.728   0.559  10.896 -0.4426 -0.4369 -0.2717
 5673TIP3   OH238433   3.851   0.594   6.016 -0.1498  0.7382  0.0838
 5673TIP3    H138434   3.868   0.602   6.110 -0.7350  1.8166  0.1032
 5673TIP3    H238435   3.814   0.506   6.007  1.4961 -0.0201  0.6095
 5674TIP3   OH238436   5.797   0.519  10.947 -0.5045  0.2909 -0.0382
 5674TIP3    H138437   5.857   0.506  11.020 -0.3669  2.0761  0.1704
 5674TIP3    H238438   5.711   0.532  10.988 -0.6487  0.0480 -0.2528
 5675TIP3   OH238439   4.045   6.683  13.008 -0.2613 -0.1596 -0.2445
 5675TIP3    H138440   4.140   6.672  13.014 -0.2546 -1.5975 -2.5467
 5675TIP3    H238441   4.009   6.603  13.045 -0.6267  0.7486  1.4213
 5676TIP3   OH238442   3.763   1.876  14.261  0.4245  0.7318  0.0325
 5676TIP3    H138443   3.791   1.832  14.181 -2.1525 -0.7456 -0.1185
 5676TIP3    H238444   3.788   1.815  14.331  0.8999  1.1055  0.1878
 5677TIP3   OH238445   5.150   1.205  12.086 -0.1387 -0.1997  0.2295
 5677TIP3    H138446   5.108   1.183  12.169 -0.0393  0.5312  0.4737
 5677TIP3    H238447   5.148   1.123  12.036 -0.9683 -0.4246  0.6195
 5678TIP3   OH238448   5.417   5.519  15.482 -0.1518  0.1631  0.3669
 5678TIP3    H138449   5.412   5.560  15.396  1.2813 -0.0146  0.1874
 5678TIP3    H238450   5.346   5.559  15.532 -1.5633 -0.3910 -1.1681
 5679TIP3   OH238451   2.367   6.425   2.786 -0.5148  0.6285 -0.1956
 5679TIP3    H138452   2.318   6.370   2.848 -0.8439  1.2425  0.0949
 5679TIP3    H238453   2.311   6.431   2.709 -0.3030  0.2272 -0.3772
 5680TIP3   OH238454   2.054   1.788   6.124 -0.1670 -0.1530 -0.5459
 5680TIP3    H138455   2.000   1.745   6.191  0.8765 -1.2139 -0.3842
 5680TIP3    H238456   2.113   1.845   6.174 -0.9943  0.8715 -0.7140
 5681TIP3   OH238457   1.647   4.010   2.471  0.1947 -0.0619 -0.4433
 5681TIP3    H138458   1.603   3.979   2.551  0.8866  0.3943  0.1195
 5681TIP3    H238459   1.580   4.060   2.425 -0.2417 -0.4101 -0.1991
 5682TIP3   OH238460   5.095   0.017  13.279 -0.3782  0.3462 -0.1354
 5682TIP3    H138461   5.036   0.027  13.354 -1.3157 -0.9349 -0.6947
 5682TIP3    H238462   5.158  -0.049  13.307 -0.5716  0.0597 -0.3755
 5683TIP3   OH238463   1.114   1.436  15.054  0.3860 -0.2623 -0.5355
 5683TIP3    H138464   1.181   1.450  15.121  0.7587 -2.5414 -0.4033
 5683TIP3    H238465   1.144   1.360  15.005 -0.1073  1.0960 -3.0400
 5684TIP3   OH238466   4.352   4.779   4.695  0.2980 -0.6262 -0.1102
 5684TIP3    H138467   4.369   4.690   4.725  0.8898 -0.0596  1.3209
 5684TIP3    H238468   4.353   4.831   4.776 -1.3321  0.4814 -0.7856
 5685TIP3   OH238469   2.206   1.460   4.020 -0.1761  0.0360  0.4072
 5685TIP3    H138470   2.250   1.400   3.959  0.2240  0.5278  0.2056
 5685TIP3    H238471   2.120   1.474   3.981  1.1427  2.7684 -1.7131
 5686TIP3   OH238472   0.458   2.453  11.703 -0.7234  0.3337 -0.1844
 5686TIP3    H138473   0.390   2.443  11.769 -0.4854 -1.4049 -0.1766
 5686TIP3    H238474   0.535   2.410  11.740 -0.7075 -1.0620 -1.7690
 5687TIP3   OH238475   2.951   5.050  14.831  0.4768 -0.5492 -0.5096
 5687TIP3    H138476   2.992   5.106  14.766  1.7748 -3.5725 -2.4186
 5687TIP3    H238477   2.878   5.008  14.786 -0.2666 -0.6848  0.7714
 5688TIP3   OH238478   5.540   5.406  11.998 -0.4024 -0.6316 -0.0642
 5688TIP3    H138479   5.595   5.327  11.998 -2.9384 -2.4455 -1.4636
 5688TIP3    H238480   5.467   5.384  12.056  0.7076  2.1048  2.5155
 5689TIP3   OH238481   5.838   5.571   0.749 -0.2587 -0.3540  0.2155
 5689TIP3    H138482   5.786   5.604   0.675 -0.5033 -1.0947  0.0447
 5689TIP3    H238483   5.899   5.642   0.770 -0.4536  0.0135 -0.4460
 5690TIP3   OH238484   5.632   4.130  15.829 -0.1103 -0.7685  0.0217
 5690TIP3    H138485   5.631   4.066  15.900  0.2413  0.4547  1.1609
 5690TIP3    H238486   5.724   4.144  15.810 -0.2187 -1.7066 -1.2680
 5691TIP3   OH238487   1.000   0.194  11.446  0.3459 -0.0652  0.3410
 5691TIP3    H138488   0.996   0.099  11.448  2.5757 -0.1643  1.9634
 5691TIP3    H238489   0.990   0.221  11.537  1.7086  1.1211  0.1686
 5692TIP3   OH238490   6.145   0.045   1.844 -0.1796  0.4210 -0.2200
 5692TIP3    H138491   6.067   0.051   1.900  0.5258 -1.0148  0.9495
 5692TIP3    H238492   6.155  -0.049   1.829  2.1427  0.4927  0.7889
 5693TIP3   OH238493   1.759   5.153   2.334 -0.6471 -0.4637  0.1513
 5693TIP3    H138494   1.730   5.075   2.287 -0.7110 -1.0174  1.0823
 5693TIP3    H238495   1.678   5.201   2.351 -0.7774 -0.8888  0.7754
 5694TIP3   OH238496   3.251   5.635  13.034  0.0503  0.5643 -0.4964
 5694TIP3    H138497   3.197   5.646  12.956  0.3270  1.5279 -0.5633
 5694TIP3    H238498   3.215   5.558  13.078  0.5573 -0.6026 -2.1108
 5695TIP3   OH238499   2.881   6.369   1.385 -0.2015 -0.1095  0.0805
 5695TIP3    H138500   2.932   6.424   1.444  0.9567 -1.2565  0.1735
 5695TIP3    H238501   2.865   6.289   1.435 -1.7573  0.0623 -0.0978
 5696TIP3   OH238502   5.099   0.820  16.681  0.9869  0.3479 -0.0134
 5696TIP3    H138503   5.070   0.745  16.733  1.2830 -2.2662 -3.4657
 5696TIP3    H238504   5.027   0.883  16.688 -2.2212 -2.8611 -2.0752
 5697TIP3   OH238505   1.605   3.966   5.586 -0.1833 -0.7229 -0.1225
 5697TIP3    H138506   1.640   3.878   5.570 -1.4862 -1.1476 -0.7164
 5697TIP3    H238507   1.534   3.952   5.648  1.1335  0.2199  1.6140
 5698TIP3   OH238508   5.262   1.274   6.116  0.5123  0.0319 -0.1252
 5698TIP3    H138509   5.321   1.198   6.121  1.2146  0.5693 -0.0632
 5698TIP3    H238510   5.241   1.294   6.207  1.5794  0.8612 -0.0525
 5699TIP3   OH238511   3.034   4.868   0.400  0.1946 -0.6662  0.1350
 5699TIP3    H138512   3.073   4.844   0.316 -3.5163 -1.1934 -1.5462
 5699TIP3    H238513   3.068   4.956   0.418  0.3572 -0.1815 -2.3833
 5700TIP3   OH238514   4.194   6.256  12.201  0.4378 -0.1513  0.2213
 5700TIP3    H138515   4.169   6.177  12.249  2.1015 -0.7186  0.1971
 5700TIP3    H238516   4.271   6.230  12.150  0.7356  1.3646 -0.1399
 5701TIP3   OH238517   2.856   1.052   5.060 -0.2549  0.1643 -0.1925
 5701TIP3    H138518   2.843   1.031   5.152  3.3238 -0.1633  0.3095
 5701TIP3    H238519   2.833   0.971   5.013  2.2700 -1.1736  0.8101
 5702TIP3   OH238520   3.859   4.879  11.389  0.1532  0.4622 -0.0480
 5702TIP3    H138521   3.804   4.822  11.336  0.2548  0.6372 -0.3408
 5702TIP3    H238522   3.834   4.968  11.363 -0.3608  0.5619  0.7649
 5703TIP3   OH238523   5.944   4.717   5.659 -0.0295 -0.0940  0.5820
 5703TIP3    H138524   5.917   4.747   5.746 -1.5216  0.2349  0.0300
 5703TIP3    H238525   6.028   4.758   5.644 -2.2776  4.4297 -0.3945
 5704TIP3   OH238526   0.788   4.846   2.481  0.2544  0.5465 -0.5207
 5704TIP3    H138527   0.716   4.784   2.466  1.1967 -1.4473  2.8177
 5704TIP3    H238528   0.745   4.926   2.511 -0.5927 -0.7636  1.8566
 5705TIP3   OH238529   5.054   3.459   2.842  0.1179 -0.3129  0.6817
 5705TIP3    H138530   5.005   3.522   2.896  0.3921  0.7730 -0.3163
 5705TIP3    H238531   4.990   3.390   2.822 -0.7021  0.5488  0.3041
 5706TIP3   OH238532   4.745   3.571   5.075 -0.1403 -0.2152  0.0589
 5706TIP3    H138533   4.755   3.506   5.144 -0.8597 -0.8284 -0.4052
 5706TIP3    H238534   4.657   3.606   5.089 -0.2252 -0.2293 -0.4490
 5707TIP3   OH238535   3.491   0.611  16.089  0.0772 -0.5350 -0.3059
 5707TIP3    H138536   3.467   0.520  16.070 -0.0652 -0.7745  0.9776
 5707TIP3    H238537   3.561   0.604  16.154 -0.9548  0.2809  0.9330
 5708TIP3   OH238538   1.412   2.813  11.578 -0.1119 -0.3178  0.3190
 5708TIP3    H138539   1.365   2.881  11.628  2.0769  0.6679  1.1046
 5708TIP3    H238540   1.404   2.734  11.632  1.3443  0.4886  1.7694
 5709TIP3   OH238541   4.193   0.245  13.440  0.2123 -0.1224  0.0559
 5709TIP3    H138542   4.261   0.300  13.401 -0.5896  0.7559 -0.1139
 5709TIP3    H238543   4.241   0.182  13.494  1.1159  0.9758  0.5452
 5710TIP3   OH238544   3.754   1.700  15.195  0.2919 -0.3663  0.4691
 5710TIP3    H138545   3.850   1.707  15.196  0.2409  0.5175 -0.3638
 5710TIP3    H238546   3.737   1.609  15.171  0.9235 -0.3345 -0.1230
 5711TIP3   OH238547   3.585   1.378  14.786  0.8517  0.2418 -0.6658
 5711TIP3    H138548   3.658   1.428  14.751  1.9189 -0.9498 -0.1916
 5711TIP3    H238549   3.610   1.287  14.773  0.1633 -0.1952  0.9214
 5712TIP3   OH238550   2.797   1.046   3.877 -0.3898  0.0644 -0.2693
 5712TIP3    H138551   2.823   1.124   3.925  1.9695 -1.3951  0.9359
 5712TIP3    H238552   2.716   1.018   3.918 -1.0026  1.5915 -0.4088
 5713TIP3   OH238553   6.733   5.575  13.867  0.0588 -0.5446  0.8286
 5713TIP3    H138554   6.816   5.603  13.829  0.6051 -1.7697  1.1168
 5713TIP3    H238555   6.752   5.492  13.909 -1.4511 -1.1165  0.4173
 5714TIP3   OH238556   1.203   2.015  14.932 -0.1470  0.2208 -0.3141
 5714TIP3    H138557   1.187   2.020  14.838  1.0190  0.6398 -0.4924
 5714TIP3    H238558   1.125   2.055  14.972  0.1146  1.6028 -1.1522
 5715TIP3   OH238559   1.935   5.451   5.236 -0.1251  0.6774 -0.0699
 5715TIP3    H138560   1.874   5.384   5.269 -0.1904  0.2319 -1.0699
 5715TIP3    H238561   1.951   5.425   5.145  0.2253  1.7608 -0.3178
 5716TIP3   OH238562   3.963   2.894  13.565 -0.8377  0.3741  0.2939
 5716TIP3    H138563   3.974   2.972  13.511  2.0104 -1.1224 -1.4204
 5716TIP3    H238564   3.903   2.839  13.516 -2.2156  1.1324  1.1148
 5717TIP3   OH238565   0.096   4.410  11.165 -0.2764  0.2086 -0.2165
 5717TIP3    H138566   0.178   4.448  11.134 -0.3643 -0.5794 -1.4428
 5717TIP3    H238567   0.034   4.427  11.094 -0.7369 -0.7074 -0.0390
 5718TIP3   OH238568   2.257   5.906  11.473 -1.3122  0.0711  0.0452
 5718TIP3    H138569   2.185   5.967  11.460 -1.0948  0.1303 -0.9604
 5718TIP3    H238570   2.249   5.845  11.400  0.9616  1.3689 -1.3220
 5719TIP3   OH238571   3.558   4.414  12.940 -0.2438 -0.0088 -0.6726
 5719TIP3    H138572   3.588   4.425  12.850 -0.9708 -0.0834 -0.9215
 5719TIP3    H238573   3.519   4.498  12.963  1.6056  0.6466  0.2112
 5720TIP3   OH238574   1.533   1.565  17.170 -0.0928 -0.1125  0.0399
 5720TIP3    H138575   1.502   1.478  17.147 -2.2313  0.4492  0.6716
 5720TIP3    H238576   1.475   1.625  17.123  0.9911  0.9940  0.0596
 5721TIP3   OH238577   6.738   6.521   0.406  0.7163 -0.0005  0.2003
 5721TIP3    H138578   6.812   6.493   0.459  0.5561  1.6415  1.3434
 5721TIP3    H238579   6.669   6.541   0.470  0.1764  1.0040 -0.6730
 5722TIP3   OH238580   6.673   1.367   4.848 -0.4545 -0.5071 -0.3107
 5722TIP3    H138581   6.652   1.286   4.894 -0.0732  0.1717  1.0839
 5722TIP3    H238582   6.768   1.369   4.846 -0.4391  0.6078  0.9555
 5723TIP3   OH238583   0.061   2.491   0.975  0.4668 -0.3362 -0.5718
 5723TIP3    H138584   0.143   2.457   1.013  0.6932 -0.8646 -1.5265
 5723TIP3    H238585   0.055   2.580   1.008  0.8949 -0.6410  0.3502
 5724TIP3   OH238586   1.895   1.656  14.299 -0.5509  0.7723 -0.5738
 5724TIP3    H138587   1.962   1.599  14.336 -0.3581  0.9491 -0.6474
 5724TIP3    H238588   1.813   1.625  14.338 -0.5197  0.0994 -1.0365
 5725TIP3   OH238589   2.769   1.006  13.515  0.0061  0.0312 -0.0755
 5725TIP3    H138590   2.856   0.967  13.525 -0.1147 -0.4090 -0.6433
 5725TIP3    H238591   2.776   1.060  13.436 -0.0543  0.5072  0.2476
 5726TIP3   OH238592   2.803   6.261  10.554 -0.5370  0.0561 -0.6241
 5726TIP3    H138593   2.771   6.346  10.523 -0.0640  0.6933  0.5790
 5726TIP3    H238594   2.723   6.209  10.567 -1.1823  1.6418  2.3630
 5727TIP3   OH238595   1.920   0.077  16.290  0.1309  0.5004 -0.3311
 5727TIP3    H138596   1.961   0.091  16.204  0.9033 -3.1870 -0.6412
 5727TIP3    H238597   1.991   0.095  16.352  0.4710  0.1153 -0.6026
 5728TIP3   OH238598   5.153   2.728   2.980 -0.7278 -0.3485  0.0533
 5728TIP3    H138599   5.196   2.810   3.004 -0.7941 -0.3863  0.3094
 5728TIP3    H238600   5.146   2.731   2.885 -1.4911  0.3228  0.1236
 5729TIP3   OH238601   3.900   3.726   6.048 -0.1494 -0.4111  0.8600
 5729TIP3    H138602   3.955   3.804   6.050 -1.3296  0.5016 -1.3198
 5729TIP3    H238603   3.886   3.705   6.141  1.1586  1.2366  1.4715
 5730TIP3   OH238604   5.293   4.169  14.028 -0.2644  0.3653 -0.4508
 5730TIP3    H138605   5.222   4.225  13.996 -1.1523 -0.7669 -0.4835
 5730TIP3    H238606   5.248   4.092  14.065  0.9221 -0.1264 -0.0230
 5731TIP3   OH238607   0.772   3.220   0.065  0.1088  0.3337  0.3115
 5731TIP3    H138608   0.754   3.185   0.152 -1.8163 -0.1846 -0.2666
 5731TIP3    H238609   0.763   3.144   0.007 -0.4042  1.0276 -0.5259
 5732TIP3   OH238610   4.195   2.929   0.266 -0.3511 -0.4168  0.6284
 5732TIP3    H138611   4.271   2.894   0.219 -0.0004  0.1901  0.7489
 5732TIP3    H238612   4.122   2.875   0.236  0.0418 -0.6782  0.1358
 5733TIP3   OH238613   4.449   3.289   3.241  0.1093 -0.2988 -0.2739
 5733TIP3    H138614   4.423   3.325   3.326 -0.7513  1.0081 -1.0844
 5733TIP3    H238615   4.487   3.363   3.194  2.0407 -1.3727 -0.4552
 5734TIP3   OH238616   5.993   6.330  14.723 -0.3104  0.0018 -0.0082
 5734TIP3    H138617   5.988   6.241  14.687 -1.9488  0.2247 -0.3672
 5734TIP3    H238618   5.944   6.326  14.805 -0.3488  0.5681 -0.0019
 5735TIP3   OH238619   3.080   1.508  17.125 -0.1988  0.0655 -0.2994
 5735TIP3    H138620   3.044   1.561  17.054 -0.3859  0.3834  0.0313
 5735TIP3    H238621   3.032   1.536  17.202 -0.7989 -1.1088 -0.2435
 5736TIP3   OH238622   1.989   5.524  12.444  0.4393 -0.2932 -0.2007
 5736TIP3    H138623   1.940   5.586  12.390  1.1566  0.9936  0.5788
 5736TIP3    H238624   2.081   5.539  12.420  0.6896 -0.3799  0.6867
 5737TIP3   OH238625   0.821   3.746   2.401  0.9410 -0.1556  0.0929
 5737TIP3    H138626   0.788   3.692   2.472  0.7248  0.9383  0.8317
 5737TIP3    H238627   0.882   3.807   2.443 -0.5183  1.6718 -0.3499
 5738TIP3   OH238628   5.214   2.029  11.416 -0.0634  0.1589  0.0154
 5738TIP3    H138629   5.237   2.063  11.503  0.5467 -0.8037  0.2443
 5738TIP3    H238630   5.275   1.957  11.402 -0.2101  0.2541 -1.1896
 5739TIP3   OH238631   3.095   3.540  16.058 -0.5256 -0.3233  0.4436
 5739TIP3    H138632   3.023   3.586  16.015 -1.9229  0.2978  3.3351
 5739TIP3    H238633   3.071   3.448  16.054  0.5754 -0.5433 -2.2495
 5740TIP3   OH238634   4.563   6.778   1.432 -0.5280  0.0131 -0.4000
 5740TIP3    H138635   4.568   6.823   1.516  0.6290  4.6900 -2.8194
 5740TIP3    H238636   4.647   6.732   1.425  1.3359  3.3288 -0.8644
 5741TIP3   OH238637   2.886   2.620  13.315 -0.2911  0.3867  0.1306
 5741TIP3    H138638   2.821   2.607  13.384  0.2055  0.1903  0.5585
 5741TIP3    H238639   2.836   2.658  13.242 -0.8277  0.5270  0.5704
 5742TIP3   OH238640   2.021   2.448  13.946  0.0037  0.4665  0.1459
 5742TIP3    H138641   1.926   2.454  13.957 -0.0739  0.7530 -0.6378
 5742TIP3    H238642   2.048   2.378  14.006 -0.5151  1.3122  1.3740
 5743TIP3   OH238643   3.593   6.072  14.030  0.5411  0.1515 -0.7866
 5743TIP3    H138644   3.580   6.006  13.963 -1.6701 -2.6349  2.2341
 5743TIP3    H238645   3.683   6.059  14.060  0.3020 -1.1387 -0.6202
 5744TIP3   OH238646   0.556   0.475  15.046  0.2865 -0.1028 -0.3499
 5744TIP3    H138647   0.475   0.445  15.005 -0.3108  3.5597 -2.0417
 5744TIP3    H238648   0.625   0.449  14.986  0.0632 -0.6085 -0.3858
 5745TIP3   OH238649   2.623   4.306   5.814 -0.0177  0.7843  0.0344
 5745TIP3    H138650   2.644   4.267   5.729  2.7800  1.3404  0.4196
 5745TIP3    H238651   2.672   4.254   5.877 -0.6292  1.5230  1.1395
 5746TIP3   OH238652   4.181   2.671   5.165 -0.5339  0.0072 -0.2294
 5746TIP3    H138653   4.258   2.640   5.213 -0.8374 -1.3822 -0.6262
 5746TIP3    H238654   4.202   2.655   5.073 -1.2577 -0.2732 -0.3450
 5747TIP3   OH238655   3.654   5.278  16.000  0.3158 -0.4849  0.2578
 5747TIP3    H138656   3.656   5.336  16.076 -0.6178 -0.5593  0.3480
 5747TIP3    H238657   3.728   5.305  15.946 -0.8787  1.6954 -0.3589
 5748TIP3   OH238658   5.940   4.286   1.926 -0.3972 -0.0539 -0.3328
 5748TIP3    H138659   5.977   4.254   2.008  0.9769 -0.0854 -0.9521
 5748TIP3    H238660   5.878   4.218   1.899 -2.4422  0.9142  1.7185
 5749TIP3   OH238661   3.338   5.061  14.799  0.0389 -0.2265  0.3607
 5749TIP3    H138662   3.257   5.043  14.750 -0.0948  0.0027  0.4976
 5749TIP3    H238663   3.408   5.036  14.738 -0.1450 -1.2782  0.5755
 5750TIP3   OH238664   1.605   2.656   4.303  0.0208  0.5572 -0.0001
 5750TIP3    H138665   1.585   2.716   4.375  0.9396  0.2687  0.5122
 5750TIP3    H238666   1.673   2.701   4.252  0.5054  0.0877  0.2222
 5751TIP3   OH238667   6.550   4.743  13.204  0.2040  0.0062  0.5674
 5751TIP3    H138668   6.527   4.679  13.271  1.2040 -0.2428  0.6767
 5751TIP3    H238669   6.539   4.828  13.247  0.4928 -0.1423  0.9361
 5752TIP3   OH238670   2.105   5.420   3.923  0.1118 -0.0479  0.1579
 5752TIP3    H138671   2.178   5.379   3.969  0.3566  1.8872  1.5671
 5752TIP3    H238672   2.146   5.469   3.851 -0.1653 -2.0745 -1.4197
 5753TIP3   OH238673   5.531   1.511  14.863  0.2491  0.4029 -0.2349
 5753TIP3    H138674   5.620   1.477  14.853  1.0985  1.1682  3.7844
 5753TIP3    H238675   5.530   1.593  14.815  1.5990  0.2273 -0.5702
 5754TIP3   OH238676   2.885   6.158  14.538 -0.3369  0.4954  0.0527
 5754TIP3    H138677   2.943   6.087  14.566 -0.6361  0.8377  1.5710
 5754TIP3    H238678   2.855   6.198  14.619 -0.0835  2.4444 -0.7971
 5755TIP3   OH238679   5.367   3.113   0.124 -0.0363 -0.0839  0.4821
 5755TIP3    H138680   5.413   3.034   0.094 -0.8020 -0.2236 -0.3308
 5755TIP3    H238681   5.282   3.108   0.082 -0.4092  0.7302  1.1453
 5756TIP3   OH238682   1.328   3.484  16.048 -0.0143 -0.2223 -0.0256
 5756TIP3    H138683   1.378   3.564  16.067  0.3117 -0.1322 -1.1862
 5756TIP3    H238684   1.392   3.426  16.006  0.1327 -1.6904  2.1673
 5757TIP3   OH238685   2.005   1.750  11.502 -0.1417 -0.5231 -0.0016
 5757TIP3    H138686   2.051   1.731  11.584  0.8269 -1.0218 -0.6573
 5757TIP3    H238687   2.031   1.839  11.479 -1.2811  0.0252  0.8041
 5758TIP3   OH238688   2.099   4.733  16.888 -0.0639 -0.6839  0.0107
 5758TIP3    H138689   2.027   4.796  16.897 -1.4727 -2.4470  1.3549
 5758TIP3    H238690   2.169   4.783  16.845 -1.7471  1.3150 -0.4922
 5759TIP3   OH238691   2.058   2.591   3.767 -0.1381 -0.4130 -0.5437
 5759TIP3    H138692   2.047   2.653   3.694  3.6798 -0.8272 -1.6010
 5759TIP3    H238693   2.153   2.582   3.776 -0.5837 -3.1942  2.1228
 5760TIP3   OH238694   6.482   2.668  10.360 -0.8495  0.1580 -0.3274
 5760TIP3    H138695   6.428   2.725  10.413  0.5067  1.5612 -0.3934
 5760TIP3    H238696   6.434   2.586  10.354 -0.6993 -0.2995  3.6574
 5761TIP3   OH238697   4.236   3.007   2.904  0.5922  0.0800 -0.5996
 5761TIP3    H138698   4.240   3.099   2.880  2.2126  0.0155 -0.5987
 5761TIP3    H238699   4.257   2.960   2.824  0.8531 -0.2719 -0.3234
 5762TIP3   OH238700   5.150   0.124   3.789  0.4079  0.1188  0.2140
 5762TIP3    H138701   5.130   0.213   3.819 -2.0615 -0.8726  1.6503
 5762TIP3    H238702   5.132   0.126   3.695  2.3436  1.6479 -0.1665
 5763TIP3   OH238703   2.201   5.218   2.535 -0.3657 -0.1364  0.2994
 5763TIP3    H138704   2.133   5.254   2.478 -0.2794  0.4125  0.5352
 5763TIP3    H238705   2.261   5.292   2.550 -0.1545 -0.3941  0.7506
 5764TIP3   OH238706   4.533   6.498  12.173  0.1156  0.2889 -0.3418
 5764TIP3    H138707   4.595   6.427  12.190  1.8303  1.2169 -2.5441
 5764TIP3    H238708   4.461   6.456  12.126  0.2664 -0.3105 -0.0489
 5765TIP3   OH238709   1.645   1.382  16.513  0.1757 -0.2155  0.6181
 5765TIP3    H138710   1.698   1.411  16.438 -0.3867 -1.5925 -0.3139
 5765TIP3    H238711   1.556   1.412  16.492  0.1591  0.0739  1.1031
 5766TIP3   OH238712   5.492   2.765  13.098 -0.1826 -0.4265  0.7176
 5766TIP3    H138713   5.438   2.765  13.177 -1.5361 -0.6108 -0.1914
 5766TIP3    H238714   5.494   2.856  13.070  0.5989 -0.3039  1.1573
 5767TIP3   OH238715   4.768   0.240  15.337 -0.2044  0.0300 -0.1562
 5767TIP3    H138716   4.777   0.149  15.365 -1.4367  0.4852  1.7895
 5767TIP3    H238717   4.684   0.268  15.372 -0.2794  1.6485 -1.5569
 5768TIP3   OH238718   3.497   6.312  11.245  0.1853 -0.1061 -0.2432
 5768TIP3    H138719   3.442   6.236  11.224  1.9261 -1.2786 -0.6271
 5768TIP3    H238720   3.555   6.282  11.314  0.1785  1.2189  0.3548
 5769TIP3   OH238721   4.790   1.535  13.237 -0.9092 -0.3061  0.2406
 5769TIP3    H138722   4.847   1.587  13.293 -0.3213 -1.3112  0.5795
 5769TIP3    H238723   4.708   1.529  13.286 -0.7185 -0.3529  0.5550
 5770TIP3   OH238724   2.898   0.390   3.269  0.2204  0.4221  0.4891
 5770TIP3    H138725   2.939   0.472   3.241  1.7909 -0.4247  0.2577
 5770TIP3    H238726   2.877   0.404   3.361  1.1697  0.8386  0.6525
 5771TIP3   OH238727   4.994   2.342  12.057 -0.1618  1.2031 -0.2713
 5771TIP3    H138728   4.941   2.404  12.107  1.2207  2.3067 -0.1298
 5771TIP3    H238729   5.077   2.387  12.044  0.1592  0.1719 -1.9397
 5772TIP3   OH238730   3.897   2.864   0.540 -0.0382 -0.2038 -0.1499
 5772TIP3    H138731   3.973   2.855   0.598  1.0005 -1.3380 -1.6580
 5772TIP3    H238732   3.918   2.938   0.484  0.4287 -1.1646 -1.2589
 5773TIP3   OH238733   4.022   0.148   0.463  0.1191  0.0846  0.2770
 5773TIP3    H138734   4.027   0.211   0.391 -2.8529 -0.2051 -0.2724
 5773TIP3    H238735   3.977   0.072   0.426  1.5309 -1.4211  1.5668
 5774TIP3   OH238736   2.622   1.421  16.405 -0.0078  0.0838  0.3404
 5774TIP3    H138737   2.534   1.397  16.432 -0.0119 -0.7944 -0.4361
 5774TIP3    H238738   2.668   1.338  16.392  0.4499  0.4998 -0.8301
 5775TIP3   OH238739   1.492   3.571   5.838  0.1646 -0.7022  0.4752
 5775TIP3    H138740   1.573   3.588   5.790  0.1351  0.7332  0.9367
 5775TIP3    H238741   1.491   3.635   5.909 -2.8682  1.3614 -1.3185
 5776TIP3   OH238742   5.642   6.496   2.411 -0.4084  0.7638 -0.2631
 5776TIP3    H138743   5.668   6.523   2.323  0.7249  1.1743  0.1964
 5776TIP3    H238744   5.677   6.407   2.420 -0.3730  0.7874 -0.1648
 5777TIP3   OH238745   6.661   0.077  15.795 -0.0706  0.4955  0.4774
 5777TIP3    H138746   6.738   0.059  15.850 -1.7069 -3.8010  1.6236
 5777TIP3    H238747   6.697   0.100  15.710  2.4898  2.3861  2.0034
 5778TIP3   OH238748   3.095   1.133   2.977  0.2247  0.1560  0.0888
 5778TIP3    H138749   3.097   1.110   2.885  0.2756  0.6612 -0.0402
 5778TIP3    H238750   3.073   1.226   2.978 -0.7575 -0.0750  0.6327
 5779TIP3   OH238751   5.200   4.682   1.552  0.2580 -0.3948 -0.1617
 5779TIP3    H138752   5.137   4.632   1.500 -0.0390 -1.1154  0.8802
 5779TIP3    H238753   5.257   4.724   1.487 -1.0709 -0.0268 -1.1014
 5780TIP3   OH238754   1.560   6.692  12.032  0.0351  0.2552 -0.5534
 5780TIP3    H138755   1.578   6.780  11.999  0.3116  0.9925  1.4994
 5780TIP3    H238756   1.647   6.653  12.044 -0.0855 -0.3177 -1.4607
 5781TIP3   OH238757   3.095   0.262  14.006 -0.0217  0.7946  0.3573
 5781TIP3    H138758   3.037   0.200  13.962  0.7672  0.9843 -0.9690
 5781TIP3    H238759   3.070   0.348  13.970  0.8586  0.9073  0.0111
 5782TIP3   OH238760   2.440   6.705  13.047  0.0726 -0.6455 -0.5668
 5782TIP3    H138761   2.407   6.791  13.020  0.9507 -0.5691 -1.3915
 5782TIP3    H238762   2.444   6.654  12.966  2.3133 -0.5398 -0.5487
 5783TIP3   OH238763   2.145   0.232  11.400  0.1051 -0.2414 -0.5244
 5783TIP3    H138764   2.143   0.241  11.495  1.8889 -1.3547 -0.3540
 5783TIP3    H238765   2.228   0.273  11.374 -0.0365 -0.5736 -1.5165
 5784TIP3   OH238766   4.186   5.399   3.434  0.6036  0.2601 -0.7047
 5784TIP3    H138767   4.204   5.348   3.512  0.1110  1.1424 -0.0012
 5784TIP3    H238768   4.153   5.336   3.370  1.9736 -0.6332 -0.5470
 5785TIP3   OH238769   0.233   0.110   4.859  0.1812 -0.1807  0.2396
 5785TIP3    H138770   0.225   0.186   4.802 -1.5810  0.1407  0.8888
 5785TIP3    H238771   0.160   0.118   4.921 -0.8699 -3.1110 -0.5443
 5786TIP3   OH238772   6.200   4.619  13.053 -0.9471 -0.5073  0.7445
 5786TIP3    H138773   6.167   4.560  12.985  1.4565 -0.6190 -0.4132
 5786TIP3    H238774   6.213   4.564  13.130 -1.5489 -0.8542  0.5946
 5787TIP3   OH238775   3.278   4.562  16.724  0.2821  0.1966  0.1347
 5787TIP3    H138776   3.326   4.479  16.720 -1.1957 -0.6734  0.0257
 5787TIP3    H238777   3.292   4.602  16.639  0.7346 -0.0888  0.0679
 5788TIP3   OH238778   3.255   0.771  11.122 -0.2531  0.1863  0.2026
 5788TIP3    H138779   3.174   0.736  11.084 -1.0143  0.6616  1.3778
 5788TIP3    H238780   3.295   0.821  11.051  1.3309 -3.7602 -1.8321
 5789TIP3   OH238781   2.823   3.104   2.190  0.6616  0.7350  0.2063
 5789TIP3    H138782   2.764   3.089   2.116 -1.9694 -2.8148  2.8136
 5789TIP3    H238783   2.788   3.180   2.235 -2.1935 -1.4421  1.8190
 5790TIP3   OH238784   5.936   2.678   4.501  0.0454  0.1948  0.2641
 5790TIP3    H138785   5.997   2.633   4.560  0.6074  0.0055 -0.4647
 5790TIP3    H238786   5.992   2.722   4.438 -0.5696  0.2086 -0.2674
 5791TIP3   OH238787   1.135   0.370  15.883 -0.4223  0.5059  0.0746
 5791TIP3    H138788   1.176   0.407  15.961  0.9004  0.1435 -0.4267
 5791TIP3    H238789   1.106   0.447  15.833  0.5296  0.8189 -0.0208
 5792TIP3   OH238790   1.562   3.918  11.290 -0.3651  0.0574 -0.3162
 5792TIP3    H138791   1.591   3.841  11.339  1.7162  1.4722  0.7223
 5792TIP3    H238792   1.525   3.881  11.209  0.1030 -2.0688  0.3962
 5793TIP3   OH238793   5.763   6.260  12.135 -0.4120 -0.0983  0.8280
 5793TIP3    H138794   5.829   6.283  12.201  0.0044 -0.6775  0.6230
 5793TIP3    H238795   5.735   6.344  12.098  1.8938  0.0325 -0.6999
 5794TIP3   OH238796   3.028   3.718  14.207  0.4888  0.1374 -0.4483
 5794TIP3    H138797   2.949   3.743  14.256  0.5129 -0.6478 -0.0009
 5794TIP3    H238798   3.099   3.765  14.249  0.2407  0.9687 -0.9487
 5795TIP3   OH238799   4.586   1.067   3.344  0.3830 -0.3781  0.8270
 5795TIP3    H138800   4.653   0.999   3.347  0.3127 -0.5406 -0.7405
 5795TIP3    H238801   4.521   1.034   3.281 -0.0162  0.8121  0.5941
 5796TIP3   OH238802   3.583   1.489   4.776 -1.0968 -0.0562 -0.3220
 5796TIP3    H138803   3.637   1.562   4.745  1.3881 -0.9741  1.6887
 5796TIP3    H238804   3.534   1.525   4.850  0.5592 -0.5374  1.0357
 5797TIP3   OH238805   2.559   3.575  15.481 -0.3273 -0.2016 -0.6836
 5797TIP3    H138806   2.594   3.659  15.509  0.5392 -0.8488  0.2133
 5797TIP3    H238807   2.577   3.571  15.387  2.2568 -0.6370 -0.1945
 5798TIP3   OH238808   2.057   3.665   2.318  0.2162 -0.2573 -0.0515
 5798TIP3    H138809   1.963   3.686   2.323  0.5044  0.9204  0.7031
 5798TIP3    H238810   2.060   3.581   2.273 -1.3829 -1.7213  2.4473
 5799TIP3   OH238811   0.434   6.566  16.473  0.2828  0.5570  0.7057
 5799TIP3    H138812   0.406   6.632  16.536  1.8373  1.2123  0.7501
 5799TIP3    H238813   0.489   6.614  16.411 -0.2026 -0.3204 -0.4307
 5800TIP3   OH238814   5.184   2.180  15.555 -0.4849 -0.5174 -0.0205
 5800TIP3    H138815   5.181   2.171  15.459  0.3477 -0.1104 -0.0874
 5800TIP3    H238816   5.147   2.267  15.571  0.3085 -0.1746 -0.0438
 5801TIP3   OH238817   0.481   3.043   5.602 -0.7116 -0.0230  0.0449
 5801TIP3    H138818   0.448   3.130   5.579  0.4088  0.5392  0.5061
 5801TIP3    H238819   0.576   3.053   5.601 -0.5832 -1.1750  0.3815
 5802TIP3   OH238820   4.660   3.708   5.365  0.0015 -0.3762  0.3035
 5802TIP3    H138821   4.653   3.727   5.459 -1.1944 -0.8024  0.3149
 5802TIP3    H238822   4.591   3.642   5.350 -0.5436  0.5014 -1.0893
 5803TIP3   OH238823   5.381   3.262   3.534  0.0426  0.1590  0.2262
 5803TIP3    H138824   5.430   3.342   3.553  1.4750 -0.7591  0.5395
 5803TIP3    H238825   5.445   3.205   3.491 -0.9395 -0.8387  0.0625
 5804TIP3   OH238826   4.081   4.117   6.615 -0.0097 -0.3452 -0.0667
 5804TIP3    H138827   3.994   4.151   6.592  0.1048 -0.5253 -0.7741
 5804TIP3    H238828   4.070   4.022   6.614  0.1536 -0.3640  0.0015
 5805TIP3   OH238829   0.444   5.406   1.997 -0.3306  0.1305 -0.4827
 5805TIP3    H138830   0.500   5.359   1.935  0.8324  1.2439 -0.2772
 5805TIP3    H238831   0.498   5.477   2.030 -1.9310  1.3314 -0.4080
 5806TIP3   OH238832   6.301   4.430   3.269 -0.4615 -0.1641 -0.2214
 5806TIP3    H138833   6.300   4.353   3.326 -0.6096 -1.0852 -1.4408
 5806TIP3    H238834   6.232   4.487   3.303 -1.6665 -1.4433 -0.4765
 5807TIP3   OH238835   6.210   3.938  11.217 -0.7291  0.3827 -0.4461
 5807TIP3    H138836   6.137   3.965  11.272  2.8449  3.7639  2.9978
 5807TIP3    H238837   6.233   3.850  11.248 -2.5121 -0.1867 -0.7147
 5808TIP3   OH238838   1.678   3.087   2.005 -0.4684  0.5758 -0.3176
 5808TIP3    H138839   1.623   3.009   2.001  0.1754  0.1590 -1.1657
 5808TIP3    H238840   1.652   3.138   1.928 -0.5350  0.9639 -0.0389
 5809TIP3   OH238841   3.608   1.197  12.200 -0.5203  0.0611  0.0380
 5809TIP3    H138842   3.539   1.255  12.233 -0.2118 -0.1817  1.1261
 5809TIP3    H238843   3.688   1.249  12.208 -0.4682  0.0757 -0.5390
 5810TIP3   OH238844   5.924   5.427  11.689  0.0829  0.1397  0.0538
 5810TIP3    H138845   5.868   5.349  11.682  1.0411 -0.6513  1.0497
 5810TIP3    H238846   5.863   5.499  11.707 -0.6499 -0.6871  0.9427
 5811TIP3   OH238847   4.372   4.869  17.189 -0.0403 -0.1320  0.7582
 5811TIP3    H138848   4.309   4.918  17.242  0.1586 -0.6004  1.4360
 5811TIP3    H238849   4.448   4.858  17.246  0.6090  0.3341 -0.0184
 5812TIP3   OH238850   1.374   1.332  16.993 -0.3047  0.0381  0.4487
 5812TIP3    H138851   1.455   1.280  16.998 -1.3607 -1.7894 -0.8814
 5812TIP3    H238852   1.377   1.373  16.906 -1.3562 -1.0138 -0.1034
 5813TIP3   OH238853   4.710   1.991  14.182 -0.1625 -0.4168  0.7589
 5813TIP3    H138854   4.653   2.044  14.127  1.9494  1.8500  0.6721
 5813TIP3    H238855   4.716   2.038  14.265 -0.6082 -2.0622  1.7573
 5814TIP3   OH238856   6.380   6.091  13.848 -0.3114 -0.1801 -0.4245
 5814TIP3    H138857   6.375   6.079  13.943 -0.2875 -0.8746 -0.5141
 5814TIP3    H238858   6.464   6.134  13.834  0.1625 -1.0335 -0.2276
 5815TIP3   OH238859   2.408   3.780  16.148  0.3013  0.0589  0.0715
 5815TIP3    H138860   2.325   3.822  16.169 -0.3447 -1.6193  0.9457
 5815TIP3    H238861   2.403   3.760  16.055 -0.9058 -1.4069  0.4428
 5816TIP3   OH238862   0.736   1.696  14.830  0.0341 -0.1178  0.4909
 5816TIP3    H138863   0.681   1.632  14.785  1.0285 -0.1989 -0.6641
 5816TIP3    H238864   0.786   1.644  14.893  0.3275 -0.3917  0.0429
 5817TIP3   OH238865   3.582   1.430  15.540 -0.1355  0.6100  0.2920
 5817TIP3    H138866   3.657   1.485  15.560 -0.2963  0.5081  1.2211
 5817TIP3    H238867   3.594   1.352  15.595 -0.7598  0.4595  0.2202
 5818TIP3   OH238868   6.042   0.138  11.817 -0.4227  0.1740 -0.6093
 5818TIP3    H138869   5.991   0.210  11.855  0.3092 -0.1888  1.1138
 5818TIP3    H238870   6.005   0.126  11.730 -1.0166  2.1717 -0.6582
 5819TIP3   OH238871   5.171   1.586  10.708 -0.1005 -0.1269 -0.3691
 5819TIP3    H138872   5.218   1.513  10.749  0.7655  0.5704 -0.1083
 5819TIP3    H238873   5.111   1.543  10.646 -1.6007 -1.1948  1.7729
 5820TIP3   OH238874   6.117   0.813   3.650 -0.2990 -0.0654 -0.3309
 5820TIP3    H138875   6.103   0.907   3.634  1.7330  0.0268 -1.6242
 5820TIP3    H238876   6.051   0.770   3.596 -2.0743  0.6157  1.2180
 5821TIP3   OH238877   4.136   5.035   2.463  0.1651 -0.1644 -0.5236
 5821TIP3    H138878   4.141   5.130   2.447  0.4570 -0.4551 -2.1794
 5821TIP3    H238879   4.096   5.029   2.550 -0.1251  1.4791 -0.5110
 5822TIP3   OH238880   5.031   1.727  13.656  0.1087 -0.2504 -0.1006
 5822TIP3    H138881   5.050   1.643  13.698 -0.2254 -0.7941 -1.0314
 5822TIP3    H238882   4.948   1.755  13.696  0.8732  0.2912  1.1721
 5823TIP3   OH238883   5.725   6.051   1.810 -0.4252 -0.3333 -0.4206
 5823TIP3    H138884   5.785   6.046   1.884  1.1052 -0.8264 -1.6757
 5823TIP3    H238885   5.680   5.967   1.810  1.0011 -1.1090 -1.2269
 5824TIP3   OH238886   3.684   0.551   0.444  0.1161 -0.3701  0.3453
 5824TIP3    H138887   3.754   0.520   0.386 -0.8441 -0.8723 -0.5641
 5824TIP3    H238888   3.667   0.478   0.504 -0.9270 -0.9798 -0.6630
 5825TIP3   OH238889   6.041   0.119   4.788 -0.1589 -0.7554  0.0858
 5825TIP3    H138890   6.099   0.044   4.774  0.0251 -1.0106  2.1029
 5825TIP3    H238891   6.097   0.195   4.772  0.3112 -1.0215  0.4595
 5826TIP3   OH238892   5.984   5.070   1.862  0.3798 -0.7124  0.3942
 5826TIP3    H138893   6.042   5.117   1.801  0.3097  0.1279  0.9692
 5826TIP3    H238894   5.906   5.051   1.810  0.1016  0.4710  0.3542
 5827TIP3   OH238895   6.606   3.697  11.930 -0.5130  0.1358  0.8455
 5827TIP3    H138896   6.522   3.653  11.920 -0.3074 -0.2087  0.5954
 5827TIP3    H238897   6.671   3.627  11.919 -0.1818  0.5168  0.3184
 5828TIP3   OH238898   1.278   0.601   2.731 -0.5412  0.1261  0.2669
 5828TIP3    H138899   1.194   0.558   2.741 -0.1473 -0.4046  1.2979
 5828TIP3    H238900   1.259   0.678   2.677 -1.2962 -1.1336 -1.2931
 5829TIP3   OH238901   1.265   6.782  14.341  0.0978  0.4602  0.4795
 5829TIP3    H138902   1.310   6.783  14.257  1.0122  2.1861  0.9622
 5829TIP3    H238903   1.322   6.731  14.398  0.6551  1.2568  0.6512
 5830TIP3   OH238904   3.757   6.484  13.385  0.3104  0.4234  0.7297
 5830TIP3    H138905   3.745   6.579  13.381 -1.0691  0.2638  0.8052
 5830TIP3    H238906   3.767   6.456  13.294 -2.5028  0.2664  0.4295
 5831TIP3   OH238907   4.127   2.144  12.796 -0.2188 -0.0372  0.1528
 5831TIP3    H138908   4.183   2.193  12.857 -2.9302  1.2021  1.7629
 5831TIP3    H238909   4.128   2.054  12.828  0.4440  0.0731  0.4466
 5832TIP3   OH238910   4.301   5.004  12.230 -0.8360 -0.0873  0.2415
 5832TIP3    H138911   4.395   5.012  12.212 -0.7469 -1.8828 -0.2208
 5832TIP3    H238912   4.297   4.940  12.302 -1.7017  0.1062  0.3630
 5833TIP3   OH238913   5.976   3.554   4.206  0.5996  0.1112  0.2132
 5833TIP3    H138914   5.885   3.530   4.190  0.6667 -0.6132  0.9355
 5833TIP3    H238915   5.978   3.649   4.190 -0.5075  0.3247  1.2259
 5834TIP3   OH238916   2.173   6.239   0.211  0.1070  0.1052  0.2161
 5834TIP3    H138917   2.181   6.144   0.215 -1.5529 -0.0314  0.8666
 5834TIP3    H238918   2.249   6.268   0.160  1.2019 -1.4663  0.9215
 5835TIP3   OH238919   5.764   0.048  14.709  0.1174  0.6673 -0.1554
 5835TIP3    H138920   5.807   0.038  14.624  1.6222  0.6346  0.5995
 5835TIP3    H238921   5.733   0.139  14.710 -0.2581  0.5545 -0.8872
 5836TIP3   OH238922   0.307   0.427  11.029  0.1875  0.3057 -0.7940
 5836TIP3    H138923   0.273   0.368  11.096  1.0934 -0.7970 -1.2761
 5836TIP3    H238924   0.288   0.382  10.946  1.6641  0.2519 -1.1189
 5837TIP3   OH238925   2.825   5.327   4.795 -0.1568  0.1061 -0.1317
 5837TIP3    H138926   2.748   5.285   4.757  0.3678 -0.3667 -0.6743
 5837TIP3    H238927   2.800   5.347   4.885 -0.4749 -1.2010  0.0800
 5838TIP3   OH238928   1.766   6.098   6.798 -0.4287 -0.5502 -0.0113
 5838TIP3    H138929   1.688   6.061   6.756  0.3476  0.1703 -2.1460
 5838TIP3    H238930   1.797   6.029   6.856 -0.6184 -2.2041 -1.8227
 5839TIP3   OH238931   3.751   5.155  11.975 -0.4443 -0.1489  0.1860
 5839TIP3    H138932   3.722   5.223  11.914 -0.3320  0.6078  0.9728
 5839TIP3    H238933   3.831   5.190  12.014  1.5253 -2.1634 -1.8818
 5840TIP3   OH238934   1.704   4.396   5.965 -0.7817 -0.5448 -0.3016
 5840TIP3    H138935   1.710   4.337   5.890  1.4885  0.0635 -0.6343
 5840TIP3    H238936   1.706   4.484   5.926 -2.0670 -0.2397  0.3161
 5841TIP3   OH238937   0.056   4.950  12.577  0.1860  0.5456 -0.3964
 5841TIP3    H138938  -0.040   4.950  12.577  0.1785  1.7006  0.0062
 5841TIP3    H238939   0.080   4.941  12.669  0.4915 -1.0120 -0.6037
 5842TIP3   OH238940   0.306   0.396  14.958  0.1788  0.4529  0.3238
 5842TIP3    H138941   0.216   0.419  14.980 -0.4386 -1.3457 -0.1748
 5842TIP3    H238942   0.329   0.452  14.884 -0.3371  1.2892  0.7977
 5843TIP3   OH238943   1.212   2.977  13.741  0.1684  0.1030 -0.1927
 5843TIP3    H138944   1.304   2.960  13.763  0.2807 -1.4747 -1.7976
 5843TIP3    H238945   1.162   2.925  13.804  0.4093 -0.1742 -0.2272
 5844TIP3   OH238946   4.233   0.278   3.087  0.6802 -0.5404 -0.2468
 5844TIP3    H138947   4.202   0.221   3.157 -0.8706 -0.8593 -1.1783
 5844TIP3    H238948   4.236   0.222   3.010  0.1442  0.3859 -0.9401
 5845TIP3   OH238949   5.203   1.124   3.335  0.6689  0.3082 -0.0152
 5845TIP3    H138950   5.207   1.202   3.390  0.0070 -0.4507  1.1513
 5845TIP3    H238951   5.289   1.118   3.294  0.8629  1.3982  0.2291
 5846TIP3   OH238952   5.233   5.810   2.440  0.1173 -0.0660  0.3347
 5846TIP3    H138953   5.281   5.795   2.521  2.2490 -0.3112 -0.9122
 5846TIP3    H238954   5.295   5.859   2.385 -2.1899  2.2944 -0.2433
 5847TIP3   OH238955   1.530   0.583   4.120  0.0576 -0.2589  0.0375
 5847TIP3    H138956   1.489   0.596   4.034  1.2823 -1.3701 -0.7546
 5847TIP3    H238957   1.528   0.670   4.161 -1.0260  0.1720 -0.8930
 5848TIP3   OH238958   5.776   1.831  14.530  0.2582 -0.5403  0.1468
 5848TIP3    H138959   5.840   1.776  14.485  0.1616 -1.0421  0.6123
 5848TIP3    H238960   5.709   1.849  14.464  2.1405  2.1674 -1.1387
 5849TIP3   OH238961   1.018   2.794   2.174 -0.3396 -0.0069  0.2569
 5849TIP3    H138962   1.012   2.795   2.269  3.0999 -0.7422  0.5511
 5849TIP3    H238963   1.012   2.701   2.151  1.0308 -0.0250 -0.0495
 5850TIP3   OH238964   5.154   5.505   0.694 -0.1313 -0.9463  0.5777
 5850TIP3    H138965   5.194   5.540   0.615 -0.2250  0.0724  0.9663
 5850TIP3    H238966   5.086   5.446   0.663 -0.8328  0.2089 -0.1227
 5851TIP3   OH238967   6.027   4.754  11.819  0.4831 -0.3028  0.3836
 5851TIP3    H138968   6.074   4.706  11.887  0.0877 -1.0632  0.1160
 5851TIP3    H238969   5.937   4.724  11.825 -0.0267  1.2881  1.0053
 5852TIP3   OH238970   5.360   3.510  12.027  0.3670 -0.0515  0.0102
 5852TIP3    H138971   5.347   3.474  11.939  0.5698  0.4469 -0.2219
 5852TIP3    H238972   5.406   3.593  12.013 -0.4135  0.4746  0.5208
 5853TIP3   OH238973   6.524   0.780   2.593 -0.3569 -0.2701 -0.0205
 5853TIP3    H138974   6.525   0.727   2.672  1.0907 -2.3978 -1.4018
 5853TIP3    H238975   6.470   0.730   2.531 -0.3346  0.6876 -0.8317
 5854TIP3   OH238976   5.671   4.446   4.148  0.2279 -0.0759 -0.5154
 5854TIP3    H138977   5.618   4.502   4.092  1.4086  1.2939 -0.2939
 5854TIP3    H238978   5.608   4.405   4.208 -0.5862  1.4667 -0.3068
 5855TIP3   OH238979   1.764   2.330  16.377  0.7785  0.4966 -0.1219
 5855TIP3    H138980   1.758   2.272  16.453  0.1184  1.9430  0.9703
 5855TIP3    H238981   1.822   2.401  16.405  1.8187  0.2274 -1.5362
 5856TIP3   OH238982   5.661   4.049   0.502 -0.3792 -0.3493  0.3762
 5856TIP3    H138983   5.614   4.071   0.583  0.9101 -0.6145  1.2213
 5856TIP3    H238984   5.753   4.065   0.524 -0.1819  1.7068 -1.7386
 5857TIP3   OH238985   3.857   4.606  15.655  0.4345 -0.4010  0.3768
 5857TIP3    H138986   3.929   4.662  15.627 -0.2255  0.5267  0.5325
 5857TIP3    H238987   3.895   4.554  15.727  1.4940 -1.2737 -0.7846
 5858TIP3   OH238988   1.268   5.040  15.457 -0.1768  0.0827  0.3379
 5858TIP3    H138989   1.209   5.105  15.420 -2.2924 -1.6311  0.6305
 5858TIP3    H238990   1.263   5.053  15.552  0.1405  0.1224  0.3511
 5859TIP3   OH238991   5.794   4.146  16.353  0.1183 -0.2210 -0.1651
 5859TIP3    H138992   5.803   4.205  16.428  1.9312 -0.5145 -0.1113
 5859TIP3    H238993   5.807   4.202  16.277  1.2338 -0.4191 -0.1347
 5860TIP3   OH238994   4.027   2.583  15.243  0.3324  0.0423 -0.0561
 5860TIP3    H138995   3.942   2.627  15.233  0.5199  0.6962  1.1486
 5860TIP3    H238996   4.045   2.588  15.337  2.4073  1.2198 -0.4953
 5861TIP3   OH238997   0.764   0.668  15.552 -0.2271  0.3390  0.0914
 5861TIP3    H138998   0.677   0.699  15.528 -0.9978 -0.1641  2.0602
 5861TIP3    H238999   0.766   0.577  15.524 -0.3785  0.3242  0.1267
 5862TIP3   OH239000   0.928   0.438  14.795 -0.0236  0.4933  0.0599
 5862TIP3    H139001   0.957   0.506  14.734 -0.2792  2.4199  2.0315
 5862TIP3    H239002   0.960   0.466  14.880 -2.7012 -0.3143  1.3845
 5863TIP3   OH239003   1.419   4.303   1.218  0.3993  0.0116 -0.1727
 5863TIP3    H139004   1.447   4.390   1.188  1.3696 -0.2704 -0.0836
 5863TIP3    H239005   1.385   4.261   1.139 -0.8625  0.7618 -0.0616
 5864TIP3   OH239006   4.034   1.456   5.188  0.3551 -0.2098  0.2500
 5864TIP3    H139007   4.051   1.500   5.272 -0.4269 -1.6825  1.1965
 5864TIP3    H239008   3.974   1.514   5.142  0.1225  0.2015  1.0647
 5865TIP3   OH239009   6.139   0.264   5.413 -0.5361 -0.0798  0.1285
 5865TIP3    H139010   6.068   0.325   5.433  0.5139  0.7100  1.5018
 5865TIP3    H239011   6.217   0.318   5.406  0.6446 -1.3599  2.6226
 5866TIP3   OH239012   6.566   5.241   2.630  0.4269  0.2494 -0.3775
 5866TIP3    H139013   6.609   5.160   2.658  0.3414  0.3799  0.1422
 5866TIP3    H239014   6.481   5.240   2.674  1.8698  2.3880  2.6310
 5867TIP3   OH239015   0.882   0.791  13.520 -0.2488 -0.4118  0.0112
 5867TIP3    H139016   0.919   0.860  13.575  0.2191  1.5066 -2.6679
 5867TIP3    H239017   0.940   0.716  13.533  1.1861  0.7413  0.3446
 5868TIP3   OH239018   1.699   3.635  14.102 -0.1878  0.2559  0.3779
 5868TIP3    H139019   1.760   3.573  14.141 -0.5340 -0.4585 -0.2142
 5868TIP3    H239020   1.624   3.637  14.161 -0.6911 -0.7883 -0.2206
 5869TIP3   OH239021   6.384   4.259  14.048  0.3495  0.5864  0.6899
 5869TIP3    H139022   6.354   4.214  14.127 -2.3142  3.4388  1.4173
 5869TIP3    H239023   6.415   4.344  14.079  2.4394  0.4568 -0.9792
 5870TIP3   OH239024   5.475   4.568   3.933  0.4888 -0.1824 -0.7170
 5870TIP3    H139025   5.386   4.571   3.969 -0.9472  0.7386 -4.1737
 5870TIP3    H239026   5.468   4.512   3.855  2.7355  0.6440 -1.5489
 5871TIP3   OH239027   3.527   0.150  16.035  0.1176  0.1228  0.2152
 5871TIP3    H139028   3.448   0.168  16.086 -1.3460 -0.9940 -1.6252
 5871TIP3    H239029   3.501   0.165  15.944  2.1440  0.1271 -0.3792
 5872TIP3   OH239030   4.260   4.019  15.493  0.4182 -0.3780 -0.3279
 5872TIP3    H139031   4.345   4.000  15.452  0.0361  2.0699 -2.3581
 5872TIP3    H239032   4.231   4.099  15.451 -2.2575 -0.3994  1.4049
 5873TIP3   OH239033   2.383   4.323   1.173 -0.7568 -0.3137 -0.6422
 5873TIP3    H139034   2.319   4.322   1.244  0.3149 -0.8749  0.3384
 5873TIP3    H239035   2.414   4.414   1.170 -1.9509  0.0828 -1.4661
 5874TIP3   OH239036   4.498   6.067   3.806 -0.1217 -0.0665 -0.0148
 5874TIP3    H139037   4.493   6.000   3.738  0.9245  0.7686 -0.9324
 5874TIP3    H239038   4.558   6.133   3.771 -0.6465  1.0519  1.1369
 5875TIP3   OH239039   5.743   0.665   5.536 -0.3294 -0.2642  0.2038
 5875TIP3    H139040   5.689   0.592   5.505 -0.4550  0.4696 -1.3370
 5875TIP3    H239041   5.797   0.627   5.606 -2.6306 -1.0733  1.5929
 5876TIP3   OH239042   0.645   1.915   3.440 -0.7429  0.4113  0.4724
 5876TIP3    H139043   0.638   1.850   3.510  0.1717  0.4507  0.5995
 5876TIP3    H239044   0.635   1.865   3.359 -2.2574  0.4260  0.6288
 5877TIP3   OH239045   0.405   2.553   2.538 -0.0908 -0.4455 -0.0358
 5877TIP3    H139046   0.483   2.502   2.562  1.5868  1.3605 -1.4638
 5877TIP3    H239047   0.414   2.567   2.444 -0.1254  3.0516  0.4141
 5878TIP3   OH239048   5.268   4.900  11.363 -0.1561 -0.2196 -0.1633
 5878TIP3    H139049   5.290   4.979  11.313 -0.2023 -0.1615 -0.0921
 5878TIP3    H239050   5.216   4.932  11.437  0.3591 -0.2460  0.2093
 5879TIP3   OH239051   6.155   5.639  14.167  0.0024 -0.5311  0.1376
 5879TIP3    H139052   6.196   5.698  14.103 -0.8887  0.4222  0.4379
 5879TIP3    H239053   6.229   5.598  14.212  0.6559  0.9953  0.5123
 5880TIP3   OH239054   0.028   6.037   1.914 -0.0526 -0.1258  0.5824
 5880TIP3    H139055   0.002   6.068   1.827  0.5875 -2.1521 -0.3515
 5880TIP3    H239056   0.112   6.080   1.930  0.6395 -1.0257 -0.5384
 5881TIP3   OH239057   3.247   6.069   4.492 -0.1418  0.3382 -0.2063
 5881TIP3    H139058   3.342   6.061   4.491 -0.2038 -0.5402  0.2934
 5881TIP3    H239059   3.217   5.991   4.538 -1.0132  1.4132  1.1173
 5882TIP3   OH239060   5.838   4.084  11.620 -0.2936 -0.5533 -0.0652
 5882TIP3    H139061   5.927   4.102  11.588  0.3191 -1.9902  0.7691
 5882TIP3    H239062   5.806   4.014  11.563 -0.4356 -0.8595  0.3857
 5883TIP3   OH239063   1.884   5.388  14.172 -0.4945  0.1402  0.4056
 5883TIP3    H139064   1.790   5.385  14.193 -0.1425 -2.6641  1.7400
 5883TIP3    H239065   1.888   5.372  14.078 -1.5098  3.9553 -0.4113
 5884TIP3   OH239066   4.485   2.749  12.240 -0.0112 -0.2065  0.5507
 5884TIP3    H139067   4.546   2.726  12.311  0.3665 -1.5645 -0.1785
 5884TIP3    H239068   4.482   2.844  12.241  0.7584 -0.1750  1.7565
 5885TIP3   OH239069   0.947   6.776   0.540  0.2607  0.0737  0.3147
 5885TIP3    H139070   0.998   6.702   0.506  0.2682  0.1069  0.2550
 5885TIP3    H239071   1.012   6.829   0.586  0.3659  0.3514 -0.1500
 5886TIP3   OH239072   3.972   0.104   4.299 -0.1626  0.7713 -0.2039
 5886TIP3    H139073   3.930   0.027   4.260  1.6450 -0.4797  0.2466
 5886TIP3    H239074   3.918   0.126   4.375  0.6884 -1.6116  1.1290
 5887TIP3   OH239075   2.925   6.113  16.756  0.6431  0.5673 -0.1293
 5887TIP3    H139076   2.834   6.137  16.773  0.3766 -0.9684  0.6008
 5887TIP3    H239077   2.921   6.059  16.677  1.0191  1.1845 -0.5755
 5888TIP3   OH239078   1.326   1.063  13.837 -0.2729 -0.3785  0.8531
 5888TIP3    H139079   1.380   1.089  13.762  0.7711 -0.7715  1.4586
 5888TIP3    H239080   1.239   1.095  13.816 -0.5217 -2.4800 -1.6382
 5889TIP3   OH239081   6.348   0.748   4.663 -0.4602 -0.4483 -0.2822
 5889TIP3    H139082   6.365   0.732   4.756 -1.7403 -0.2221  0.0023
 5889TIP3    H239083   6.422   0.707   4.618  1.4436  1.5380  0.9369
 5890TIP3   OH239084   2.763   2.078  14.958 -0.4388  0.2683 -0.3192
 5890TIP3    H139085   2.687   2.087  15.016  0.4232 -0.8659  1.0194
 5890TIP3    H239086   2.781   1.984  14.956  2.1616  0.6863  1.0384
 5891TIP3   OH239087   6.459   0.476   1.772 -0.1509 -0.0442  0.3528
 5891TIP3    H139088   6.471   0.566   1.803  0.0789 -0.1887  0.6887
 5891TIP3    H239089   6.370   0.474   1.737 -0.0078  0.4242 -0.0411
 5892TIP3   OH239090   5.278   2.199  10.508 -0.4028  0.3009  0.2972
 5892TIP3    H139091   5.334   2.224  10.581  0.7906  1.2388 -0.9135
 5892TIP3    H239092   5.260   2.281  10.462 -3.2366  0.0873  0.9748
 5893TIP3   OH239093   2.726   0.467  11.060 -0.0894  0.0568 -0.4448
 5893TIP3    H139094   2.758   0.393  11.008 -1.7179 -1.0385  0.0779
 5893TIP3    H239095   2.729   0.436  11.151 -0.6422  0.6741 -0.2117
 5894TIP3   OH239096   4.375   0.160  12.229  0.0966  0.1836  0.2820
 5894TIP3    H139097   4.308   0.093  12.243 -1.2186  1.2063 -0.9982
 5894TIP3    H239098   4.420   0.167  12.313 -1.4609 -0.4544  1.1785
 5895TIP3   OH239099   3.562   4.700  14.424  0.2889  0.1016  0.1108
 5895TIP3    H139100   3.498   4.753  14.377 -0.3090  0.8834  1.8150
 5895TIP3    H239101   3.524   4.612  14.425 -0.7451  0.5599  1.1113
 5896TIP3   OH239102   4.107   2.889  13.023  0.5561  0.3145 -0.4251
 5896TIP3    H139103   4.179   2.924  13.076 -0.1874 -0.5931  1.2561
 5896TIP3    H239104   4.055   2.966  12.999  0.1785  0.6493  1.3361
 5897TIP3   OH239105   0.679   4.010   1.388  0.1811  0.7439 -0.1003
 5897TIP3    H139106   0.641   4.098   1.386 -1.5590  0.0580  1.0408
 5897TIP3    H239107   0.662   3.979   1.477  1.6801 -0.3757 -0.1851
 5898TIP3   OH239108   2.471   1.776  13.740  0.2001  0.2456  0.8854
 5898TIP3    H139109   2.539   1.761  13.805 -0.5084  0.9845  1.7994
 5898TIP3    H239110   2.402   1.822  13.787 -0.1330  1.1788 -0.4887
 5899TIP3   OH239111   1.565   3.600  16.457  0.1051  0.3751 -0.0702
 5899TIP3    H139112   1.624   3.594  16.382  0.7482 -0.0034  0.4571
 5899TIP3    H239113   1.561   3.694  16.476 -0.9921  0.5895 -1.2942
 5900TIP3   OH239114   1.188   0.854  12.867  0.3158 -0.0552 -0.2570
 5900TIP3    H139115   1.182   0.896  12.953 -0.0630 -1.8049  0.5941
 5900TIP3    H239116   1.282   0.850  12.849  0.4195 -0.1615  0.3060
 5901TIP3   OH239117   3.760   3.501  11.519 -0.2955  0.0065 -0.2880
 5901TIP3    H139118   3.779   3.492  11.426 -0.0606  0.5814 -0.2946
 5901TIP3    H239119   3.708   3.580  11.526  0.6105  0.5681  0.1955
 5902TIP3   OH239120   5.054   4.637   0.331  0.0077  0.0620 -0.1416
 5902TIP3    H139121   5.058   4.715   0.386 -1.9491 -0.6401  1.0426
 5902TIP3    H239122   4.981   4.653   0.271  0.1376 -0.5173 -0.4642
 5903TIP3   OH239123   2.323   1.839  13.522  0.5207  0.1449 -0.5602
 5903TIP3    H139124   2.383   1.855  13.594  1.0856  1.0893 -1.2305
 5903TIP3    H239125   2.305   1.745  13.525 -0.2689  0.3498  1.4277
 5904TIP3   OH239126   6.365   1.611  16.593  0.3545 -0.1687 -0.0887
 5904TIP3    H139127   6.404   1.567  16.669  0.2739  0.7433  0.4913
 5904TIP3    H239128   6.340   1.697  16.626 -1.1430 -0.3393 -0.7498
 5905TIP3   OH239129   2.838   0.249   3.714  0.5446 -0.0249 -0.1987
 5905TIP3    H139130   2.863   0.340   3.729 -0.0169  0.3191 -1.3352
 5905TIP3    H239131   2.765   0.235   3.775  0.6937  0.2517  0.0475
 5906TIP3   OH239132   5.086   5.420   4.627  0.9143  0.2326 -0.3923
 5906TIP3    H139133   5.182   5.414   4.629  0.8778 -0.4311 -0.5303
 5906TIP3    H239134   5.064   5.467   4.708  1.3518  0.3068 -0.3133
 5907TIP3   OH239135   2.427   3.810  14.936  0.2089  0.5322 -0.2907
 5907TIP3    H139136   2.442   3.776  14.848 -0.3970 -0.8940  0.1513
 5907TIP3    H239137   2.393   3.898  14.922 -1.6148 -0.3497 -1.5239
 5908TIP3   OH239138   1.652   6.027  14.142 -0.2445  0.1039  0.3012
 5908TIP3    H139139   1.619   6.037  14.231 -0.8677 -2.0753  0.3506
 5908TIP3    H239140   1.729   5.971  14.151  1.4592  2.2817 -0.2253
 5909TIP3   OH239141   0.081   3.677   4.964  0.1737 -0.0243 -0.2874
 5909TIP3    H139142  -0.000   3.635   4.994 -0.5446  1.0377 -0.7188
 5909TIP3    H239143   0.051   3.748   4.907  1.4240  0.1814 -0.6903
 5910TIP3   OH239144   6.462   2.983   2.413  0.2970 -0.0844 -0.3204
 5910TIP3    H139145   6.371   2.965   2.388  0.6652 -2.1051 -0.2916
 5910TIP3    H239146   6.504   3.011   2.331  0.1685 -1.3001 -0.8110
 5911TIP3   OH239147   4.953   6.712  13.528  0.0664  0.4974  0.5398
 5911TIP3    H139148   4.946   6.620  13.501 -0.2880  0.8200 -0.4677
 5911TIP3    H239149   4.996   6.708  13.614  0.1562 -0.6017  0.4537
 5912TIP3   OH239150   0.746   5.961  16.815  0.1913  0.2890 -0.1191
 5912TIP3    H139151   0.723   6.023  16.885  0.7221 -0.4091  0.6870
 5912TIP3    H239152   0.685   5.888  16.826 -0.4714  0.6859 -1.1009
 5913TIP3   OH239153   5.308   3.171   1.901 -0.3308  0.3075  0.0928
 5913TIP3    H139154   5.398   3.157   1.873  0.5761  1.4275  2.2984
 5913TIP3    H239155   5.268   3.219   1.829  0.8603 -0.1220 -0.8730
 5914TIP3   OH239156   2.685   0.640   1.093  0.0820 -0.4767 -0.0762
 5914TIP3    H139157   2.610   0.691   1.062  0.2090 -0.2075  0.0591
 5914TIP3    H239158   2.697   0.574   1.025  1.9731  1.6848 -1.9615
 5915TIP3   OH239159   6.369   4.515   3.667 -0.0677  0.1087 -0.1203
 5915TIP3    H139160   6.425   4.538   3.741  0.2111 -3.5561  0.8934
 5915TIP3    H239161   6.430   4.495   3.596 -0.2321  0.1875 -0.2836
 5916TIP3   OH239162   6.097   2.854  11.899 -0.3490 -0.1676  0.4035
 5916TIP3    H139163   6.009   2.886  11.882  0.2796  1.3046 -0.1450
 5916TIP3    H239164   6.148   2.933  11.918  1.0091 -0.9353 -0.0146
 5917TIP3   OH239165   6.573   0.110  11.649  0.0832  0.3931 -0.1110
 5917TIP3    H139166   6.583   0.028  11.697 -3.4299  0.3933  0.7682
 5917TIP3    H239167   6.481   0.135  11.662  0.3461  3.0433 -2.6453
 5918TIP3   OH239168   4.961   3.151  13.714  0.2341 -0.4195 -0.1857
 5918TIP3    H139169   5.045   3.151  13.670  0.0852 -2.1971 -0.5099
 5918TIP3    H239170   4.899   3.183  13.648  0.1062 -2.5026 -1.1160
 5919TIP3   OH239171   4.618   3.250  12.818 -0.3248 -1.3774 -0.0806
 5919TIP3    H139172   4.531   3.242  12.779 -0.9842 -0.3122  1.1543
 5919TIP3    H239173   4.650   3.335  12.788 -0.8133 -0.5736  1.6284
 5920TIP3   OH239174   3.355   6.095   3.132 -0.0932 -0.0604 -0.0689
 5920TIP3    H139175   3.284   6.089   3.068  0.2387  0.5144 -0.4889
 5920TIP3    H239176   3.314   6.132   3.210 -0.3312 -0.0428 -0.2023
 5921TIP3   OH239177   6.747   6.304  11.605  0.5860 -0.4663  0.3344
 5921TIP3    H139178   6.808   6.375  11.587 -0.0790  0.2575  0.9001
 5921TIP3    H239179   6.678   6.314  11.539  1.0879 -1.2979 -0.3204
 5922TIP3   OH239180   3.944   5.556  13.932 -0.4128  0.4868 -0.4402
 5922TIP3    H139181   3.966   5.548  13.839 -2.7140  1.0391 -1.0544
 5922TIP3    H239182   3.941   5.466  13.963  0.7616  0.3165 -0.8021
 5923TIP3   OH239183   0.788   0.549   0.224  0.4647  0.2619 -0.4701
 5923TIP3    H139184   0.878   0.566   0.251  0.2015  1.8718 -0.5382
 5923TIP3    H239185   0.757   0.633   0.189 -0.9766 -0.3380 -0.6822
 5924TIP3   OH239186   4.241   5.776  12.285  0.2370 -0.1260 -0.0807
 5924TIP3    H139187   4.151   5.746  12.272 -0.5709  1.4860  1.6433
 5924TIP3    H239188   4.235   5.871  12.291  1.6147 -0.1627  3.1547
 5925TIP3   OH239189   5.882   1.189   5.321 -0.7361  0.0300 -0.2723
 5925TIP3    H139190   5.921   1.105   5.296 -0.0105  0.2106  0.2383
 5925TIP3    H239191   5.794   1.187   5.283 -0.6850 -0.9183 -0.3422
 5926TIP3   OH239192   3.565   5.069   5.924  0.3587 -0.0477  0.3790
 5926TIP3    H139193   3.603   5.056   5.837  0.2531  2.7457 -0.1521
 5926TIP3    H239194   3.605   5.002   5.979 -0.4318 -2.5750 -2.0560
 5927TIP3   OH239195   1.024   4.391  16.634  0.2537  0.2286 -0.2800
 5927TIP3    H139196   1.099   4.389  16.693  1.6483  0.6169 -2.0060
 5927TIP3    H239197   1.028   4.477  16.592 -3.3974  1.8554  2.3901
 5928TIP3   OH239198   1.374   2.604   1.685  0.0220  0.6449 -0.5374
 5928TIP3    H139199   1.353   2.518   1.722 -0.8498  1.3822  0.7053
 5928TIP3    H239200   1.454   2.630   1.729  0.2693  0.4881 -0.8924
 5929TIP3   OH239201   1.660   4.652   2.403 -0.2346  0.2172 -0.3154
 5929TIP3    H139202   1.586   4.669   2.344 -0.8503  0.9104  0.6234
 5929TIP3    H239203   1.674   4.736   2.447  0.9997  0.0283 -0.3509
 5930TIP3   OH239204   5.017   3.223   4.007  0.6505  0.3250  0.0828
 5930TIP3    H139205   5.086   3.159   3.990 -0.3541 -0.9436  0.7073
 5930TIP3    H239206   5.013   3.275   3.927  0.2165 -1.6059 -1.1905
 5931TIP3   OH239207   1.202   4.956   5.557  0.0989  0.4628  0.2898
 5931TIP3    H139208   1.246   4.980   5.476  2.9226  1.1273  1.9619
 5931TIP3    H239209   1.219   4.862   5.566  0.0462  0.4541  0.2998
 5932TIP3   OH239210   6.014   1.255   6.233  0.2087 -0.3581  0.1744
 5932TIP3    H139211   5.972   1.334   6.199 -2.9095 -2.5986 -1.4253
 5932TIP3    H239212   5.989   1.253   6.325  0.6606  0.7194  0.3342
 5933TIP3   OH239213   4.638   0.173   2.894  0.2717  0.0311  0.7994
 5933TIP3    H139214   4.635   0.078   2.879 -2.3903  0.1997 -0.0371
 5933TIP3    H239215   4.655   0.210   2.807 -1.5448  0.4149  0.5862
 5934TIP3   OH239216   0.733   2.215   0.561 -0.3739 -0.1919 -0.0050
 5934TIP3    H139217   0.826   2.235   0.561 -0.6240  1.0126 -0.4365
 5934TIP3    H239218   0.690   2.300   0.573 -1.4285 -0.6651 -0.3343
 5935TIP3   OH239219   4.652   2.393   6.434 -0.5483  0.3378  0.4363
 5935TIP3    H139220   4.594   2.389   6.358 -1.0501  1.0235  0.7884
 5935TIP3    H239221   4.700   2.475   6.424  0.1728 -0.1009  0.2840
 5936TIP3   OH239222   5.215   0.009  14.671 -0.6081  0.4445  0.0868
 5936TIP3    H139223   5.308  -0.009  14.679 -0.3015  1.9532  0.1318
 5936TIP3    H239224   5.200   0.083  14.729 -1.6284  0.8717 -0.6939
 5937TIP3   OH239225   1.819   0.469  16.044 -0.0281 -0.1872  0.0457
 5937TIP3    H139226   1.845   0.540  15.985  1.2207  1.2128  2.1580
 5937TIP3    H239227   1.902   0.426  16.067 -0.6414 -1.5276 -0.2259
 5938TIP3   OH239228   3.057   5.931  14.185  0.4353  0.2375 -0.0896
 5938TIP3    H139229   3.077   6.024  14.177 -2.0384  0.9951  1.9655
 5938TIP3    H239230   2.973   5.920  14.140  0.3026 -0.8494  0.4086
 5939TIP3   OH239231   3.000   3.564   0.162  0.0781 -0.5880  0.5222
 5939TIP3    H139232   3.063   3.634   0.149  1.4273 -2.0503 -1.1667
 5939TIP3    H239233   3.043   3.505   0.224 -0.5749 -0.4873  1.0750
 5940TIP3   OH239234   3.528   6.423  15.493 -0.4205  0.1340  0.1848
 5940TIP3    H139235   3.603   6.366  15.475  0.5931  1.0501  1.3575
 5940TIP3    H239236   3.498   6.452  15.407  0.0429 -0.9062 -0.3380
 5941TIP3   OH239237   1.579   5.499  12.475  0.2127 -0.8760  0.1391
 5941TIP3    H139238   1.581   5.490  12.379  2.1736 -1.2128  0.1867
 5941TIP3    H239239   1.564   5.411  12.507 -2.3091 -0.4821  0.1221
 5942TIP3   OH239240   5.880   6.028   0.612  0.5054  0.0447 -0.1569
 5942TIP3    H139241   5.930   5.948   0.628  0.2406 -0.5661 -2.2781
 5942TIP3    H239242   5.802   6.018   0.667  1.2644 -0.3775  0.8591
 5943TIP3   OH239243   5.648   2.067  10.646 -0.5059 -0.1887  0.4458
 5943TIP3    H139244   5.683   1.980  10.665 -0.6997 -0.5337 -0.7448
 5943TIP3    H239245   5.601   2.092  10.726 -0.2199 -1.0611  0.8895
 5944TIP3   OH239246   5.761   4.659  15.288 -0.2291 -0.1003  0.3489
 5944TIP3    H139247   5.850   4.634  15.314 -0.1534  0.9230  1.1231
 5944TIP3    H239248   5.707   4.636  15.364 -0.5828 -0.4717 -0.0147
 5945TIP3   OH239249   0.561   5.662   6.489  0.4356  0.5682 -0.4115
 5945TIP3    H139250   0.537   5.744   6.447  1.5569  0.1225 -1.9648
 5945TIP3    H239251   0.494   5.600   6.460  0.1284  0.7083 -0.0038
 5946TIP3   OH239252   1.734   2.250   5.755 -0.8919  0.0562 -0.1079
 5946TIP3    H139253   1.711   2.174   5.809  0.1723  0.3991  0.8431
 5946TIP3    H239254   1.817   2.281   5.791  0.0477  0.0524 -2.1976
 5947TIP3   OH239255   3.072   0.504  14.779 -0.8259 -0.3626  0.1073
 5947TIP3    H139256   3.138   0.436  14.779  0.3860  0.7781 -1.5967
 5947TIP3    H239257   2.989   0.458  14.765  0.0472 -1.4390 -1.6689
 5948TIP3   OH239258   4.782   2.899  16.111  0.0510  0.7288 -0.2842
 5948TIP3    H139259   4.773   2.985  16.070 -1.8703  0.2115 -0.9885
 5948TIP3    H239260   4.852   2.856  16.062 -0.1280  1.2629 -1.0049
 5949TIP3   OH239261   4.774   6.755   3.120  0.0439 -0.0750 -0.3651
 5949TIP3    H139262   4.688   6.793   3.139  0.1417  0.3883 -0.8357
 5949TIP3    H239263   4.767   6.721   3.031  0.1805 -0.5227 -0.2062
 5950TIP3   OH239264   0.510   2.342  16.425  0.1310  0.0907 -0.5472
 5950TIP3    H139265   0.445   2.380  16.485  2.0832  2.0259  0.4099
 5950TIP3    H239266   0.480   2.371  16.338  0.1465  1.6738 -0.0466
 5951TIP3   OH239267   6.358   0.544  13.606  0.2642  0.3786  0.1345
 5951TIP3    H139268   6.422   0.472  13.606 -0.1073  0.0485  0.0900
 5951TIP3    H239269   6.311   0.534  13.689 -1.3348 -0.8040 -0.8880
 5952TIP3   OH239270   1.246   5.362  12.589  0.0308  0.3725  0.0641
 5952TIP3    H139271   1.327   5.311  12.598 -0.9022 -0.7981  2.2874
 5952TIP3    H239272   1.266   5.446  12.629  0.6835  0.7523 -1.0229
 5953TIP3   OH239273   1.102   2.019  15.596 -0.0148 -0.4408  0.2980
 5953TIP3    H139274   1.122   2.049  15.508 -1.5249  0.4227  0.2351
 5953TIP3    H239275   1.182   1.976  15.626  0.5723 -0.5453 -1.4052
 5954TIP3   OH239276   3.897   3.396   0.067 -0.4271 -0.1701 -0.0224
 5954TIP3    H139277   3.891   3.308   0.030 -2.9609 -0.2529  0.5433
 5954TIP3    H239278   3.961   3.389   0.138 -2.4431 -2.1592  1.6565
 5955TIP3   OH239279   1.258   3.202   3.297 -0.3442  0.5555 -0.2781
 5955TIP3    H139280   1.290   3.289   3.273 -2.9616  1.7385  0.2618
 5955TIP3    H239281   1.228   3.164   3.214 -1.6837  1.2914 -0.1557
 5956TIP3   OH239282   0.375   5.556   3.661 -0.3338 -0.1293 -0.0515
 5956TIP3    H139283   0.453   5.606   3.687 -1.7959  0.7493  2.9131
 5956TIP3    H239284   0.328   5.614   3.601 -0.4239  0.7563  0.8682
 5957TIP3   OH239285   2.231   5.281   6.363 -0.3018  0.2246  0.2085
 5957TIP3    H139286   2.220   5.322   6.277  1.4353 -0.9630 -0.6185
 5957TIP3    H239287   2.222   5.187   6.345  0.4902 -0.0545  1.2479
 5958TIP3   OH239288   4.888   1.187  13.274  0.5780  0.2066  0.0027
 5958TIP3    H139289   4.941   1.256  13.235 -2.6158  0.9983 -3.2627
 5958TIP3    H239290   4.934   1.106  13.252 -0.1214  0.7743 -3.9053
 5959TIP3   OH239291   4.990   6.536   1.826 -0.5180  0.0088  0.3987
 5959TIP3    H139292   5.069   6.585   1.801  0.3898 -0.5569  2.0805
 5959TIP3    H239293   5.010   6.445   1.804 -0.9027 -0.0672  0.3589
 5960TIP3   OH239294   4.068   2.251  12.242  0.2676  0.0120 -0.1351
 5960TIP3    H139295   4.155   2.270  12.206  0.3860  0.3193  0.3143
 5960TIP3    H239296   4.077   2.265  12.336  0.0018 -0.9751  0.0377
 5961TIP3   OH239297   5.992   1.253   2.911  0.3097  0.3133 -0.0600
 5961TIP3    H139298   5.973   1.160   2.918  0.7366  0.3144  1.2980
 5961TIP3    H239299   5.913   1.292   2.875 -0.6724 -0.2868  1.3998
 5962TIP3   OH239300   0.138   4.594   1.564  0.3695 -0.0518  0.5968
 5962TIP3    H139301   0.161   4.687   1.572 -3.6749  1.0090  0.9254
 5962TIP3    H239302   0.135   4.562   1.654 -0.8924  0.2329  0.6668
 5963TIP3   OH239303   4.662   2.758   0.635 -0.2600  0.3657 -0.3851
 5963TIP3    H139304   4.728   2.770   0.567  0.2554 -2.5169 -0.4545
 5963TIP3    H239305   4.700   2.801   0.712  0.3106  1.3672 -1.2003
 5964TIP3   OH239306   1.711   4.126  13.698 -0.7456  0.5372 -0.2388
 5964TIP3    H139307   1.625   4.113  13.659 -0.5681 -0.9157 -0.1523
 5964TIP3    H239308   1.693   4.133  13.792 -0.5831 -1.6269 -0.0358
 5965TIP3   OH239309   0.962   1.745  12.815 -0.2413 -0.0891  0.0218
 5965TIP3    H139310   1.041   1.728  12.763 -0.7810 -1.3855 -0.3733
 5965TIP3    H239311   0.955   1.841  12.815  0.5351 -0.0087 -1.1369
 5966TIP3   OH239312   4.849   4.907   4.013  0.3260 -0.1441 -0.4531
 5966TIP3    H139313   4.863   4.860   4.096  0.0588  0.1110 -0.2645
 5966TIP3    H239314   4.784   4.974   4.034  0.7612  0.3605 -0.7062
 5967TIP3   OH239315   4.473   5.824  16.017  0.4865 -0.3372 -0.0379
 5967TIP3    H139316   4.562   5.849  16.042  1.0550  0.6945 -2.9187
 5967TIP3    H239317   4.437   5.903  15.976 -0.6812 -1.6762 -1.6164
 5968TIP3   OH239318   3.572   2.344  15.675 -0.3365  0.1356 -0.3502
 5968TIP3    H139319   3.562   2.249  15.678 -1.4163  0.2153 -1.0376
 5968TIP3    H239320   3.641   2.363  15.738 -0.6885 -1.0209  0.4054
 5969TIP3   OH239321   0.296   5.040  17.005  0.5520 -0.4222  0.2944
 5969TIP3    H139322   0.215   5.009  16.964  0.5745  0.9312 -0.8202
 5969TIP3    H239323   0.267   5.076  17.089  0.2817 -1.7753  0.7873
 5970TIP3   OH239324   2.720   4.609  11.068 -0.5000  0.1958 -0.0825
 5970TIP3    H139325   2.797   4.574  11.113  0.4039  1.3618 -0.6961
 5970TIP3    H239326   2.686   4.535  11.019  0.2549 -0.3200  0.1598
 5971TIP3   OH239327   4.342   1.418  15.370  0.1352  0.7369 -0.2397
 5971TIP3    H139328   4.392   1.474  15.429 -0.3176  2.4086 -1.3812
 5971TIP3    H239329   4.271   1.384  15.424  0.8205  0.7156  0.6534
 5972TIP3   OH239330   6.346   2.213  11.294  0.4919 -0.0011 -0.5330
 5972TIP3    H139331   6.377   2.195  11.383 -1.3430  1.6198  0.4787
 5972TIP3    H239332   6.415   2.266  11.255  0.4687  0.8627  0.5769
 5973TIP3   OH239333   0.840   6.488   4.633 -0.0226 -0.6576  0.3005
 5973TIP3    H139334   0.768   6.519   4.579  1.9964  0.9434 -1.5874
 5973TIP3    H239335   0.852   6.556   4.699  0.2703 -0.5060  0.0962
 5974TIP3   OH239336   0.852   4.803  15.089 -0.2485 -0.1302  0.4495
 5974TIP3    H139337   0.813   4.786  15.003 -0.4675 -1.0839  0.7357
 5974TIP3    H239338   0.777   4.805  15.149  0.0616 -1.2787  0.8924
 5975TIP3   OH239339   5.454   2.530   2.504  0.3942  0.0716 -0.6312
 5975TIP3    H139340   5.534   2.567   2.541 -0.4573  2.2594 -0.8794
 5975TIP3    H239341   5.468   2.436   2.504  1.4350  0.1558  2.8965
 5976TIP3   OH239342   3.236   6.275   4.055 -0.0854 -0.0139 -0.2241
 5976TIP3    H139343   3.198   6.346   4.003  0.4409 -0.0352 -0.6477
 5976TIP3    H239344   3.251   6.314   4.141 -1.0698 -0.0091 -0.0465
 5977TIP3   OH239345   3.775   2.083  13.640 -0.1772 -0.1316 -0.1828
 5977TIP3    H139346   3.840   2.065  13.572 -1.0781 -1.5483 -0.6882
 5977TIP3    H239347   3.759   2.177  13.634 -1.5458 -0.5208 -3.1043
 5978TIP3   OH239348   0.272   5.048   3.369  0.5885 -0.0447 -0.2142
 5978TIP3    H139349   0.232   5.076   3.287  0.6645  0.4709 -0.0730
 5978TIP3    H239350   0.198   5.036   3.429  0.5994  0.3153 -0.1319
 5979TIP3   OH239351   0.325   2.558  15.810  0.7447 -0.1072 -0.7046
 5979TIP3    H139352   0.344   2.590  15.899  1.3290  2.7287 -1.7983
 5979TIP3    H239353   0.409   2.560  15.765  0.5555 -2.0690 -1.2227
 5980TIP3   OH239354   4.281   4.081   1.997  0.2340  0.2234  0.2370
 5980TIP3    H139355   4.356   4.022   1.989  0.4137  0.3891  0.7136
 5980TIP3    H239356   4.205   4.023   1.994  0.3563  0.1156 -0.9058
 5981TIP3   OH239357   0.984   6.599   2.459 -0.3538  0.3706  0.6669
 5981TIP3    H139358   0.908   6.576   2.512 -0.7694  0.8594  0.2950
 5981TIP3    H239359   0.977   6.543   2.381  1.5036 -1.9985  2.1514
 5982TIP3   OH239360   0.565   2.423  12.420 -0.3908 -0.2279 -0.1361
 5982TIP3    H139361   0.597   2.510  12.444  0.0229 -0.2533 -0.5917
 5982TIP3    H239362   0.506   2.399  12.492 -0.5158  0.4292 -0.0094
 5983TIP3   OH239363   4.126   5.109  15.412  0.5262 -0.4815 -0.2717
 5983TIP3    H139364   4.078   5.109  15.495 -0.5201 -1.6667 -0.8540
 5983TIP3    H239365   4.206   5.158  15.431 -0.4981  0.7775  0.9655
 5984TIP3   OH239366   0.465   1.022  15.660  0.2037 -0.0543 -0.4298
 5984TIP3    H139367   0.491   1.093  15.601 -0.0232  0.3009 -0.1095
 5984TIP3    H239368   0.481   0.942  15.610 -0.2504  0.2493 -1.0745
 5985TIP3   OH239369   4.427   1.655  13.757 -0.3253  0.9215 -0.1627
 5985TIP3    H139370   4.461   1.681  13.843 -2.4589 -0.9055  1.2628
 5985TIP3    H239371   4.490   1.591  13.725  0.2089  1.2382  0.2419
 5986TIP3   OH239372   1.621   3.989   0.223  0.2337  0.5809 -0.2242
 5986TIP3    H139373   1.641   3.898   0.199  2.1354  0.9722 -0.2145
 5986TIP3    H239374   1.647   4.039   0.146 -0.8218  1.1296 -0.2284
 5987TIP3   OH239375   2.707   3.227   1.116  0.3457 -0.0777 -0.0739
 5987TIP3    H139376   2.772   3.279   1.161  0.3669  0.8839 -1.1909
 5987TIP3    H239377   2.625   3.274   1.129 -0.1769 -1.3434  1.4313
 5988TIP3   OH239378   4.144   2.695  16.215  0.2378 -0.0088  0.4528
 5988TIP3    H139379   4.142   2.734  16.127 -1.3843 -0.1743  0.4043
 5988TIP3    H239380   4.127   2.768  16.274 -0.7951 -0.2665  0.4880
 5989TIP3   OH239381   0.302   2.811   2.628 -0.9031 -0.2302  0.4498
 5989TIP3    H139382   0.292   2.826   2.722  1.0234 -0.8095  0.7671
 5989TIP3    H239383   0.344   2.725   2.622  0.5806  0.5668 -0.8691
 5990TIP3   OH239384   2.749   1.423   0.622 -0.6952 -0.0785 -0.8540
 5990TIP3    H139385   2.697   1.482   0.677 -1.8427  0.0951 -2.0868
 5990TIP3    H239386   2.792   1.364   0.684 -1.1817  0.7314  0.2770
 5991TIP3   OH239387   2.177   6.662  15.865  0.1043 -0.3885 -0.0466
 5991TIP3    H139388   2.174   6.756  15.881 -1.1327 -0.4954  0.3974
 5991TIP3    H239389   2.124   6.624  15.935 -0.9973 -1.2519 -1.3090
 5992TIP3   OH239390   3.906   1.740  17.226 -0.4207  0.1964  0.6006
 5992TIP3    H139391   3.922   1.723  17.133 -0.9368 -1.6204  0.8246
 5992TIP3    H239392   3.877   1.831  17.229  0.8663  0.6783 -0.8547
 5993TIP3   OH239393   4.695   2.496  15.240 -0.3989 -0.3953 -0.4468
 5993TIP3    H139394   4.731   2.418  15.282  0.2774 -0.8747 -1.8646
 5993TIP3    H239395   4.728   2.491  15.150  0.8155  2.2834 -0.1841
 5994TIP3   OH239396   2.585   4.138   0.679  0.6471  0.0899 -0.1299
 5994TIP3    H139397   2.564   4.070   0.743 -0.1843  0.0367 -0.4568
 5994TIP3    H239398   2.673   4.116   0.648 -0.3563 -1.9398 -1.6421
 5995TIP3   OH239399   2.226   3.986  15.021  0.9560 -1.2395  0.0986
 5995TIP3    H139400   2.193   3.898  15.002 -3.4174  0.4660 -0.8321
 5995TIP3    H239401   2.252   4.020  14.935 -0.9852 -0.3295 -0.1697
 5996TIP3   OH239402   4.873   4.620  17.120  0.1459 -0.3389 -0.2448
 5996TIP3    H139403   4.927   4.656  17.050  1.4773 -0.8690  0.5026
 5996TIP3    H239404   4.802   4.575  17.074  0.9460 -0.5930 -1.2416
 5997TIP3   OH239405   5.141   5.615  16.990 -0.1781  0.3712 -0.2772
 5997TIP3    H139406   5.102   5.533  17.021 -0.5072 -0.1055 -1.9105
 5997TIP3    H239407   5.092   5.683  17.037  0.2909 -0.3502  1.3021
 5998TIP3   OH239408   2.635   6.540  16.845 -0.3305 -0.4493  0.2200
 5998TIP3    H139409   2.563   6.533  16.907 -0.5862 -0.5100 -0.0820
 5998TIP3    H239410   2.711   6.507  16.893 -0.0229  1.7697  1.3352
 5999TIP3   OH239411   6.320   3.788   0.318  0.1916 -0.0216 -0.3348
 5999TIP3    H139412   6.354   3.714   0.267  1.2096 -0.4979  1.0387
 5999TIP3    H239413   6.321   3.862   0.256  0.6849 -0.7761 -1.2399
 6000TIP3   OH239414   2.666   0.377  17.184  0.1440 -0.0455 -0.7012
 6000TIP3    H139415   2.713   0.460  17.195 -0.6067  0.4383 -1.1411
 6000TIP3    H239416   2.681   0.330  17.266  0.5135  0.5482 -0.4256
 6001TIP3   OH239417   0.679   1.957  15.866 -0.6762  0.6251  0.2058
 6001TIP3    H139418   0.641   2.044  15.875 -0.1213  1.0697 -1.3868
 6001TIP3    H239419   0.768   1.966  15.900 -0.5060  0.7825 -0.2717
 6002TIP3   OH239420   0.818   1.955   4.975 -0.7344 -0.3756 -0.5083
 6002TIP3    H139421   0.809   1.936   4.882 -0.3451 -0.5028 -0.5181
 6002TIP3    H239422   0.743   1.911   5.015  0.0756 -1.8162 -0.5484
 6003TIP3   OH239423   4.347   5.687  14.535  0.0505  0.0186 -0.5620
 6003TIP3    H139424   4.360   5.781  14.548  1.0191 -0.0636 -0.8412
 6003TIP3    H239425   4.334   5.652  14.622  1.6276  0.1488 -0.2487
 6004TIP3   OH239426   6.557   3.319   0.739  0.4412  0.2211 -0.1930
 6004TIP3    H139427   6.554   3.401   0.691  1.7123  0.9583  0.9359
 6004TIP3    H239428   6.637   3.325   0.792 -0.3753 -0.9806  1.2281
 6005TIP3   OH239429   4.717   1.575   5.216 -0.2129 -0.7541  0.3104
 6005TIP3    H139430   4.656   1.567   5.143 -0.6044 -0.3234  0.5806
 6005TIP3    H239431   4.683   1.515   5.283 -0.7299 -0.0307  0.7130
 6006TIP3   OH239432   0.737   5.448   4.095  0.0583 -0.0002  0.0640
 6006TIP3    H139433   0.759   5.483   4.009  2.8763  0.0415  0.7299
 6006TIP3    H239434   0.652   5.487   4.116 -0.2228  0.7320 -2.2739
 6007TIP3   OH239435   6.084   2.256   0.874 -0.4046  0.0082  0.0670
 6007TIP3    H139436   6.038   2.291   0.798 -0.2241  0.1965  0.0479
 6007TIP3    H239437   6.061   2.163   0.875 -0.2317 -0.0368 -0.3397
 6008TIP3   OH239438   2.083   0.089  12.879 -0.4185 -0.0141 -0.0573
 6008TIP3    H139439   2.035   0.170  12.896  0.6562  0.8724 -1.2276
 6008TIP3    H239440   2.173   0.109  12.901  0.2204 -0.2385 -2.3493
 6009TIP3   OH239441   0.970   1.584   0.633 -0.1466 -0.1285  0.2302
 6009TIP3    H139442   0.889   1.553   0.592 -0.3004  0.2553  0.2423
 6009TIP3    H239443   1.007   1.506   0.674 -0.9855 -0.1247  1.0141
 6010TIP3   OH239444   4.232   0.642   1.950  0.3174  0.0090  0.3037
 6010TIP3    H139445   4.230   0.644   1.855  0.3921 -0.7780  0.2842
 6010TIP3    H239446   4.276   0.560   1.972  0.4382  0.2583  1.0145
 6011TIP3   OH239447   3.780   3.845   1.777  0.3805  0.7164  0.1511
 6011TIP3    H139448   3.705   3.893   1.742  0.5105 -0.0776 -1.2607
 6011TIP3    H239449   3.856   3.895   1.749  0.3818  1.5672  1.6555
 6012TIP3   OH239450   3.278   1.360   3.083 -0.0983  0.2447 -0.5668
 6012TIP3    H139451   3.193   1.369   3.040 -0.3273 -4.3359 -1.2647
 6012TIP3    H239452   3.262   1.299   3.155  2.1202  1.2479  0.8408
 6013TIP3   OH239453   2.185   2.207   0.449 -0.3183  0.2826  0.0219
 6013TIP3    H139454   2.255   2.192   0.512  1.0354 -1.0938 -1.7241
 6013TIP3    H239455   2.135   2.125   0.449  0.1056  0.0025 -1.1259
 6014TIP3   OH239456   2.584   0.164   6.198 -0.2222 -0.3226 -0.3888
 6014TIP3    H139457   2.537   0.218   6.135 -1.5172 -1.2721 -0.2414
 6014TIP3    H239458   2.647   0.115   6.145 -0.0282  0.2492 -0.6960
 6015TIP3   OH239459   2.302   1.956  11.649  0.8244  0.0949 -0.9609
 6015TIP3    H139460   2.264   1.884  11.700  2.2997 -1.2663 -1.7495
 6015TIP3    H239461   2.230   1.983  11.591  0.2137 -0.6507 -0.5717
 6016TIP3   OH239462   2.966   5.187   3.765 -0.5737  0.0395  0.5829
 6016TIP3    H139463   3.026   5.115   3.751  0.5241  0.7022  1.8560
 6016TIP3    H239464   2.923   5.199   3.680  0.7696 -0.7110 -0.2057
 6017TIP3   OH239465   0.948   4.150   3.344 -0.1401  0.3493 -0.1005
 6017TIP3    H139466   0.855   4.139   3.363 -0.3526 -0.9996 -1.8724
 6017TIP3    H239467   0.953   4.235   3.299 -0.4938  0.4409  0.0289
 6018TIP3   OH239468   5.973   1.705   6.423 -0.4468  0.2447  0.4283
 6018TIP3    H139469   6.043   1.647   6.453  1.3393  1.4626 -1.2718
 6018TIP3    H239470   5.916   1.715   6.499  1.5995 -0.2117  2.0727
 6019TIP3   OH239471   3.795   4.610   4.502 -0.5662  0.3228  0.1559
 6019TIP3    H139472   3.877   4.594   4.548 -0.2228 -0.4014 -0.6904
 6019TIP3    H239473   3.796   4.549   4.429 -1.0537  1.5379 -0.8828
 6020TIP3   OH239474   2.015   4.013  13.224 -0.4909  0.8275 -0.6076
 6020TIP3    H139475   1.978   4.036  13.310 -1.6523  1.2392 -1.2127
 6020TIP3    H239476   2.087   4.075  13.212  0.1436  0.2993  0.3904
 6021TIP3   OH239477   6.630   1.348   5.703 -0.1413 -0.0521 -0.4444
 6021TIP3    H139478   6.647   1.348   5.797 -0.8501 -1.5929 -0.3047
 6021TIP3    H239479   6.667   1.265   5.672 -1.2351 -0.2395 -1.2753
 6022TIP3   OH239480   3.810   2.163  12.817 -0.0386  0.0349 -0.2957
 6022TIP3    H139481   3.891   2.153  12.767  0.2166 -0.7430  0.2775
 6022TIP3    H239482   3.769   2.077  12.815  0.1499 -0.0989  1.1395
 6023TIP3   OH239483   2.264   3.913   3.969 -0.0760 -0.2602 -0.0209
 6023TIP3    H139484   2.193   3.849   3.966 -0.6288  0.3513  0.0505
 6023TIP3    H239485   2.321   3.889   3.896 -1.0099  0.0135 -0.8345
 6024TIP3   OH239486   4.562   5.673   3.109 -0.1082  0.4352 -0.1563
 6024TIP3    H139487   4.627   5.668   3.039  0.1241 -1.0983  0.1538
 6024TIP3    H239488   4.482   5.700   3.065  0.1089 -0.2118 -0.9690
 6025TIP3   OH239489   6.150   4.602   6.124  0.9474  0.1822  0.6591
 6025TIP3    H139490   6.159   4.684   6.076  1.6689  0.0420  0.5430
 6025TIP3    H239491   6.111   4.627   6.208  0.5115  0.5462  0.3449
 6026TIP3   OH239492   3.489   2.832   4.498 -0.6778  0.5013  0.2728
 6026TIP3    H139493   3.421   2.854   4.561  0.7489 -0.6780  2.2588
 6026TIP3    H239494   3.570   2.865   4.536  0.2506 -0.5542 -0.7375
 6027TIP3   OH239495   5.721   3.915  16.845 -0.0071 -0.4589  0.4792
 6027TIP3    H139496   5.750   3.932  16.756 -1.3280 -0.2941  0.0661
 6027TIP3    H239497   5.799   3.927  16.899  0.7429 -0.3239 -0.6263
 6028TIP3   OH239498   2.974   1.800  15.080 -0.1179  0.8338 -0.4267
 6028TIP3    H139499   2.909   1.799  15.010  0.0693 -0.0844 -0.5920
 6028TIP3    H239500   2.932   1.754  15.153  1.4426 -2.5419 -1.5527
 6029TIP3   OH239501   4.765   0.114  13.393 -0.1033 -0.5252  0.3229
 6029TIP3    H139502   4.824   0.050  13.434 -0.8021 -1.2097  0.2800
 6029TIP3    H239503   4.730   0.068  13.317 -2.5641 -1.0200  1.7023
 6030TIP3   OH239504   3.285   0.881  16.183  0.2028 -0.1585  0.5881
 6030TIP3    H139505   3.364   0.829  16.171  1.6820  1.8514  1.3852
 6030TIP3    H239506   3.233   0.832  16.247  0.6055 -1.6683 -0.2196
 6031TIP3   OH239507   5.710   4.563  14.301 -0.4376  0.0266 -0.1471
 6031TIP3    H139508   5.788   4.558  14.246  0.4303 -0.9671  1.1241
 6031TIP3    H239509   5.671   4.648  14.281  0.4625  0.1436 -1.4722
 6032TIP3   OH239510   2.622   0.239  12.762 -0.1036  0.0696 -0.8352
 6032TIP3    H139511   2.527   0.235  12.747 -0.0873 -0.1888 -0.8600
 6032TIP3    H239512   2.645   0.330  12.742 -0.4149  0.2381 -0.4268
 6033TIP3   OH239513   0.144   1.828  15.165  0.4565 -0.7981  0.3706
 6033TIP3    H139514   0.070   1.804  15.222  0.5017 -3.1448 -0.5017
 6033TIP3    H239515   0.197   1.748  15.161  0.8622 -0.4188 -2.3291
 6034TIP3   OH239516   0.307   3.989   4.035 -0.2574 -0.9404  0.4338
 6034TIP3    H139517   0.328   3.896   4.034  2.7560 -0.3170 -1.8312
 6034TIP3    H239518   0.380   4.030   4.082 -1.2254  0.3355  0.8540
 6035TIP3   OH239519   3.475   4.545   1.087 -0.1752  0.5811 -0.1929
 6035TIP3    H139520   3.548   4.487   1.107 -0.4040 -0.3723 -2.0357
 6035TIP3    H239521   3.491   4.624   1.139  1.5814 -0.0445  0.2218
 6036TIP3   OH239522   5.425   3.721   3.140  0.3277 -0.2284  0.2745
 6036TIP3    H139523   5.365   3.764   3.201  1.0812  0.7892  0.2932
 6036TIP3    H239524   5.370   3.696   3.066 -0.6864 -1.8711  1.5361
 6037TIP3   OH239525   1.472   5.792   6.472 -0.0092  0.1313  0.4031
 6037TIP3    H139526   1.499   5.821   6.385 -1.2924  0.2588  0.0375
 6037TIP3    H239527   1.377   5.796   6.470 -0.0469  0.2154  1.8470
 6038TIP3   OH239528   2.553   3.801   0.013 -0.4847  0.2353 -0.2621
 6038TIP3    H139529   2.548   3.712   0.046 -0.7552 -1.0314 -3.4791
 6038TIP3    H239530   2.463   3.833   0.016 -0.5815 -0.0394 -0.2381
 6039TIP3   OH239531   5.728   4.263  15.473 -0.5264 -0.1350  0.2034
 6039TIP3    H139532   5.788   4.276  15.546  0.5283 -0.3441 -0.5982
 6039TIP3    H239533   5.658   4.327  15.487 -0.1385  0.0823  1.1827
 6040TIP3   OH239534   3.592   5.492  16.936  0.2289  0.1022 -0.1006
 6040TIP3    H139535   3.558   5.408  16.904  0.1112  0.5200 -1.0989
 6040TIP3    H239536   3.614   5.476  17.028  0.2534 -1.0384 -0.2959
 6041TIP3   OH239537   4.543   6.191  14.706  0.3979  0.2701  0.0961
 6041TIP3    H139538   4.614   6.231  14.656  0.6441  0.0372  0.2608
 6041TIP3    H239539   4.573   6.102  14.724  0.2421  0.3037  0.5225
 6042TIP3   OH239540   1.391   6.404  15.322 -0.1573 -0.2506  0.2890
 6042TIP3    H139541   1.353   6.317  15.309 -0.6870  0.2823 -1.9109
 6042TIP3    H239542   1.438   6.398  15.406  0.0003 -2.7154  0.0460
 6043TIP3   OH239543   5.457   1.171   0.419 -0.0210 -0.4524 -0.2202
 6043TIP3    H139544   5.497   1.213   0.342 -0.4104  0.2828 -0.0194
 6043TIP3    H239545   5.530   1.154   0.478  0.1121  0.1120 -0.2236
 6044TIP3   OH239546   5.139   4.261  16.685  0.1589  0.1521 -0.9722
 6044TIP3    H139547   5.135   4.357  16.675  3.7150  0.3800 -1.1332
 6044TIP3    H239548   5.125   4.228  16.596 -0.2184  0.5878 -1.0791
 6045TIP3   OH239549   4.232   4.770   1.617  0.1578 -0.5215 -0.1528
 6045TIP3    H139550   4.141   4.793   1.638  0.5884  0.2418  0.8613
 6045TIP3    H239551   4.231   4.759   1.521 -0.5044  1.7284 -0.4389
 6046TIP3   OH239552   3.503   3.267   1.390 -0.3759 -0.2267  0.1952
 6046TIP3    H139553   3.427   3.278   1.333 -0.2787 -0.4408  0.0184
 6046TIP3    H239554   3.478   3.197   1.450 -1.3730  1.6072  1.9704
 6047TIP3   OH239555   0.369   0.765   0.376 -0.7951 -0.3212  0.3807
 6047TIP3    H139556   0.333   0.715   0.302 -1.2242  1.4005 -0.6133
 6047TIP3    H239557   0.363   0.857   0.347 -0.6815  0.3478  2.4414
 6048TIP3   OH239558   2.979   1.601  14.671 -0.0470 -0.1384  0.1899
 6048TIP3    H139559   2.996   1.600  14.765  1.5435 -0.0649 -0.0872
 6048TIP3    H239560   2.940   1.687  14.655 -0.8453 -0.3681  0.8613
 6049TIP3   OH239561   1.679   5.585  11.945  0.2850 -0.0175  0.0871
 6049TIP3    H139562   1.605   5.526  11.930  0.7804  0.0623 -2.9927
 6049TIP3    H239563   1.661   5.625  12.030 -1.2118 -2.8765  1.1809
 6050TIP3   OH239564   3.109   0.750   4.644 -0.2831 -0.1234 -0.1577
 6050TIP3    H139565   3.058   0.826   4.672 -0.3089  0.2582 -1.2308
 6050TIP3    H239566   3.199   0.782   4.639 -0.1717 -0.3807  0.1902
 6051TIP3   OH239567   2.654   2.725  15.062 -0.7737  0.0113  0.3152
 6051TIP3    H139568   2.643   2.820  15.059 -0.8995 -0.0300 -0.5512
 6051TIP3    H239569   2.641   2.697  14.972  0.8217 -0.6706  0.2942
 6052TIP3   OH239570   2.178   3.019  15.800  0.0039  0.2673  0.0876
 6052TIP3    H139571   2.261   2.973  15.817  0.5133  1.1559  0.0334
 6052TIP3    H239572   2.115   2.976  15.857  0.7481  0.3053  0.9490
 6053TIP3   OH239573   6.616   5.623  13.069 -0.0337  0.1462 -0.1437
 6053TIP3    H139574   6.693   5.607  13.013 -0.3577  0.4484 -0.6805
 6053TIP3    H239575   6.652   5.637  13.156  0.3806 -2.0955  0.0769
 6054TIP3   OH239576   1.656   5.229  14.907 -0.4237 -0.3305  0.2281
 6054TIP3    H139577   1.683   5.285  14.981  0.4137 -0.1147 -0.2364
 6054TIP3    H239578   1.736   5.184  14.881 -0.9892 -1.3615  0.2581
 6055TIP3   OH239579   1.088   2.649   1.701  0.0059  0.3990  0.0521
 6055TIP3    H139580   1.085   2.685   1.789  0.4509  3.9148 -1.2879
 6055TIP3    H239581   1.176   2.611   1.693 -0.8198 -2.0163  1.8167
 6056TIP3   OH239582   5.759   5.249  14.444  0.3487 -0.4821 -0.3666
 6056TIP3    H139583   5.716   5.252  14.529 -1.2854 -1.8873 -1.0911
 6056TIP3    H239584   5.705   5.188  14.393  2.0071 -0.6201 -2.0027
 6057TIP3   OH239585   6.144   5.820   5.394  0.2868 -0.1673  0.0795
 6057TIP3    H139586   6.074   5.792   5.335  0.9088 -0.3615 -0.5800
 6057TIP3    H239587   6.223   5.813   5.341  0.6339  1.3749  0.3807
 6058TIP3   OH239588   0.146   2.371  15.546  1.3076  0.2352 -0.0101
 6058TIP3    H139589   0.169   2.450  15.594  0.1551  0.4702  0.1822
 6058TIP3    H239590   0.202   2.303  15.582  1.9687  0.8651  0.1608
 6059TIP3   OH239591   4.637   1.720  14.326 -0.1023 -0.7682  0.3733
 6059TIP3    H139592   4.698   1.789  14.300 -0.6876 -0.8098 -1.2237
 6059TIP3    H239593   4.675   1.640  14.291 -1.2315 -0.7459 -0.9630
 6060TIP3   OH239594   5.977   0.367   2.975  0.2712 -0.2735 -0.0815
 6060TIP3    H139595   5.975   0.425   2.898 -1.8133  1.2960  1.1133
 6060TIP3    H239596   6.046   0.404   3.030  0.4924 -0.2750 -0.3559
 6061TIP3   OH239597   1.299   4.396   1.447 -0.2635  0.0702  0.2271
 6061TIP3    H139598   1.281   4.475   1.396 -0.2113 -0.4524 -0.6287
 6061TIP3    H239599   1.338   4.336   1.383 -0.2751 -0.6267  0.8747
 6062TIP3   OH239600   1.907   3.743   1.214  0.5511  0.2224  0.6713
 6062TIP3    H139601   1.944   3.820   1.171  0.4499  0.2624  0.6553
 6062TIP3    H239602   1.883   3.685   1.143 -2.4086  1.5386  0.4928
 6063TIP3   OH239603   4.440   2.745  12.660 -0.2181 -0.6708 -0.3140
 6063TIP3    H139604   4.379   2.673  12.645 -0.8883  0.2374 -2.1741
 6063TIP3    H239605   4.383   2.820  12.679  0.3190  0.0864 -1.6219
 6064TIP3   OH239606   3.553   1.478   1.564 -0.3688  0.3891 -0.1531
 6064TIP3    H139607   3.638   1.466   1.523 -0.5162 -2.0037  0.1646
 6064TIP3    H239608   3.569   1.535   1.639  0.4402  2.2581 -1.7275
 6065TIP3   OH239609   2.408   6.574  12.818 -0.6366  0.1070  0.0019
 6065TIP3    H139610   2.320   6.550  12.849 -0.8192 -1.5911 -1.7629
 6065TIP3    H239611   2.393   6.621  12.736  0.0825  0.4407  0.0581
 6066TIP3   OH239612   5.621   0.010   5.216  0.0668  0.0223  0.5677
 6066TIP3    H139613   5.553   0.009   5.283  0.4972 -0.6915  0.9996
 6066TIP3    H239614   5.667   0.093   5.230 -0.8489  0.6037  0.1325
 6067TIP3   OH239615   0.347   4.351   5.146  0.3543  0.2871  0.0359
 6067TIP3    H139616   0.281   4.311   5.202  0.1452 -2.1646 -1.8816
 6067TIP3    H239617   0.296   4.400   5.081  0.5300  0.9919  0.4221
 6068TIP3   OH239618   3.308   3.152  15.742  0.4499  0.0012  0.1788
 6068TIP3    H139619   3.252   3.087  15.785  1.2228  0.4782  1.9694
 6068TIP3    H239620   3.291   3.141  15.649 -1.1417 -1.2069  0.5906
 6069TIP3   OH239621   0.231   5.785  10.797  0.1796  0.0628 -0.8315
 6069TIP3    H139622   0.143   5.798  10.833 -0.3629 -0.9107 -1.7752
 6069TIP3    H239623   0.221   5.713  10.735  1.2533  1.1976 -2.3548
 6070TIP3   OH239624   3.366   0.027   1.568 -0.3427  0.1038  0.1948
 6070TIP3    H139625   3.351   0.052   1.659  1.0106  0.3419  0.3707
 6070TIP3    H239626   3.313  -0.051   1.555 -0.2888 -0.1233  1.2881
 6071TIP3   OH239627   5.436   1.415  11.248  0.0027  0.2673  0.0273
 6071TIP3    H139628   5.460   1.323  11.243 -0.5318 -0.1186  3.5945
 6071TIP3    H239629   5.341   1.415  11.246 -0.0016  0.7286  0.1702
 6072TIP3   OH239630   6.543   0.995   0.657  0.3857 -0.0817  0.5641
 6072TIP3    H139631   6.567   0.917   0.607 -0.4413 -0.5570  0.8973
 6072TIP3    H239632   6.547   1.066   0.593 -0.0494 -0.5834 -0.0306
 6073TIP3   OH239633   5.318   1.558  15.031  0.7510  0.8498  0.0800
 6073TIP3    H139634   5.252   1.592  14.971 -0.2633  0.0580  0.7190
 6073TIP3    H239635   5.393   1.536  14.975 -0.3023 -0.2029 -0.9618
 6074TIP3   OH239636   2.764   5.533   0.263 -0.5456  0.9449  0.0579
 6074TIP3    H139637   2.706   5.487   0.202 -1.9754  1.2714  1.1403
 6074TIP3    H239638   2.843   5.480   0.265 -0.9689  0.2421 -1.1182
 6075TIP3   OH239639   1.259   3.840   4.793 -0.2031  0.7517 -0.3266
 6075TIP3    H139640   1.263   3.841   4.889  0.2039 -0.3149 -0.3176
 6075TIP3    H239641   1.349   3.856   4.765  0.3365 -2.1124 -0.4581
 6076TIP3   OH239642   5.543   2.801   2.693  0.2257 -0.5801  0.1766
 6076TIP3    H139643   5.505   2.809   2.605  0.2318 -0.7701  0.1545
 6076TIP3    H239644   5.637   2.810   2.679  0.4440 -2.9047 -0.1655
 6077TIP3   OH239645   1.725   6.344   1.362 -0.3328  0.0987 -0.0628
 6077TIP3    H139646   1.785   6.375   1.429 -0.7733  0.7522  0.0368
 6077TIP3    H239647   1.742   6.401   1.287  0.4862 -0.9283 -0.6669
 6078TIP3   OH239648   0.272   2.013  15.030 -0.2828 -0.0809 -0.1145
 6078TIP3    H139649   0.341   2.018  15.097 -1.8339  3.0906  1.3736
 6078TIP3    H239650   0.213   1.945  15.061  0.3094 -0.3436  0.4561
 6079TIP3   OH239651   1.688   1.647   0.185  0.2209 -0.8730  0.4867
 6079TIP3    H139652   1.630   1.614   0.116  0.7070 -0.6249 -0.0347
 6079TIP3    H239653   1.702   1.739   0.164 -0.9604 -0.3654  1.8326
 6080TIP3   OH239654   3.975   0.506   1.349  0.5860  0.2534 -0.0978
 6080TIP3    H139655   4.016   0.428   1.386  1.6527  0.4263 -0.9039
 6080TIP3    H239656   3.919   0.539   1.419  0.6436 -0.8542  0.4802
 6081TIP3   OH239657   1.271   2.153  11.903 -0.1115  0.5120  0.2222
 6081TIP3    H139658   1.329   2.195  11.967  0.7776 -1.0099  0.4475
 6081TIP3    H239659   1.232   2.079  11.951 -0.1817 -0.0633 -0.7076
 6082TIP3   OH239660   4.645   6.332   3.629  0.0978 -0.4142  0.4532
 6082TIP3    H139661   4.563   6.339   3.580  0.4956  0.5786 -0.0798
 6082TIP3    H239662   4.709   6.303   3.564  0.3770 -0.2613  0.6600
 6083TIP3   OH239663   3.324   1.677  13.374 -0.2956  0.5754  0.2662
 6083TIP3    H139664   3.243   1.627  13.387 -0.3494  0.2524 -1.2849
 6083TIP3    H239665   3.328   1.736  13.450 -1.0625 -0.6392  1.2664
 6084TIP3   OH239666   5.838   1.987  13.384 -0.2152 -0.0519 -0.1987
 6084TIP3    H139667   5.840   2.044  13.307 -1.2245  0.3592  0.0738
 6084TIP3    H239668   5.791   1.909  13.355 -0.6482  0.1294  0.0257
 6085TIP3   OH239669   1.261   4.589   6.061  0.1071  0.3081  0.0712
 6085TIP3    H139670   1.166   4.588   6.058  0.0813  0.4887  0.7433
 6085TIP3    H239671   1.286   4.497   6.072 -0.1030  0.5558  2.8691
 6086TIP3   OH239672   3.270   5.073  16.573 -0.6953  0.6349 -0.1356
 6086TIP3    H139673   3.177   5.054  16.570 -0.5377 -0.4815  1.3109
 6086TIP3    H239674   3.289   5.085  16.666  0.3241  2.3069 -0.5535
 6087TIP3   OH239675   6.382   6.778  13.582 -0.2829 -0.1114  0.6082
 6087TIP3    H139676   6.319   6.716  13.545  0.8489 -0.4107 -0.8768
 6087TIP3    H239677   6.381   6.852  13.522  0.3334  0.1475  0.9059
 6088TIP3   OH239678   6.532   1.040   2.725  0.4282  0.0555  0.3667
 6088TIP3    H139679   6.592   1.085   2.666 -1.1193  1.3736 -0.2466
 6088TIP3    H239680   6.524   0.952   2.689  1.6172  0.0022  0.2026
 6089TIP3   OH239681   3.229   1.792  14.348 -0.3116  0.0477  0.7430
 6089TIP3    H139682   3.285   1.855  14.394 -0.0699  0.0821  0.4095
 6089TIP3    H239683   3.233   1.712  14.401  4.3761 -1.7509 -1.9441
 6090TIP3   OH239684   0.992   1.948  12.443 -0.0930  0.1997 -0.2860
 6090TIP3    H139685   1.019   2.022  12.388  0.3250 -0.0976 -0.4851
 6090TIP3    H239686   0.898   1.959  12.454 -0.3615 -0.2788 -1.9136
 6091TIP3   OH239687   3.440   1.631  14.192 -0.5974 -0.1305 -0.2782
 6091TIP3    H139688   3.414   1.722  14.209  2.9352  0.3570  3.2787
 6091TIP3    H239689   3.364   1.579  14.218 -1.2446  1.6447  1.4870
 6092TIP3   OH239690   3.836   1.611   6.364  0.0364 -0.1526  0.1717
 6092TIP3    H139691   3.805   1.533   6.318 -0.9209 -1.0157  2.2005
 6092TIP3    H239692   3.761   1.670   6.364 -0.1867 -0.4185  1.1364
 6093TIP3   OH239693   1.207   0.865  14.117  0.0577  0.1708  0.1565
 6093TIP3    H139694   1.195   0.774  14.090  1.2012 -0.2025  0.8826
 6093TIP3    H239695   1.121   0.905  14.103 -1.0427 -1.5268  1.7808
 6094TIP3   OH239696   4.480   3.240  11.780  0.1112  0.3517  0.2794
 6094TIP3    H139697   4.496   3.150  11.754  0.3096 -1.0453  4.8279
 6094TIP3    H239698   4.566   3.276  11.798 -0.1516  0.4796  1.3301
 6095TIP3   OH239699   1.390   5.127  12.032  0.0980 -0.1114  0.3770
 6095TIP3    H139700   1.445   5.097  11.959 -0.7363 -5.0384  1.6387
 6095TIP3    H239701   1.428   5.084  12.109 -1.7488  1.4649  2.2017
 6096TIP3   OH239702   4.928   1.390  13.990  0.2860 -0.2996  0.0417
 6096TIP3    H139703   4.939   1.295  13.999 -0.6033 -0.4207 -0.0886
 6096TIP3    H239704   4.952   1.425  14.076  0.4122 -0.6612  0.1534
 6097TIP3   OH239705   3.364   2.191  13.162 -0.8465 -0.1863 -0.2967
 6097TIP3    H139706   3.454   2.177  13.133 -0.7053 -2.5825  1.1491
 6097TIP3    H239707   3.328   2.254  13.100  1.3806 -0.2775 -1.7341
 6098TIP3   OH239708   1.943   1.819  16.448 -0.0059 -0.1170 -0.0787
 6098TIP3    H139709   1.863   1.810  16.499  0.0517  1.8146  0.4101
 6098TIP3    H239710   2.004   1.863  16.507  0.9039 -0.1608 -0.9640
 6099TIP3   OH239711   3.048   4.136   4.554 -0.1165  0.0390  0.4028
 6099TIP3    H139712   3.021   4.045   4.565  2.3575 -0.7357  0.3225
 6099TIP3    H239713   3.019   4.180   4.634 -0.8047 -0.9492  0.7027
 6100TIP3   OH239714   0.194   1.056   4.670 -0.3709 -0.4128 -0.3017
 6100TIP3    H139715   0.137   1.065   4.746 -0.6242 -0.7237 -0.4539
 6100TIP3    H239716   0.273   1.106   4.693 -0.7351  0.0817 -0.1204
 6101TIP3   OH239717   5.753   3.372  11.331 -0.4133 -0.3150  0.9744
 6101TIP3    H139718   5.689   3.301  11.327 -1.5729  0.7502  0.1210
 6101TIP3    H239719   5.815   3.352  11.260 -0.8709 -0.3542  0.5835
 6102TIP3   OH239720   1.000   3.473   5.259  0.8383  0.1302 -0.4679
 6102TIP3    H139721   1.059   3.466   5.183  1.1815  1.6719 -0.3643
 6102TIP3    H239722   1.057   3.502   5.330  0.3293 -0.3768  0.1436
 6103TIP3   OH239723   1.453   3.611  17.117  0.1251  0.4018 -0.6924
 6103TIP3    H139724   1.524   3.674  17.105  1.3696 -0.9174 -0.3102
 6103TIP3    H239725   1.448   3.564  17.034  1.8752 -1.7052  0.3528
 6104TIP3   OH239726   0.699   5.147  12.674 -0.4865  0.0397 -0.3155
 6104TIP3    H139727   0.627   5.086  12.688 -1.2772  1.0809  0.3008
 6104TIP3    H239728   0.658   5.221  12.628  0.6076 -0.2051 -1.7068
 6105TIP3   OH239729   3.112   0.427  13.072 -0.0679  0.0550  0.9097
 6105TIP3    H139730   3.065   0.347  13.095  0.6682 -0.8224 -0.5627
 6105TIP3    H239731   3.181   0.434  13.138  0.8503 -1.3970  0.1245
 6106TIP3   OH239732   6.668   6.283  15.607 -0.4743  0.1395 -0.3352
 6106TIP3    H139733   6.660   6.204  15.661  0.7029 -0.1885 -0.6056
 6106TIP3    H239734   6.695   6.352  15.668  0.1265 -0.0621 -0.3629
 6107TIP3   OH239735   4.916   2.338   4.229  0.3769 -0.1985 -0.0517
 6107TIP3    H139736   4.862   2.337   4.150  0.6098  0.4510 -0.2213
 6107TIP3    H239737   4.936   2.246   4.246 -0.1656 -0.3824 -0.4101
 6108TIP3   OH239738   2.174   0.898  16.282 -0.3624 -0.2292  0.1455
 6108TIP3    H139739   2.126   0.933  16.357 -3.2284 -0.7518 -1.3403
 6108TIP3    H239740   2.142   0.808  16.274  0.0408 -0.2276 -1.5654
 6109TIP3   OH239741   3.178   0.428   0.714 -0.0974  0.0469 -0.0839
 6109TIP3    H139742   3.154   0.359   0.652 -0.2504  1.4285 -1.5845
 6109TIP3    H239743   3.273   0.434   0.708  0.2061 -1.7618  1.9552
 6110TIP3   OH239744   5.511   4.549  16.283  0.3449 -0.6677  0.3430
 6110TIP3    H139745   5.580   4.560  16.349 -1.7751  0.8659  2.4168
 6110TIP3    H239746   5.466   4.469  16.309  0.4413 -0.8853 -0.1537
 6111TIP3   OH239747   4.709   3.821   3.026 -0.1597  0.4464  0.0041
 6111TIP3    H139748   4.757   3.813   2.944 -1.2182 -0.4696 -0.5369
 6111TIP3    H239749   4.766   3.779   3.091  0.2490  0.3161 -0.4356
 6112TIP3   OH239750   5.486   3.683   4.985  0.1589  0.3924 -0.2896
 6112TIP3    H139751   5.522   3.597   5.008  1.5585  0.8752 -0.6446
 6112TIP3    H239752   5.394   3.677   5.010 -0.1551 -1.7796 -1.7870
 6113TIP3   OH239753   0.622   2.890  10.783 -0.4439 -0.0337  0.6049
 6113TIP3    H139754   0.705   2.857  10.818 -0.4016 -1.2329 -0.5878
 6113TIP3    H239755   0.622   2.984  10.804  0.3751 -0.3922  2.2194
 6114TIP3   OH239756   0.568   2.223   0.962  0.1400 -0.3350 -0.0313
 6114TIP3    H139757   0.622   2.144   0.961 -1.3497 -1.3807  0.5147
 6114TIP3    H239758   0.538   2.230   1.053 -2.1345 -0.8098 -0.7201
 6115TIP3   OH239759   1.879   4.630  10.901  0.3549  0.0884 -0.2676
 6115TIP3    H139760   1.922   4.564  10.846  0.7206  0.6949 -0.7122
 6115TIP3    H239761   1.802   4.657  10.850 -0.0752 -0.3633  0.1419
 6116TIP3   OH239762   3.752   1.929   1.463  0.1176 -0.0622 -0.2369
 6116TIP3    H139763   3.826   1.989   1.457  0.7352 -0.8054 -0.1673
 6116TIP3    H239764   3.676   1.982   1.440  0.6325  0.7836 -0.0060
 6117TIP3   OH239765   6.261   6.153  16.291 -0.1991  0.0297  0.2426
 6117TIP3    H139766   6.222   6.078  16.335 -0.8009  1.8212  2.8431
 6117TIP3    H239767   6.231   6.146  16.200 -0.3572 -2.7512  0.4650
 6118TIP3   OH239768   5.117   3.381  15.338 -0.0991 -0.1600 -0.1510
 6118TIP3    H139769   5.076   3.299  15.365 -1.6031 -0.1244 -2.2227
 6118TIP3    H239770   5.108   3.439  15.413  0.1867 -1.6099  1.0071
 6119TIP3   OH239771   3.695   0.080  12.555  0.4076 -0.1174  0.1693
 6119TIP3    H139772   3.766   0.028  12.517  0.2591 -1.4432  1.6569
 6119TIP3    H239773   3.643   0.017  12.604 -2.5056  0.6281 -1.8499
 6120TIP3   OH239774   5.948   1.811  11.177 -0.6277 -0.1470  0.3417
 6120TIP3    H139775   5.920   1.753  11.106 -0.7774  0.8788 -0.4617
 6120TIP3    H239776   6.029   1.773  11.210 -0.5352 -0.6113 -0.4200
 6121TIP3   OH239777   1.116   2.995   6.270  0.6575 -0.0958  0.5097
 6121TIP3    H139778   1.140   2.935   6.340  1.8139  0.7557  0.8563
 6121TIP3    H239779   1.092   3.076   6.315  0.7700  0.2451 -0.0445
 6122TIP3   OH239780   2.844   0.015  13.356 -0.3079  0.6069 -0.4895
 6122TIP3    H139781   2.811   0.027  13.267  0.8216 -1.4965 -1.2486
 6122TIP3    H239782   2.918   0.074  13.362  1.0216 -0.8655 -1.7811
 6123TIP3   OH239783   1.286   0.044   1.321 -0.5078  1.0236 -0.2528
 6123TIP3    H139784   1.290   0.128   1.277 -2.0302  0.8245 -0.7945
 6123TIP3    H239785   1.328  -0.017   1.261 -0.8219  1.1065 -0.5546
 6124TIP3   OH239786   2.160   5.843  15.931  0.2143  0.2283 -0.2009
 6124TIP3    H139787   2.163   5.828  16.025 -0.6289  2.2569  0.1811
 6124TIP3    H239788   2.236   5.795  15.897  0.9526  0.0724  1.5951
 6125TIP3   OH239789   2.295   5.912  14.286  0.7730 -0.3952  0.0640
 6125TIP3    H139790   2.273   5.819  14.278 -0.2237 -0.0555 -1.4132
 6125TIP3    H239791   2.365   5.915  14.352  0.3160 -2.1062  0.6504
 6126TIP3   OH239792   5.877   3.538  11.908  0.3122 -0.3277 -0.2667
 6126TIP3    H139793   5.813   3.606  11.927  1.4196  1.2877 -2.1523
 6126TIP3    H239794   5.859   3.512  11.818  2.8493  0.8356 -1.1608
 6127TIP3   OH239795   3.363   4.993   0.864 -0.2180  0.3758  0.3233
 6127TIP3    H139796   3.445   4.964   0.904  0.1126  0.6984 -0.1070
 6127TIP3    H239797   3.332   4.916   0.816 -0.9784 -0.2313  1.7450
 6128TIP3   OH239798   2.685   4.150   2.849 -0.3963  0.5727  0.5396
 6128TIP3    H139799   2.633   4.222   2.813  0.1056  0.6524 -0.0235
 6128TIP3    H239800   2.636   4.071   2.827  0.6694  0.4949 -1.6842
 6129TIP3   OH239801   5.017   1.927   2.141  0.2277 -0.5073  0.8743
 6129TIP3    H139802   5.032   1.931   2.235  1.7658  2.2984  0.5719
 6129TIP3    H239803   4.970   2.007   2.120  3.1902  0.7894 -1.2409
 6130TIP3   OH239804   1.208   6.625  11.417  0.4931  1.1516 -0.0728
 6130TIP3    H139805   1.274   6.661  11.476  0.8066  2.2227 -1.0648
 6130TIP3    H239806   1.126   6.629  11.467  1.5222 -2.4456  2.0822
 6131TIP3   OH239807   4.310   2.065  15.095  0.8853 -0.0085  0.4745
 6131TIP3    H139808   4.324   2.075  15.001 -1.9537  1.8301  0.1922
 6131TIP3    H239809   4.265   1.981  15.103  1.9843 -0.6277  0.3215
 6132TIP3   OH239810   0.899   2.114  14.753  0.0618 -0.0084  0.4692
 6132TIP3    H139811   0.850   2.185  14.713  0.6995  0.1789  0.0032
 6132TIP3    H239812   0.905   2.137  14.846 -0.6080  0.0332  0.5022
 6133TIP3   OH239813   1.069   5.038   2.073 -0.0757  0.2849 -0.1966
 6133TIP3    H139814   1.046   5.118   2.026 -0.3565  0.1170 -0.3454
 6133TIP3    H239815   1.066   4.969   2.006 -1.7224 -0.1674  0.3146
 6134TIP3   OH239816   4.903   3.911  14.534  0.2678  0.3206  0.6990
 6134TIP3    H139817   4.855   3.993  14.538 -1.2091 -0.5312  0.8546
 6134TIP3    H239818   4.948   3.906  14.619 -0.3459  0.5615  1.0466
 6135TIP3   OH239819   2.444   3.095   4.811  0.1827  0.0307  0.9666
 6135TIP3    H139820   2.364   3.057   4.776  0.6136  0.6419 -0.7355
 6135TIP3    H239821   2.505   3.021   4.816  1.4753  0.6190 -3.6864
 6136TIP3   OH239822   1.399   6.255   4.549  0.2134  0.1208  0.3107
 6136TIP3    H139823   1.490   6.282   4.559  0.0197  0.3665  1.4316
 6136TIP3    H239824   1.348   6.321   4.596 -0.5463 -0.0677 -0.2190
 6137TIP3   OH239825   3.903   4.008   3.733  0.3581  0.0679  0.2856
 6137TIP3    H139826   3.964   4.064   3.781  0.9486 -1.1225  0.9431
 6137TIP3    H239827   3.907   3.924   3.778 -2.9589  0.3810  1.2984
 6138TIP3   OH239828   1.752   4.807  15.647  0.2072 -0.4309  0.3194
 6138TIP3    H139829   1.659   4.783  15.646  0.0862 -0.0857  1.8148
 6138TIP3    H239830   1.785   4.771  15.729  1.7814 -1.9338 -0.9420
 6139TIP3   OH239831   3.770   6.710  14.686  0.1227  0.5245  0.0810
 6139TIP3    H139832   3.830   6.719  14.760  0.8706  2.0125 -0.6894
 6139TIP3    H239833   3.813   6.647  14.627 -0.6640 -0.9755  1.0727
 6140TIP3   OH239834   6.582   0.455  15.189  1.0164  0.1168 -0.4951
 6140TIP3    H139835   6.506   0.438  15.134  0.9403 -0.7384 -0.1382
 6140TIP3    H239836   6.547   0.453  15.279  1.8707 -2.8751 -0.1555
 6141TIP3   OH239837   1.883   1.328   3.093 -0.4601  0.6112 -0.1887
 6141TIP3    H139838   1.840   1.339   3.178  0.2724  0.0447  0.2568
 6141TIP3    H239839   1.823   1.272   3.043 -0.0906 -0.4580  0.5494
 6142TIP3   OH239840   4.487   3.100   2.142 -0.0402 -0.2825  0.1127
 6142TIP3    H139841   4.428   3.108   2.067  0.8212  1.8237 -0.3838
 6142TIP3    H239842   4.456   3.023   2.189 -2.8826  0.4897 -0.3930
 6143TIP3   OH239843   3.751   2.405  11.873  0.1130 -0.5377  0.4498
 6143TIP3    H139844   3.821   2.469  11.879 -0.9728  0.8615 -1.2677
 6143TIP3    H239845   3.677   2.446  11.918 -0.9996  0.0470 -1.8445
 6144TIP3   OH239846   4.877   1.855  16.474  0.0132 -0.1762  0.2094
 6144TIP3    H139847   4.897   1.852  16.568 -1.2004 -0.4581  0.4809
 6144TIP3    H239848   4.926   1.782  16.437  0.7644  0.1397  0.5678
 6145TIP3   OH239849   1.930   6.008   1.509  0.2701 -0.1101 -0.0225
 6145TIP3    H139850   1.947   5.915   1.494  1.2205  0.4341 -2.6161
 6145TIP3    H239851   1.839   6.020   1.482  0.8124  0.1194 -1.7787
 6146TIP3   OH239852   5.795   5.400   0.943 -0.4900 -0.1755  0.5309
 6146TIP3    H139853   5.807   5.467   0.876 -0.9514 -0.4525  0.1651
 6146TIP3    H239854   5.865   5.337   0.926 -1.5407 -1.0413 -0.6800
 6147TIP3   OH239855   6.087   1.362   3.208 -0.0139 -0.8493 -0.1342
 6147TIP3    H139856   6.154   1.399   3.266  0.3435 -0.0068 -1.0575
 6147TIP3    H239857   6.119   1.383   3.120 -2.5423  1.4589 -0.5544
 6148TIP3   OH239858   4.935   2.060  12.721  0.1264 -0.1276 -0.1475
 6148TIP3    H139859   4.925   2.090  12.812 -1.5447  0.1815 -0.4172
 6148TIP3    H239860   4.975   1.973  12.729 -1.1306 -0.6270  0.9586
 6149TIP3   OH239861   3.064   2.920   6.018  0.6479 -0.3914 -0.5275
 6149TIP3    H139862   3.036   2.972   6.093  4.5407  0.6566  0.3546
 6149TIP3    H239863   3.093   2.837   6.056 -0.7411 -1.2596 -1.3306
 6150TIP3   OH239864   4.518   6.610   4.650 -0.1347 -0.2942  0.3515
 6150TIP3    H139865   4.426   6.589   4.665 -0.2683  1.4906  2.2477
 6150TIP3    H239866   4.563   6.583   4.730  1.1695 -1.9561 -0.8886
 6151TIP3   OH239867   4.396   3.856  14.578 -0.5472  0.2305 -0.1843
 6151TIP3    H139868   4.405   3.881  14.486 -0.4303 -0.3213 -0.3236
 6151TIP3    H239869   4.474   3.891  14.620 -1.9696  3.0256  0.2740
 6152TIP3   OH239870   6.398   1.964   1.452  0.3850  0.4498 -0.4742
 6152TIP3    H139871   6.433   1.877   1.471  0.5884  0.9135  1.3486
 6152TIP3    H239872   6.314   1.966   1.497  0.7461  1.4820  0.1561
 6153TIP3   OH239873   6.429   3.093   2.897  0.0049 -0.4914 -0.3141
 6153TIP3    H139874   6.504   3.044   2.932 -0.0245  0.1027  0.6117
 6153TIP3    H239875   6.460   3.127   2.813  1.5888  1.6660  1.0920
 6154TIP3   OH239876   6.061   3.222  16.968 -0.1886  0.2790 -0.1748
 6154TIP3    H139877   6.140   3.181  17.005 -1.1943 -1.1340  0.4660
 6154TIP3    H239878   6.088   3.311  16.947  0.8021  0.7315  2.7783
 6155TIP3   OH239879   4.226   3.803   4.997  0.6946  1.0128  0.0775
 6155TIP3    H139880   4.184   3.837   5.076  1.4948  1.1215  0.4625
 6155TIP3    H239881   4.225   3.877   4.936 -1.2224  0.5028 -0.5426
 6156TIP3   OH239882   2.723   5.696  14.391 -0.0208 -0.5448  0.3059
 6156TIP3    H139883   2.781   5.715  14.318  1.5697 -1.5812  1.2602
 6156TIP3    H239884   2.768   5.734  14.467 -2.2420  1.6347  0.6147
 6157TIP3   OH239885   3.144   0.622  16.722 -0.7421 -0.0243 -0.1556
 6157TIP3    H139886   3.064   0.626  16.670 -1.8486  2.0633  1.6436
 6157TIP3    H239887   3.114   0.618  16.813  1.1980  1.3806  0.5724
 6158TIP3   OH239888   2.378   4.974   4.217  0.0586 -0.2290 -0.1422
 6158TIP3    H139889   2.442   5.029   4.172 -1.6006 -0.1667 -2.4667
 6158TIP3    H239890   2.311   5.035   4.248 -1.1525 -0.7525 -1.6495
 6159TIP3   OH239891   2.186   0.662   1.884 -0.1296 -0.2487  0.3183
 6159TIP3    H139892   2.092   0.645   1.876  0.2763 -2.3720 -0.2111
 6159TIP3    H239893   2.193   0.716   1.962 -1.9389  1.2834 -0.5382
 6160TIP3   OH239894   6.290   4.403   2.303 -0.6240 -0.7162 -0.0922
 6160TIP3    H139895   6.240   4.343   2.359 -0.4273  1.3522  2.4031
 6160TIP3    H239896   6.375   4.412   2.347 -0.6036  1.2409 -0.4939
 6161TIP3   OH239897   2.705   6.760   0.509 -0.0053 -0.6472 -0.1449
 6161TIP3    H139898   2.706   6.778   0.603 -1.1553 -2.2346  0.2174
 6161TIP3    H239899   2.727   6.667   0.503  0.2702 -0.5009 -1.4669
 6162TIP3   OH239900   2.302   6.469   4.375  0.2334 -0.3243 -0.4399
 6162TIP3    H139901   2.393   6.498   4.381  0.4644 -1.0311 -0.4430
 6162TIP3    H239902   2.282   6.438   4.464 -0.0888  0.0802 -0.3722
 6163TIP3   OH239903   1.779   4.023  12.820  0.0239  0.5429  0.1014
 6163TIP3    H139904   1.697   3.973  12.821  0.1500  0.2501 -1.9912
 6163TIP3    H239905   1.773   4.081  12.896 -2.2361  0.6978 -0.1678
 6164TIP3   OH239906   0.135   5.510  10.888 -0.2060 -0.3804 -0.8869
 6164TIP3    H139907   0.105   5.428  10.848 -0.0038 -0.5698 -0.6479
 6164TIP3    H239908   0.073   5.576  10.856 -0.2818 -0.5997 -1.1976
 6165TIP3   OH239909   2.395   5.254  13.209 -0.2527  0.3524  0.2487
 6165TIP3    H139910   2.386   5.227  13.300  0.5321  0.3474  0.3255
 6165TIP3    H239911   2.336   5.196  13.161 -1.6812  1.2208  0.8992
 6166TIP3   OH239912   2.746   1.628  12.987  0.1027 -0.2432 -0.1364
 6166TIP3    H139913   2.715   1.540  12.966  1.3372 -0.9032  0.7359
 6166TIP3    H239914   2.668   1.675  13.016 -0.2920 -1.5205  0.9149
 6167TIP3   OH239915   0.076   5.949   3.421  0.4476  0.3032 -0.1402
 6167TIP3    H139916   0.084   6.016   3.353 -0.6983 -0.8808 -1.4875
 6167TIP3    H239917   0.053   5.997   3.500  1.1396  1.6426 -0.7447
 6168TIP3   OH239918   1.550   5.130  11.798  0.2893 -0.2856 -0.6631
 6168TIP3    H139919   1.632   5.080  11.809  1.2107  0.8624 -2.0713
 6168TIP3    H239920   1.567   5.185  11.721 -1.8857 -0.1638 -1.0636
 6169TIP3   OH239921   0.194   4.421  15.021  0.6952  0.0717  0.0068
 6169TIP3    H139922   0.195   4.515  15.035 -2.5863 -0.1443  2.1026
 6169TIP3    H239923   0.269   4.389  15.072  0.0217  1.2729  1.8055
 6170TIP3   OH239924   4.332   0.797  13.596  0.3383 -0.1546  0.5207
 6170TIP3    H139925   4.400   0.797  13.664  1.0774 -0.2350 -0.2069
 6170TIP3    H239926   4.290   0.712  13.605 -0.5624  0.4082  1.8489
 6171TIP3   OH239927   1.224   2.956  11.735 -0.0053  0.0358  0.5372
 6171TIP3    H139928   1.135   2.964  11.767 -0.7785 -1.6181 -1.1218
 6171TIP3    H239929   1.253   3.046  11.723 -2.2319  0.5929 -0.9654
 6172TIP3   OH239930   2.912   5.092  12.594  0.0937  0.3335  0.7836
 6172TIP3    H139931   2.831   5.124  12.634  0.7453 -0.2591  2.6477
 6172TIP3    H239932   2.972   5.082  12.668  1.6153  0.0119 -0.4778
 6173TIP3   OH239933   5.657   0.459  13.746  0.1286 -0.2573 -0.4195
 6173TIP3    H139934   5.745   0.458  13.707  0.4882  0.8721  0.3447
 6173TIP3    H239935   5.644   0.370  13.779  0.3718 -0.8529 -1.8641
 6174TIP3   OH239936   3.995   6.719  15.265 -0.0480 -0.5543  0.1935
 6174TIP3    H139937   3.941   6.666  15.206 -0.4889  0.2195 -0.1066
 6174TIP3    H239938   4.083   6.681  15.257  0.3957  0.9385 -2.7062
 6175TIP3   OH239939   1.945   4.494  11.208 -0.7431 -0.3298  0.3550
 6175TIP3    H139940   1.950   4.438  11.130 -0.7201  0.7918 -0.4600
 6175TIP3    H239941   2.014   4.559  11.196 -0.4542 -0.4054  1.5304
 6176TIP3   OH239942   0.497   5.660  13.790  0.1271 -0.0528 -0.0939
 6176TIP3    H139943   0.506   5.637  13.697 -1.2221 -0.6410 -0.1017
 6176TIP3    H239944   0.584   5.687  13.817  0.5520  0.0457 -1.5198
 6177TIP3   OH239945   0.016   6.739  14.169  0.6981  0.1088 -0.7030
 6177TIP3    H139946   0.022   6.804  14.239 -1.2694  2.7015 -2.8053
 6177TIP3    H239947   0.003   6.656  14.214 -1.0546  1.7858  2.0166
 6178TIP3   OH239948   3.586   6.259   2.042 -0.1435  0.1079 -0.1829
 6178TIP3    H139949   3.657   6.196   2.030 -1.8073 -1.8500  0.0082
 6178TIP3    H239950   3.547   6.268   1.955 -0.6949 -0.0954  0.0403
 6179TIP3   OH239951   6.770   5.176  12.248  0.3477  0.5388 -0.6783
 6179TIP3    H139952   6.761   5.272  12.249  0.3916  0.5383 -0.1905
 6179TIP3    H239953   6.836   5.157  12.314  0.4726  0.1811 -0.9049
 6180TIP3   OH239954   2.939   0.917   4.794  0.6072 -0.2580  0.1870
 6180TIP3    H139955   2.904   0.880   4.875  0.4320 -1.0763 -0.2600
 6180TIP3    H239956   2.884   0.995   4.778 -0.2105 -0.8356  0.1538
 6181TIP3   OH239957   2.118   2.944  12.775 -0.1557 -0.1687 -0.1055
 6181TIP3    H139958   2.025   2.943  12.753 -0.6210 -0.9838  1.8597
 6181TIP3    H239959   2.157   2.879  12.716 -0.8768 -0.0764 -0.6971
 6182TIP3   OH239960   1.864   6.147   1.175 -0.3130  0.1743  0.0067
 6182TIP3    H139961   1.916   6.198   1.112  0.9318  0.8742  1.5814
 6182TIP3    H239962   1.903   6.166   1.260 -1.9953 -0.7529  1.0165
 6183TIP3   OH239963   6.724   0.684   6.006 -0.6596 -0.0773 -0.5509
 6183TIP3    H139964   6.808   0.653   6.039 -0.4875 -0.0979 -0.9998
 6183TIP3    H239965   6.661   0.618   6.034 -0.5748  0.0965  0.0549
 6184TIP3   OH239966   0.987   0.990  11.975 -0.0660 -0.2359 -0.8700
 6184TIP3    H139967   1.052   0.936  12.020 -2.1342 -1.2013  1.0262
 6184TIP3    H239968   1.012   1.080  11.998  0.0889 -0.6332  0.5704
 6185TIP3   OH239969   1.859   3.096   5.650 -0.5241 -0.1790 -0.3146
 6185TIP3    H139970   1.845   3.132   5.737  2.1806  0.6598 -0.1713
 6185TIP3    H239971   1.885   3.005   5.665 -1.2873 -0.4126 -0.3492
 6186TIP3   OH239972   2.077   2.173  12.979 -0.8629  0.1093 -0.0312
 6186TIP3    H139973   1.982   2.183  12.993 -0.6491  1.8688  0.2837
 6186TIP3    H239974   2.094   2.218  12.896 -0.2662 -0.0828 -0.0149
 6187TIP3   OH239975   3.960   0.620  15.024 -0.5130 -0.0154  0.1138
 6187TIP3    H139976   4.014   0.689  15.062  0.6704 -1.8289  1.8641
 6187TIP3    H239977   3.966   0.548  15.087  0.0294 -2.5008 -2.6516
 6188TIP3   OH239978   1.569   3.645   4.009 -0.5177  0.4372 -0.2890
 6188TIP3    H139979   1.498   3.622   4.069 -1.3216  0.5174 -1.1958
 6188TIP3    H239980   1.593   3.735   4.033  1.6838 -0.7982  2.3380
 6189TIP3   OH239981   5.470   6.518   3.538 -0.4223  0.1628  0.2026
 6189TIP3    H139982   5.538   6.494   3.601 -1.1646 -0.9715  0.5852
 6189TIP3    H239983   5.418   6.584   3.583 -0.4735 -0.0631  0.4754
 6190TIP3   OH239984   3.189   1.591   6.082 -0.1461  0.2820 -0.2914
 6190TIP3    H139985   3.245   1.556   6.151  1.1874 -0.2635 -1.6106
 6190TIP3    H239986   3.104   1.605   6.124  0.3308 -1.0843  1.1794
 6191TIP3   OH239987   4.589   6.561   4.901 -0.3193  0.1519  0.3648
 6191TIP3    H139988   4.584   6.522   4.988 -2.7992  2.0756  1.1565
 6191TIP3    H239989   4.680   6.591   4.894 -0.1641  0.2813  2.4395
 6192TIP3   OH239990   0.817   3.047   3.857  0.0801 -0.4244 -0.4077
 6192TIP3    H139991   0.894   3.077   3.808  0.7434 -1.0447  0.2318
 6192TIP3    H239992   0.746   3.104   3.828  0.5743 -0.4558 -1.6948
 6193TIP3   OH239993   6.089   2.258  11.273 -0.4964  0.0850 -0.0818
 6193TIP3    H139994   6.179   2.228  11.281 -0.8752 -0.8429  0.8296
 6193TIP3    H239995   6.094   2.336  11.218  0.9422  0.4520  0.5598
 6194TIP3   OH239996   0.220   0.128   3.017 -0.5232 -0.0924  0.2840
 6194TIP3    H139997   0.236   0.218   3.046 -1.2018 -0.2729  1.2507
 6194TIP3    H239998   0.297   0.105   2.967 -0.1759  0.9089  0.3450
 6195TIP3   OH239999   2.031   6.501  16.331 -0.0292  0.1772 -0.0904
 6195TIP3    H140000   1.970   6.532  16.398  0.5846  0.5336  0.3097
 6195TIP3    H240001   2.083   6.434  16.376  0.1650  0.1870 -0.2996
 6196TIP3   OH240002   6.723   5.521   5.523  0.1104 -0.0100 -0.2377
 6196TIP3    H140003   6.646   5.466   5.505  0.4211 -0.0182 -1.5749
 6196TIP3    H240004   6.692   5.584   5.587 -0.7940 -0.5281 -0.1474
 6197TIP3   OH240005   6.145   0.973  12.704  0.3633 -0.2016 -0.6672
 6197TIP3    H140006   6.170   0.882  12.684 -0.0379 -0.0164 -2.0866
 6197TIP3    H240007   6.056   0.980  12.669 -0.7140 -0.1040  2.0293
 6198TIP3   OH240008   2.223   5.767   4.200  0.0586 -0.5310 -0.4898
 6198TIP3    H140009   2.162   5.803   4.136  0.5720  1.1114 -0.0753
 6198TIP3    H240010   2.229   5.833   4.269  3.2892 -0.0354 -1.1316
 6199TIP3   OH240011   6.446   4.308   2.698 -0.2270 -0.0397 -1.2724
 6199TIP3    H140012   6.417   4.226   2.657 -1.3022  0.4646 -1.5368
 6199TIP3    H240013   6.499   4.351   2.631 -1.9180  0.7481 -2.1371
 6200TIP3   OH240014   3.792   1.395  12.139  0.0617 -0.1011 -0.3918
 6200TIP3    H140015   3.812   1.488  12.153  1.1400 -0.4809  0.5570
 6200TIP3    H240016   3.741   1.395  12.057 -0.3324  1.3668 -0.1703
 6201TIP3   OH240017   2.260   1.049  12.402  0.4225 -0.2583 -0.2001
 6201TIP3    H140018   2.333   1.049  12.341  0.9847  0.3866  0.4513
 6201TIP3    H240019   2.219   1.135  12.390  1.6885  0.6408  1.6527
 6202TIP3   OH240020   0.285   0.505  15.216 -0.1021  0.1800  0.1119
 6202TIP3    H140021   0.344   0.509  15.140 -0.0655  2.1499  0.2396
 6202TIP3    H240022   0.200   0.481  15.178  0.4844 -1.4673 -0.2169
 6203TIP3   OH240023   4.284   1.952  16.081  0.0838 -0.3124 -0.1946
 6203TIP3    H140024   4.343   1.898  16.029  1.3308 -0.1912  1.0569
 6203TIP3    H240025   4.339   2.024  16.112 -1.0525  0.5295 -0.1005
 6204TIP3   OH240026   4.399   5.867   2.179 -0.8241 -0.2021  0.1244
 6204TIP3    H140027   4.464   5.797   2.189 -0.7037  0.0414  1.1430
 6204TIP3    H240028   4.450   5.947   2.190 -0.4691  0.1736 -3.6851
 6205TIP3   OH240029   1.831   5.350  16.802  0.0640  0.7683 -0.0708
 6205TIP3    H140030   1.764   5.287  16.775  0.0419  1.0540 -0.6843
 6205TIP3    H240031   1.897   5.348  16.733  1.9372 -1.3107  1.7098
 6206TIP3   OH240032   2.094   0.199   2.334  0.6921 -0.6353  0.6060
 6206TIP3    H140033   2.103   0.271   2.271 -0.1037 -1.1201 -0.0767
 6206TIP3    H240034   2.180   0.193   2.376  1.4172 -0.6979 -0.8552
 6207TIP3   OH240035   0.571   2.938   3.239  0.1339 -0.2640 -0.5515
 6207TIP3    H140036   0.625   2.903   3.168  0.8955 -3.8425  1.6753
 6207TIP3    H240037   0.624   3.009   3.277 -0.3536  1.8077 -3.5528
 6208TIP3   OH240038   3.889   0.322  11.985 -0.2760 -0.7123 -0.5601
 6208TIP3    H140039   3.813   0.293  11.934 -1.1789  0.5063  0.0566
 6208TIP3    H240040   3.874   0.415  11.999  1.2830 -0.4861 -0.3109
 6209TIP3   OH240041   0.509   3.319   4.746  0.8099  0.0358 -0.2677
 6209TIP3    H140042   0.537   3.408   4.727  0.6458  0.2406  0.4055
 6209TIP3    H240043   0.524   3.309   4.840  0.6946 -0.5961 -0.3139
 6210TIP3   OH240044   4.218   2.514   4.789 -0.8133  0.2182 -0.2091
 6210TIP3    H140045   4.231   2.505   4.884 -2.1750  4.1587  0.4657
 6210TIP3    H240046   4.304   2.537   4.755 -0.7346  0.8481  0.4037
 6211TIP3   OH240047   1.380   2.984  10.359 -0.1593  0.0043  0.4719
 6211TIP3    H140048   1.331   2.988  10.441  1.1566 -1.0609  1.3231
 6211TIP3    H240049   1.373   2.893  10.331  1.3749 -0.1659  0.6303
 6212TIP3   OH240050   1.262   4.871  10.638  0.6465  0.2780  0.2051
 6212TIP3    H140051   1.276   4.791  10.688  1.9402  0.3803  0.0091
 6212TIP3    H240052   1.167   4.880  10.634  0.4919 -1.3449  0.0622
 6213TIP3   OH240053   0.381   4.260  15.698 -0.0226  0.6494  0.3155
 6213TIP3    H140054   0.306   4.261  15.640 -0.2343  0.9262  0.5932
 6213TIP3    H240055   0.389   4.169  15.726  0.2414  0.4609 -0.3487
 6214TIP3   OH240056   2.008   5.975   5.037  0.0295 -0.0947 -0.1613
 6214TIP3    H140057   2.090   6.024   5.034 -0.1786  0.2221 -0.5718
 6214TIP3    H240058   1.941   6.041   5.057 -0.4815  0.0713 -2.3113
 6215TIP3   OH240059   2.171   3.947  16.182 -0.2448  0.0989 -0.1688
 6215TIP3    H140060   2.115   4.008  16.230  1.0461  0.2883  1.1079
 6215TIP3    H240061   2.120   3.866  16.179 -1.9023  1.1513 -1.7353
 6216TIP3   OH240062   2.381   3.918   1.282  0.8750 -0.5013 -0.1028
 6216TIP3    H140063   2.391   4.012   1.270 -1.3258 -0.1004  0.9226
 6216TIP3    H240064   2.389   3.904   1.377 -2.6641 -0.7713  0.2261
 6217TIP3   OH240065   4.982   3.951   3.951  0.2457  0.2059 -0.4449
 6217TIP3    H140066   4.993   3.870   3.902  0.7379 -1.1668  1.8322
 6217TIP3    H240067   5.071   3.979   3.972  0.0529  0.8833 -0.4940
 6218TIP3   OH240068   0.894   0.242   3.484 -0.4854  0.9316 -0.2796
 6218TIP3    H140069   0.867   0.208   3.569 -0.1327 -2.1733 -1.3591
 6218TIP3    H240070   0.814   0.280   3.446 -0.9501  1.0619  0.8334
 6219TIP3   OH240071   0.616   1.158   0.597 -0.1229  0.1839 -0.3531
 6219TIP3    H140072   0.673   1.132   0.669 -1.1093 -1.3741 -0.1111
 6219TIP3    H240073   0.626   1.088   0.532 -1.7153 -0.0854 -0.3304
 6220TIP3   OH240074   0.837   4.847  11.977  0.2641 -0.1713 -0.6127
 6220TIP3    H140075   0.888   4.916  12.020  1.6847 -1.6979  0.2267
 6220TIP3    H240076   0.889   4.824  11.899 -0.3239 -0.1304 -1.0195
 6221TIP3   OH240077   1.815   3.504  11.301 -0.4192 -0.0718  0.0238
 6221TIP3    H140078   1.769   3.562  11.239  2.3574  3.3556  1.0196
 6221TIP3    H240079   1.878   3.456  11.247  0.1176  0.9026 -0.2252
 6222TIP3   OH240080   1.611   1.404  15.541 -0.2437 -0.2795 -0.2397
 6222TIP3    H140081   1.580   1.313  15.539  0.2080 -0.4085 -2.1117
 6222TIP3    H240082   1.694   1.401  15.588  0.5432 -1.0854 -1.6763
 6223TIP3   OH240083   1.299   2.367  14.080 -0.3475 -0.3247 -0.3140
 6223TIP3    H140084   1.392   2.376  14.103 -0.1275  1.8418 -1.9523
 6223TIP3    H240085   1.256   2.343  14.162  1.8808 -2.9891  0.1427
 6224TIP3   OH240086   3.882   5.154  15.270  0.0339  0.0264  0.3396
 6224TIP3    H140087   3.851   5.086  15.210 -1.0591  0.1258  0.7714
 6224TIP3    H240088   3.927   5.106  15.339  1.9097 -0.0418 -0.8953
 6225TIP3   OH240089   5.059   2.963   2.534 -0.7894 -0.2765  0.0670
 6225TIP3    H140090   4.989   2.954   2.469 -0.3884  1.0931 -0.5890
 6225TIP3    H240091   5.131   3.004   2.486 -0.5721  0.9972  1.4466
 6226TIP3   OH240092   4.688   4.070  13.728 -0.3296 -0.1790 -0.1456
 6226TIP3    H140093   4.686   4.109  13.641 -1.0926  1.1953  0.4575
 6226TIP3    H240094   4.693   3.976  13.713  0.9704  0.1157 -1.6476
 6227TIP3   OH240095   6.284   1.056   1.469 -0.1703 -0.1218 -0.3798
 6227TIP3    H140096   6.341   1.023   1.400  1.7958  0.0674  1.0867
 6227TIP3    H240097   6.257   0.978   1.517 -1.0226 -0.1958 -0.9733
 6228TIP3   OH240098   4.928   6.525  16.815  0.6096  0.0819 -0.2194
 6228TIP3    H140099   4.961   6.544  16.727 -0.8741 -0.1905 -0.8458
 6228TIP3    H240100   4.833   6.533  16.808  0.4949  0.5006  1.4741
 6229TIP3   OH240101   1.389   2.934  15.333  0.3441  0.8032 -0.3721
 6229TIP3    H140102   1.439   3.016  15.343 -1.2259  1.7300 -0.0104
 6229TIP3    H240103   1.440   2.869  15.381  2.4285  1.1949 -1.9480
 6230TIP3   OH240104   2.708   4.313   5.127  0.2995 -0.2244 -0.0358
 6230TIP3    H140105   2.721   4.407   5.124 -1.5863  0.0477 -0.5786
 6230TIP3    H240106   2.613   4.302   5.139  0.6790 -2.0264  1.6665
 6231TIP3   OH240107   2.183   3.111   1.458  0.3353 -0.1714 -0.5563
 6231TIP3    H140108   2.178   3.197   1.417  0.1220  0.9204  1.6724
 6231TIP3    H240109   2.115   3.060   1.414 -0.7226  1.3295 -0.7038
 6232TIP3   OH240110   6.056   3.658   2.371 -0.0422  0.2890 -0.1678
 6232TIP3    H140111   6.091   3.631   2.286  1.2794  0.8788  0.1773
 6232TIP3    H240112   6.017   3.744   2.354 -0.9570 -0.1797 -0.4603
 6233TIP3   OH240113   1.775   5.937   5.767  0.4772 -0.7088  0.2821
 6233TIP3    H140114   1.821   5.982   5.838  1.1935  0.6281 -0.9965
 6233TIP3    H240115   1.802   5.983   5.687 -0.5077 -2.0150 -0.8443
 6234TIP3   OH240116   1.033   2.341  16.484 -0.3018 -0.1341 -0.0951
 6234TIP3    H140117   0.946   2.303  16.473  0.1826 -1.7402  1.4777
 6234TIP3    H240118   1.088   2.295  16.420  0.0229 -1.2378  0.9698
 6235TIP3   OH240119   5.854   0.862  15.269 -0.0356  0.0408  0.2824
 6235TIP3    H140120   5.793   0.904  15.329  0.9139  0.6188  0.8501
 6235TIP3    H240121   5.906   0.933  15.232 -1.5893 -0.1250 -2.3818
 6236TIP3   OH240122   1.672   1.900   5.542 -0.3057 -0.0766  1.4203
 6236TIP3    H140123   1.635   1.818   5.575 -0.0069 -1.0277 -0.5653
 6236TIP3    H240124   1.755   1.909   5.589  0.4520 -1.7729  0.4457
 6237TIP3   OH240125   2.124   0.449  12.122  0.0745  0.1791  0.3278
 6237TIP3    H140126   2.089   0.382  12.180 -0.4408  0.6734  0.5897
 6237TIP3    H240127   2.049   0.505  12.102  0.1449 -0.2549 -1.1809
 6238TIP3   OH240128   4.740   4.038   3.943 -0.1081  0.0633  0.4481
 6238TIP3    H140129   4.833   4.015   3.944  0.4526  2.2649  0.2129
 6238TIP3    H240130   4.698   3.965   3.897  1.5182 -0.8213  0.3177
 6239TIP3   OH240131   5.203   1.598  16.660 -0.0229  0.3453  0.6759
 6239TIP3    H140132   5.235   1.510  16.679  0.6263  0.8618  1.9864
 6239TIP3    H240133   5.149   1.587  16.582  1.8307 -0.8440 -0.4651
 6240TIP3   OH240134   1.062   6.619  14.720  0.2246 -0.0764  0.2526
 6240TIP3    H140135   1.142   6.581  14.683  0.6879  2.7822 -1.7804
 6240TIP3    H240136   1.086   6.642  14.809  1.1368 -0.8069  0.2104
 6241TIP3   OH240137   6.251   0.375   5.707  0.6494  0.2296 -0.9541
 6241TIP3    H140138   6.270   0.458   5.662 -1.3453  0.2080 -1.8464
 6241TIP3    H240139   6.177   0.395   5.764 -0.2554 -1.1194 -1.6565
 6242TIP3   OH240140   2.634   0.180   3.885  0.0947  0.0009  0.2472
 6242TIP3    H140141   2.569   0.239   3.924  0.7354  0.6422  0.3371
 6242TIP3    H240142   2.632   0.103   3.941  0.3438  0.5468  1.0069
 6243TIP3   OH240143   1.531   2.239  16.590  0.0982 -0.3907 -0.0644
 6243TIP3    H140144   1.528   2.173  16.659  0.3229  0.9564  1.2373
 6243TIP3    H240145   1.612   2.219  16.542  0.3704 -0.8151  0.5643
 6244TIP3   OH240146   0.422   4.666  15.940  0.3383  0.1612 -0.3866
 6244TIP3    H140147   0.373   4.602  15.991 -0.4375  0.1987 -1.0790
 6244TIP3    H240148   0.461   4.615  15.869 -0.5224  0.4967 -1.1086
 6245TIP3   OH240149   4.979   0.292  12.629 -0.6966  0.6889 -0.3929
 6245TIP3    H140150   5.016   0.253  12.708  0.9391  0.2584 -1.3375
 6245TIP3    H240151   4.942   0.219  12.580  2.8775  0.1517 -2.4340
 6246TIP3   OH240152   5.663   5.165  12.007 -0.6127  0.2040  0.2564
 6246TIP3    H140153   5.647   5.071  12.011 -1.4989  0.4312  3.3912
 6246TIP3    H240154   5.755   5.175  12.031 -0.6894  0.1802  0.5602
 6247TIP3   OH240155   0.160   6.545  11.788  0.4150  0.5398 -0.1801
 6247TIP3    H140156   0.123   6.557  11.701 -0.2948  2.1059  0.3198
 6247TIP3    H240157   0.251   6.574  11.780  0.4425  0.3812 -0.4596
 6248TIP3   OH240158   0.092   4.345  12.578 -1.0232  0.0493  0.1249
 6248TIP3    H140159   0.177   4.388  12.592 -0.9825 -0.1289  0.4156
 6248TIP3    H240160   0.105   4.256  12.609 -0.9212 -0.3556 -1.0550
 6249TIP3   OH240161   5.232   4.580  14.866 -0.1483  0.5526  0.5834
 6249TIP3    H140162   5.294   4.577  14.793 -0.6405  0.8101  0.1503
 6249TIP3    H240163   5.192   4.493  14.867  1.1676 -0.0561  1.6990
 6250TIP3   OH240164   2.131   1.272  15.970 -0.1039  0.5735  0.6881
 6250TIP3    H140165   2.100   1.193  16.015  1.8895 -0.3645  0.4455
 6250TIP3    H240166   2.153   1.332  16.041 -0.4705  0.4554  0.9030
 6251TIP3   OH240167   3.895   0.764  13.999 -0.5483  0.5158  0.1506
 6251TIP3    H140168   3.975   0.805  13.965 -0.9026  2.7188  1.9288
 6251TIP3    H240169   3.824   0.805  13.950 -0.6443 -1.6926 -1.6814
 6252TIP3   OH240170   1.506   3.735  12.551 -0.2520 -0.0270 -0.3914
 6252TIP3    H140171   1.478   3.735  12.643  1.9194 -0.5812  0.2840
 6252TIP3    H240172   1.530   3.826  12.533  1.9885 -0.4231  0.4458
 6253TIP3   OH240173   3.479   3.210  14.825  0.6020 -0.0493  0.4086
 6253TIP3    H140174   3.543   3.149  14.788 -0.8640 -0.6659 -1.1369
 6253TIP3    H240175   3.484   3.194  14.920  1.5224 -1.2874  0.1755
 6254TIP3   OH240176   5.500   0.679  16.060  0.1241 -0.1133 -0.1674
 6254TIP3    H140177   5.462   0.659  16.146 -1.4472  1.4140 -0.4767
 6254TIP3    H240178   5.580   0.626  16.056 -1.1116 -2.1338  1.1876
 6255TIP3   OH240179   6.111   1.582  11.952 -0.7011  0.1066 -1.3286
 6255TIP3    H140180   6.118   1.651  11.886 -0.5756 -2.1258 -3.7215
 6255TIP3    H240181   6.017   1.563  11.957 -0.6868  0.1087 -1.0198
 6256TIP3   OH240182   3.287   4.129  13.091  0.7600 -0.2696  0.2979
 6256TIP3    H140183   3.342   4.186  13.144  0.4442  0.9705 -0.7105
 6256TIP3    H240184   3.276   4.050  13.145  0.2510  1.0596  2.1686
 6257TIP3   OH240185   2.700   3.315  14.788  0.4296  0.1558 -0.4591
 6257TIP3    H140186   2.658   3.262  14.720  0.5072 -2.8556  1.7392
 6257TIP3    H240187   2.629   3.370  14.823 -0.2692 -0.4110 -0.9817
 6258TIP3   OH240188   0.422   1.500   0.426  0.3946  0.3140  0.2403
 6258TIP3    H140189   0.483   1.513   0.498  0.6630  1.6918 -0.2292
 6258TIP3    H240190   0.426   1.581   0.375  0.1300 -0.5961 -1.2711
 6259TIP3   OH240191   1.463   6.312   2.933  0.0132 -0.9348  0.2586
 6259TIP3    H140192   1.457   6.408   2.932 -1.1467 -0.9993  0.1150
 6259TIP3    H240193   1.553   6.294   2.958  0.2948  0.2002  0.1075
 6260TIP3   OH240194   4.412   5.388   3.962 -0.5284 -0.4934 -0.3985
 6260TIP3    H140195   4.454   5.451   4.020  0.6186 -0.7886 -0.8930
 6260TIP3    H240196   4.481   5.325   3.941 -0.9773 -0.5026 -1.9230
 6261TIP3   OH240197   3.251   6.713   3.376 -0.4007 -1.2039  0.5292
 6261TIP3    H140198   3.188   6.672   3.318 -0.7307 -0.1560  0.1455
 6261TIP3    H240199   3.332   6.663   3.362 -0.8377 -1.8242  0.1899
 6262TIP3   OH240200   5.794   6.326   0.239 -0.0344  0.2232  0.3147
 6262TIP3    H140201   5.816   6.234   0.228 -2.2580 -0.4435  1.1258
 6262TIP3    H240202   5.863   6.373   0.191  0.5024 -1.8712 -1.0527
 6263TIP3   OH240203   2.214   4.066   5.088  0.7659  1.1849 -0.4119
 6263TIP3    H140204   2.202   4.053   4.994  0.9267  1.1135 -0.4217
 6263TIP3    H240205   2.128   4.093   5.120  0.3659 -0.0915 -0.3589
 6264TIP3   OH240206   3.601   2.273   5.040  0.0265 -0.1254  0.5040
 6264TIP3    H140207   3.536   2.212   5.005 -0.6658  0.3772  0.8972
 6264TIP3    H240208   3.584   2.274   5.134  0.8527 -0.2751  0.6533
 6265TIP3   OH240209   4.413   0.226  15.377  0.2438 -0.0181  0.0848
 6265TIP3    H140210   4.394   0.165  15.449 -0.5580 -0.5156 -0.5430
 6265TIP3    H240211   4.419   0.170  15.300  1.7699  0.4438 -0.1417
 6266TIP3   OH240212   1.823   0.956   1.156  0.2743 -0.3151 -0.1113
 6266TIP3    H140213   1.824   0.879   1.099  0.0565 -0.3434 -0.0756
 6266TIP3    H240214   1.768   0.932   1.230  1.1372 -0.5254  0.4648
 6267TIP3   OH240215   4.928   3.933  13.901 -0.3224 -0.1593 -0.1937
 6267TIP3    H140216   5.001   3.970  13.952  1.7244 -0.5961 -2.7091
 6267TIP3    H240217   4.927   3.840  13.924 -0.2525 -0.0960  0.0663
 6268TIP3   OH240218   2.594   1.212   0.408 -0.0546 -0.0526 -0.3371
 6268TIP3    H140219   2.611   1.306   0.396  1.4042  0.0252  1.9271
 6268TIP3    H240220   2.648   1.188   0.483  1.6233 -3.2795 -2.4345
 6269TIP3   OH240221   1.913   1.800   4.398 -0.1062 -0.1260  0.1058
 6269TIP3    H140222   1.828   1.824   4.436  0.7945  0.1698  1.9660
 6269TIP3    H240223   1.942   1.879   4.352 -0.1938  0.2231  0.6465
 6270TIP3   OH240224   2.969   1.042  15.917 -0.0702 -0.3796 -0.0422
 6270TIP3    H140225   2.996   0.970  15.975 -0.5965 -0.4654  0.0998
 6270TIP3    H240226   2.926   1.104  15.976 -1.7308 -1.0478 -0.5283
 6271TIP3   OH240227   6.325   1.110  16.826  0.5423 -0.5349 -0.3127
 6271TIP3    H140228   6.334   1.030  16.879 -1.1234 -0.7991 -0.3871
 6271TIP3    H240229   6.397   1.105  16.763  2.4662 -0.3041  1.7951
 6272TIP3   OH240230   5.944   6.368   2.987 -0.1667 -0.0192  0.3119
 6272TIP3    H140231   5.996   6.412   3.055 -0.1435 -1.5863  1.3301
 6272TIP3    H240232   5.859   6.411   2.991 -0.3960 -0.5875  1.8457
 6273TIP3   OH240233   1.449   4.358  13.473 -0.1730 -0.8153 -0.6122
 6273TIP3    H140234   1.528   4.370  13.526 -1.3825  0.8678  0.8223
 6273TIP3    H240235   1.451   4.431  13.411 -0.4297 -0.9701 -0.8013
 6274TIP3   OH240236   2.493   0.377   3.501  0.5412  0.0801  0.3369
 6274TIP3    H140237   2.413   0.362   3.552  0.8622 -0.1292  0.7805
 6274TIP3    H240238   2.544   0.437   3.555 -0.0156  1.4925 -0.6789
 6275TIP3   OH240239   6.557   1.437   0.724  0.7632  0.1145  0.1367
 6275TIP3    H140240   6.614   1.363   0.747  0.3260 -0.1680  0.3081
 6275TIP3    H240241   6.599   1.477   0.648  0.1003 -1.3258 -1.0073
 6276TIP3   OH240242   2.256   1.245   2.599 -0.5401 -0.6053 -0.4338
 6276TIP3    H140243   2.161   1.238   2.591 -0.5198 -2.2054  0.6201
 6276TIP3    H240244   2.271   1.336   2.625 -1.8871 -0.7453  0.8792
 6277TIP3   OH240245   1.657   1.395  13.537  0.6245  0.3035 -0.1638
 6277TIP3    H140246   1.575   1.433  13.570 -0.3888 -1.0857 -1.0099
 6277TIP3    H240247   1.717   1.401  13.611 -1.2287 -1.5691  1.5666
 6278TIP3   OH240248   0.710   2.326   5.654  0.3352 -0.0247  0.1657
 6278TIP3    H140249   0.659   2.332   5.574  1.0464  0.2090 -0.2768
 6278TIP3    H240250   0.736   2.417   5.672 -0.1759 -0.0150  0.8976
 6279TIP3   OH240251   1.823   2.274  11.983 -0.2188  0.3187 -0.1863
 6279TIP3    H140252   1.777   2.319  12.054  0.2977  1.5802 -0.6383
 6279TIP3    H240253   1.893   2.335  11.957  0.5297 -0.7680 -0.7741
 6280TIP3   OH240254   4.140   4.894   5.497 -0.4604 -0.1876 -0.1379
 6280TIP3    H140255   4.190   4.868   5.420 -0.9891  0.0995 -0.5848
 6280TIP3    H240256   4.202   4.888   5.569 -0.0936 -0.9346 -0.5122
 6281TIP3   OH240257   4.535   1.305  12.842 -0.1234 -0.0402  0.2144
 6281TIP3    H140258   4.624   1.326  12.870  0.3216  0.3701 -1.4266
 6281TIP3    H240259   4.520   1.216  12.875  1.7733 -1.0414 -1.4732
 6282TIP3   OH240260   5.533   0.117  15.296  0.1824  0.1874  0.0373
 6282TIP3    H140261   5.465   0.052  15.280 -0.4168  1.1748 -1.4968
 6282TIP3    H240262   5.608   0.087  15.244 -0.5583  1.4355 -1.8129
 6283TIP3   OH240263   5.400   3.197  11.756  0.0942  0.4161 -0.2249
 6283TIP3    H140264   5.473   3.258  11.746  0.0101  0.8576  1.7961
 6283TIP3    H240265   5.322   3.248  11.735  0.1492  0.5914  0.0035
 6284TIP3   OH240266   4.443   3.037   4.622  0.0669  0.3668 -0.3341
 6284TIP3    H140267   4.373   2.991   4.576 -0.2615 -1.4838  1.9160
 6284TIP3    H240268   4.398   3.101   4.676  0.2988  0.9239 -0.7935
 6285TIP3   OH240269   1.752   4.592   2.936  0.1723  0.1331  0.1747
 6285TIP3    H140270   1.766   4.590   2.841 -1.2909 -0.6053 -0.0434
 6285TIP3    H240271   1.660   4.567   2.947  0.8471 -1.7210  1.8919
 6286TIP3   OH240272   1.264   1.040   2.751 -0.0656 -0.1477 -0.6083
 6286TIP3    H140273   1.177   1.011   2.781 -0.1637  0.9432  0.2109
 6286TIP3    H240274   1.302   0.962   2.711 -1.5037 -0.5927 -1.1614
 6287TIP3   OH240275   4.912   6.430   6.228  0.4410  0.2407 -0.9472
 6287TIP3    H140276   4.998   6.471   6.240  0.7593 -1.2541  2.9900
 6287TIP3    H240277   4.850   6.493   6.263  0.4126 -0.4140  0.2225
 6288TIP3   OH240278   2.937   6.031  15.526  0.1021 -0.1654  0.1610
 6288TIP3    H140279   2.855   5.989  15.498  1.1615 -0.0721 -3.3336
 6288TIP3    H240280   2.959   6.090  15.454  2.6487  0.6891  1.5885
 6289TIP3   OH240281   4.567   3.415  12.480  0.2429 -0.6413  0.2805
 6289TIP3    H140282   4.622   3.403  12.557 -0.5731 -3.1656  0.5351
 6289TIP3    H240283   4.494   3.469  12.510  1.5752  1.1170  0.4219
 6290TIP3   OH240284   1.827   0.023  11.258  0.0847 -1.3151  0.2332
 6290TIP3    H140285   1.761   0.089  11.283  0.1402 -1.1060 -0.1776
 6290TIP3    H240286   1.808   0.003  11.167 -0.4017 -2.4235  0.5643
 6291TIP3   OH240287   2.707   4.557  14.326 -0.0979 -0.0891 -0.3354
 6291TIP3    H140288   2.765   4.538  14.400  0.3513  0.5770 -0.5131
 6291TIP3    H240289   2.766   4.588  14.257 -0.6125  0.1434 -0.6705
 6292TIP3   OH240290   4.882   0.399   3.424 -0.9141 -0.3982  0.1963
 6292TIP3    H140291   4.819   0.468   3.403  0.7590  1.4522  1.1886
 6292TIP3    H240292   4.955   0.412   3.364 -1.1907 -2.2159 -0.5864
 6293TIP3   OH240293   1.492   1.057  14.073  0.0299  0.0178  0.6240
 6293TIP3    H140294   1.420   1.031  14.017  0.1577  1.6047 -0.3107
 6293TIP3    H240295   1.456   1.056  14.162 -1.3066  1.3941  0.0993
 6294TIP3   OH240296   5.861   0.806  10.814 -0.0920 -0.6612 -0.9664
 6294TIP3    H140297   5.783   0.752  10.802 -1.9762  2.2342 -2.1597
 6294TIP3    H240298   5.849   0.880  10.754  2.6412  0.8594  0.2512
 6295TIP3   OH240299   1.447   1.254   3.093  0.1439  0.2177  0.4558
 6295TIP3    H140300   1.393   1.189   3.139  2.6545 -1.7039  0.7691
 6295TIP3    H240301   1.533   1.213   3.086  0.0810  0.6636 -5.4183
 6296TIP3   OH240302   0.986   2.112   3.811 -0.4382 -0.1527  0.1462
 6296TIP3    H140303   0.896   2.091   3.836 -0.9229  0.3941 -1.0740
 6296TIP3    H240304   0.985   2.109   3.715  0.4980  1.2655  0.0874
 6297TIP3   OH240305   0.760   1.222  14.467 -0.0982  0.0083 -0.2643
 6297TIP3    H140306   0.777   1.207  14.560  1.9825  0.0543 -0.6056
 6297TIP3    H240307   0.748   1.316  14.460  0.9375  0.1498 -0.2096
 6298TIP3   OH240308   4.823   0.028  11.960  0.5974  0.3014  0.3982
 6298TIP3    H140309   4.749   0.019  12.020 -1.6532  1.6042 -2.0120
 6298TIP3    H240310   4.842  -0.061  11.931 -2.2980  0.2052 -1.4445
 6299TIP3   OH240311   4.999   3.867   1.799  0.2783 -0.0789 -0.6775
 6299TIP3    H140312   4.949   3.947   1.781  1.2477  0.5836 -0.4670
 6299TIP3    H240313   4.997   3.819   1.716  1.5235  1.2001 -1.5002
 6300TIP3   OH240314   2.976   0.208  14.270  0.5070 -0.2092  0.5874
 6300TIP3    H140315   2.950   0.116  14.268 -1.6136  0.3754  0.0552
 6300TIP3    H240316   3.034   0.219  14.195 -1.0056 -0.6317 -0.6812
 6301TIP3   OH240317   4.602   2.471   0.337 -0.1327  0.1728  0.0509
 6301TIP3    H140318   4.513   2.438   0.350 -1.1987  1.8517 -2.6193
 6301TIP3    H240319   4.642   2.410   0.275  0.1832  0.1142  0.3097
 6302TIP3   OH240320   5.988   0.755  15.660 -0.6353 -0.1454  0.0545
 6302TIP3    H140321   6.057   0.795  15.607  0.0646  0.0234  1.0661
 6302TIP3    H240322   5.907   0.797  15.631 -0.0251  1.3533  0.4697
 6303TIP3   OH240323   1.283   4.606   1.268  0.0293  0.4783  0.1461
 6303TIP3    H140324   1.258   4.699   1.272  3.2779  1.3425  1.9494
 6303TIP3    H240325   1.356   4.604   1.206 -0.4720 -0.9982 -0.4010
 6304TIP3   OH240326   3.398   3.755  13.823  0.1798 -0.2314  0.8238
 6304TIP3    H140327   3.440   3.728  13.742 -2.0106 -0.2813 -0.3183
 6304TIP3    H240328   3.404   3.851  13.823 -1.2593 -0.1410 -0.1913
 6305TIP3   OH240329   6.443   0.486   3.230 -0.0362 -0.1185  0.0080
 6305TIP3    H140330   6.520   0.430   3.241 -0.0223 -0.1913 -0.4659
 6305TIP3    H240331   6.455   0.556   3.295 -0.1387 -0.7549  0.7213
 6306TIP3   OH240332   1.786   3.308   4.796  0.3068  0.2376  0.0502
 6306TIP3    H140333   1.749   3.267   4.874  0.2116  0.8222  0.3183
 6306TIP3    H240334   1.869   3.345   4.825  0.5482 -0.0423 -0.2682
 6307TIP3   OH240335   6.110   4.104   4.668  0.3951  0.3461 -0.0007
 6307TIP3    H140336   6.188   4.070   4.712 -0.0631  0.5297  0.9699
 6307TIP3    H240337   6.113   4.066   4.580  1.3667  0.0365  0.1623
 6308TIP3   OH240338   3.680   5.201   4.133 -0.5629  0.3631  0.3999
 6308TIP3    H140339   3.756   5.231   4.083 -1.0888 -2.3951 -2.1698
 6308TIP3    H240340   3.702   5.112   4.160 -2.3788 -0.0247  0.6542
 6309TIP3   OH240341   0.876   5.554  17.020  0.3310  0.6946 -0.0345
 6309TIP3    H140342   0.954   5.499  17.031 -1.1245 -1.6441 -0.9023
 6309TIP3    H240343   0.806   5.491  17.001 -1.9314  2.6613  1.5188
 6310TIP3   OH240344   5.253   0.204   5.733  0.0631  0.5697  0.1054
 6310TIP3    H140345   5.302   0.230   5.810  0.3576 -0.6521  0.3382
 6310TIP3    H240346   5.170   0.252   5.740 -0.1183  0.0806  1.4495
 6311TIP3   OH240347   3.805   3.955   0.702 -0.0308  0.3987 -0.2074
 6311TIP3    H140348   3.895   3.930   0.680 -0.2728  1.1137 -2.0791
 6311TIP3    H240349   3.815   4.034   0.756  0.4908 -0.0755  0.3940
 6312TIP3   OH240350   0.316   2.365  11.918 -0.1008  0.3655 -0.3356
 6312TIP3    H140351   0.354   2.334  12.000  2.0756  0.2969 -1.3597
 6312TIP3    H240352   0.225   2.335  11.922  0.5189 -1.4298  1.1277
 6313TIP3   OH240353   1.949   2.389   4.893  0.1825  0.7605  0.8754
 6313TIP3    H140354   1.984   2.477   4.894 -0.1284  0.8825  1.5448
 6313TIP3    H240355   2.001   2.342   4.828 -0.0111  1.5794  0.1276
 6314TIP3   OH240356   5.228   3.404  16.326 -0.7544  0.4184 -0.2549
 6314TIP3    H140357   5.267   3.461  16.260 -1.1372  1.0148  0.0327
 6314TIP3    H240358   5.260   3.438  16.410 -2.3680  1.3029  0.0226
 6315TIP3   OH240359   0.552   5.554  14.222 -0.1992  0.3117 -0.0696
 6315TIP3    H140360   0.641   5.567  14.187  0.5053  1.0479  1.9436
 6315TIP3    H240361   0.496   5.598  14.158  0.8463 -0.3144 -1.4649
 6316TIP3   OH240362   3.977   1.457   3.402 -0.0740 -0.2201 -0.4812
 6316TIP3    H140363   4.008   1.367   3.414 -1.1650 -0.2195  2.9475
 6316TIP3    H240364   3.889   1.447   3.366  0.5641 -0.4549 -1.9989
 6317TIP3   OH240365   3.187   4.055  13.691 -0.0383  0.1101 -0.5928
 6317TIP3    H140366   3.152   4.144  13.685 -0.0001  0.1589 -0.0543
 6317TIP3    H240367   3.275   4.066  13.727 -0.7279 -0.3080  1.2767
 6318TIP3   OH240368   6.066   2.286  13.429  0.3800 -0.6359 -0.2314
 6318TIP3    H140369   6.002   2.311  13.362 -1.5002  1.3889  2.1818
 6318TIP3    H240370   6.146   2.332  13.405 -0.6873  1.1959 -0.3438
 6319TIP3   OH240371   4.481   3.525  15.304 -0.4236 -0.0086 -0.2372
 6319TIP3    H140372   4.483   3.436  15.340 -2.1159  0.6876  1.6616
 6319TIP3    H240373   4.393   3.534  15.267  0.5349  0.0897 -2.5476
 6320TIP3   OH240374   6.510   2.249   2.729  0.4261  0.6459 -0.2605
 6320TIP3    H140375   6.428   2.251   2.680  0.8885 -1.0125 -1.1513
 6320TIP3    H240376   6.552   2.332   2.709 -0.5594  1.0564 -0.6392
 6321TIP3   OH240377   1.044   0.117   2.797  0.0810  0.0808 -0.1086
 6321TIP3    H140378   1.137   0.116   2.819 -0.4937 -1.1320  2.4784
 6321TIP3    H240379   1.040   0.082   2.708  2.0465 -0.3594 -0.0579
 6322TIP3   OH240380   4.701   5.780  13.479  0.1093 -0.0333 -0.1034
 6322TIP3    H140381   4.706   5.873  13.460  0.7986  0.1748  1.0261
 6322TIP3    H240382   4.608   5.760  13.477 -0.1879  1.0730  1.3641
 6323TIP3   OH240383   1.287   4.027  13.820  0.1389  0.0081 -0.1205
 6323TIP3    H140384   1.234   3.956  13.859  1.2002 -0.6459  0.1407
 6323TIP3    H240385   1.260   4.105  13.868 -0.8028 -0.2737 -0.1774
 6324TIP3   OH240386   0.043   0.747   4.921  0.0037  0.8018  0.0780
 6324TIP3    H140387  -0.050   0.770   4.928 -0.2949 -0.2972 -0.1690
 6324TIP3    H240388   0.089   0.818   4.967 -0.9445  1.4415  0.0442
 6325TIP3   OH240389   4.336   4.982  16.726 -0.0053  0.6909  0.0894
 6325TIP3    H140390   4.336   4.897  16.681 -1.0503  0.1408  1.1189
 6325TIP3    H240391   4.245   4.998  16.748  0.4766  0.9071  2.0767
 6326TIP3   OH240392   6.071   0.242   4.137 -0.8429  0.3850 -0.2212
 6326TIP3    H140393   6.053   0.325   4.092  0.0435  0.8635  0.2851
 6326TIP3    H240394   6.076   0.266   4.230 -2.0852 -0.4958  0.0980
 6327TIP3   OH240395   2.932   1.926  13.922  0.1461 -0.1287 -0.3800
 6327TIP3    H140396   2.877   1.969  13.987  0.3004 -1.4045  0.6015
 6327TIP3    H240397   2.870   1.891  13.858 -0.0157  0.9056 -0.8005
 6328TIP3   OH240398   0.518   6.311  12.282 -0.2556 -0.3505  0.2567
 6328TIP3    H140399   0.586   6.374  12.257  2.5364 -3.0493  0.6566
 6328TIP3    H240400   0.522   6.309  12.378 -1.0801 -0.3537  0.2899
 6329TIP3   OH240401   2.424   3.739   4.900 -0.4886 -0.8154  0.2343
 6329TIP3    H140402   2.450   3.822   4.938  0.9570 -1.2526  0.2348
 6329TIP3    H240403   2.350   3.710   4.953 -2.2031  1.3365 -0.9092
 6330TIP3   OH240404   2.457   5.745   1.018 -0.2715  0.5959 -0.0167
 6330TIP3    H140405   2.467   5.814   1.084  2.7551  1.0212 -0.8799
 6330TIP3    H240406   2.478   5.665   1.065 -0.7225  0.5992  0.1956
 6331TIP3   OH240407   1.156   4.565   2.550  0.0427 -0.0478  0.2631
 6331TIP3    H140408   1.133   4.543   2.459 -0.5260  1.4804  0.0310
 6331TIP3    H240409   1.072   4.581   2.592  0.3784  0.2940  0.8000
 6332TIP3   OH240410   6.218   2.349   4.790 -0.2198  0.0401  0.2150
 6332TIP3    H140411   6.124   2.351   4.807 -0.6377  1.4618 -2.0471
 6332TIP3    H240412   6.229   2.399   4.709  2.6833  1.3160  1.3157
 6333TIP3   OH240413   3.181   5.217  12.997  0.0348 -0.2800  0.1242
 6333TIP3    H140414   3.150   5.281  13.062  1.5851  0.1695  0.4307
 6333TIP3    H240415   3.175   5.263  12.914 -2.9404 -1.1924 -0.2479
 6334TIP3   OH240416   6.487   0.007  14.378 -0.1216 -0.3834 -0.9982
 6334TIP3    H140417   6.492   0.020  14.284  3.2024 -1.2773 -1.0112
 6334TIP3    H240418   6.547   0.072  14.415  0.6072 -1.7425  0.3008
 6335TIP3   OH240419   4.054   6.436  14.706 -0.2560 -0.3896 -0.6137
 6335TIP3    H140420   3.990   6.452  14.637 -0.6168 -0.0105 -0.1927
 6335TIP3    H240421   4.019   6.362  14.755 -0.7709  0.3069  0.0898
 6336TIP3   OH240422   0.795   4.447   4.102 -0.0512 -0.1639  0.1348
 6336TIP3    H140423   0.818   4.405   4.020  0.2824  0.8831 -0.3096
 6336TIP3    H240424   0.879   4.470   4.142 -0.2542  0.8613 -0.0306
 6337TIP3   OH240425   5.038   5.038  17.109  0.0178  0.0583 -0.0800
 6337TIP3    H140426   5.077   5.019  17.194  1.2636 -1.6148 -1.0075
 6337TIP3    H240427   5.109   5.027  17.047 -0.9733  0.9271 -1.4012
 6338TIP3   OH240428   5.597   3.843  17.100 -0.2196 -0.0751 -0.4515
 6338TIP3    H140429   5.617   3.863  17.009  0.2569 -0.8950 -0.5249
 6338TIP3    H240430   5.550   3.760  17.097  2.0693 -1.4288  0.2570
 6339TIP3   OH240431   0.376   3.503   1.086  0.6058 -0.1770 -0.0961
 6339TIP3    H140432   0.419   3.564   1.146  0.3714  0.5371 -0.6414
 6339TIP3    H240433   0.372   3.421   1.134  0.9887  0.2202  0.6264
 6340TIP3   OH240434   3.400   4.749   3.594 -0.0062  0.7730  0.3270
 6340TIP3    H140435   3.425   4.831   3.638 -1.7019  0.6132  1.6586
 6340TIP3    H240436   3.307   4.738   3.616 -0.6042  0.0628 -2.3640
 6341TIP3   OH240437   1.298   5.101   4.446  0.1208  0.5592 -0.6523
 6341TIP3    H140438   1.220   5.046   4.438  0.0875  0.6372 -0.8964
 6341TIP3    H240439   1.324   5.094   4.537 -0.5558  1.0551 -0.4137
 6342TIP3   OH240440   4.318   1.996  13.874 -0.2551  0.3600  0.3291
 6342TIP3    H140441   4.312   1.934  13.946 -1.9183  1.2607  0.9892
 6342TIP3    H240442   4.268   1.957  13.803 -0.9727  0.7579  0.6140
 6343TIP3   OH240443   3.901   4.928  14.851 -0.3398  0.0010 -0.2834
 6343TIP3    H140444   3.844   4.941  14.928  0.7256 -0.6894  0.6396
 6343TIP3    H240445   3.922   4.835  14.853  1.7777  0.4703  0.0675
 6344TIP3   OH240446   6.714   0.432   0.749  0.1786  0.3152 -0.0332
 6344TIP3    H140447   6.653   0.503   0.769 -1.2683 -0.7233 -0.6506
 6344TIP3    H240448   6.697   0.411   0.657  0.9078 -0.5172  0.0195
 6345TIP3   OH240449   3.771   3.783  16.648  0.4077  0.2026  0.1012
 6345TIP3    H140450   3.853   3.739  16.624  0.6364  0.5266  0.2922
 6345TIP3    H240451   3.729   3.802  16.564  0.9064  0.7573 -0.0250
 6346TIP3   OH240452   2.122   3.019   5.404  0.0576  0.2039  0.1958
 6346TIP3    H140453   2.083   3.009   5.490  1.8692 -0.3169  0.9736
 6346TIP3    H240454   2.190   3.086   5.415 -0.5522  1.0623 -1.1202
 6347TIP3   OH240455   0.164   2.787  12.829 -0.7363 -0.5437 -0.8547
 6347TIP3    H140456   0.206   2.872  12.814  1.2246 -1.0686  1.3068
 6347TIP3    H240457   0.234   2.723  12.811 -1.1892 -1.5298  0.7666
 6348TIP3   OH240458   0.560   1.465  16.341 -0.4889 -0.3379 -0.1991
 6348TIP3    H140459   0.604   1.452  16.257 -1.0198 -1.1256 -0.3654
 6348TIP3    H240460   0.557   1.560  16.352 -1.7946 -0.1648 -1.8064
 6349TIP3   OH240461   3.937   6.264   2.618  0.1273  0.2455  0.0172
 6349TIP3    H140462   3.846   6.251   2.644 -0.4429  0.9702 -1.5480
 6349TIP3    H240463   3.935   6.268   2.522  2.0617 -1.6178 -0.1596
 6350TIP3   OH240464   1.993   5.880  11.778  0.2684  0.8452 -0.6228
 6350TIP3    H140465   1.984   5.810  11.714  0.1060  0.2095  0.0816
 6350TIP3    H240466   2.058   5.848  11.840  0.4100  1.4427 -0.4525
 6351TIP3   OH240467   1.232   1.579   6.341  0.1311  0.1396  0.2782
 6351TIP3    H140468   1.165   1.511   6.336  1.1380 -1.1126  2.8152
 6351TIP3    H240469   1.203   1.635   6.413  0.8367  0.6785  0.1422
 6352TIP3   OH240470   1.080   0.516  15.051  0.0489 -0.6099 -0.1400
 6352TIP3    H140471   1.047   0.490  15.137 -0.4599 -0.4690 -0.2901
 6352TIP3    H240472   1.171   0.539  15.066  0.2381 -1.5630  0.1722
 6353TIP3   OH240473   4.606   0.188  15.611 -0.6827  0.3064  0.2623
 6353TIP3    H140474   4.514   0.188  15.638 -1.3190  1.2228 -1.7550
 6353TIP3    H240475   4.614   0.109  15.557 -0.5758  0.7607 -0.3987
 6354TIP3   OH240476   5.218   3.354  13.838 -0.8084  0.0554 -0.4135
 6354TIP3    H140477   5.124   3.361  13.851 -0.3573  0.3458  3.3143
 6354TIP3    H240478   5.243   3.435  13.794 -2.0015  0.9122  0.4860
 6355TIP3   OH240479   3.607   6.064  12.942  0.1366  0.2742  0.1143
 6355TIP3    H140480   3.625   6.145  12.990 -0.4280  0.4691 -0.0001
 6355TIP3    H240481   3.525   6.031  12.979  0.3130 -0.1933  0.0923
 6356TIP3   OH240482   4.101   6.272  13.912 -0.0608 -0.2688  0.2222
 6356TIP3    H140483   4.092   6.223  13.830 -0.8520 -1.6077  1.0899
 6356TIP3    H240484   4.042   6.346  13.902 -0.6904 -0.8155 -0.1452
 6357TIP3   OH240485   2.441   3.145  11.621 -0.3785 -0.4636 -1.0160
 6357TIP3    H140486   2.349   3.172  11.627 -0.5643 -1.3509  0.5334
 6357TIP3    H240487   2.490   3.226  11.636 -0.9235 -0.3041 -0.0393
 6358TIP3   OH240488   5.740   1.996  13.817  0.2202 -0.0586  1.1438
 6358TIP3    H140489   5.658   1.948  13.820  0.9253 -1.2437  1.7457
 6358TIP3    H240490   5.808   1.930  13.829  1.2945  0.8372  0.1416
 6359TIP3   OH240491   1.921   1.486   0.845 -0.3978  0.0006  0.0740
 6359TIP3    H140492   1.948   1.410   0.896 -1.4404  0.4762  1.3597
 6359TIP3    H240493   1.874   1.541   0.907 -2.4944  0.1580 -1.6070
 6360TIP3   OH240494   3.293   4.436   0.892  0.3774 -0.9738 -0.1871
 6360TIP3    H140495   3.276   4.345   0.917  0.3768 -0.2563  2.5958
 6360TIP3    H240496   3.352   4.468   0.960  1.0626  0.8784 -1.6261
 6361TIP3   OH240497   1.199   1.069  15.767  0.3627 -0.1628 -0.4900
 6361TIP3    H140498   1.144   1.126  15.713 -0.4373 -0.2092  0.2809
 6361TIP3    H240499   1.270   1.126  15.796  0.1217  0.1809 -0.5702
 6362TIP3   OH240500   3.864   4.212  13.454 -0.2514  0.4593 -0.4969
 6362TIP3    H140501   3.798   4.260  13.504 -1.9914  1.1090 -3.3296
 6362TIP3    H240502   3.822   4.128  13.433  0.2334  0.4498 -1.4306
 6363TIP3   OH240503   4.430   0.374   2.919 -0.4004  0.1327  0.5527
 6363TIP3    H140504   4.364   0.354   2.986 -1.3020  0.5889 -0.1979
 6363TIP3    H240505   4.447   0.290   2.877 -2.5110  0.4948 -1.0708
 6364TIP3   OH240506   2.868   4.659   4.052 -0.0347  0.4264  0.0718
 6364TIP3    H140507   2.786   4.708   4.049 -1.4823 -1.9671  0.2993
 6364TIP3    H240508   2.844   4.572   4.081  2.6471 -0.2298  0.4808
 6365TIP3   OH240509   6.104   1.123  10.471 -0.5984  0.2490  0.3541
 6365TIP3    H140510   6.134   1.045  10.425 -0.3573 -1.0788  2.6811
 6365TIP3    H240511   6.010   1.128  10.453 -0.4021  0.0581 -0.7194
 6366TIP3   OH240512   3.101   3.463  14.138 -0.1928 -0.3246 -0.2565
 6366TIP3    H140513   3.073   3.547  14.174 -1.4980 -0.7188 -0.3519
 6366TIP3    H240514   3.171   3.486  14.077  0.7334  0.5140  1.0850
 6367TIP3   OH240515   0.801   5.767  14.907  0.2168 -0.5557 -0.3546
 6367TIP3    H140516   0.861   5.739  14.976  1.2439 -0.7456 -1.3090
 6367TIP3    H240517   0.855   5.769  14.828 -0.9106 -0.2008 -1.1249
 6368TIP3   OH240518   1.915   0.728   6.403 -0.1333 -0.3023  0.2739
 6368TIP3    H140519   1.872   0.812   6.418 -1.9567 -1.4183  1.5808
 6368TIP3    H240520   1.999   0.735   6.449  1.3558  2.0418 -2.6174
 6369TIP3   OH240521   3.377   6.231   5.779  0.2462  0.0115  0.2437
 6369TIP3    H140522   3.399   6.141   5.804 -1.3155 -0.5591 -0.4132
 6369TIP3    H240523   3.382   6.231   5.684 -1.2084  0.2238  0.1581
 6370TIP3   OH240524   3.474   0.494  13.618  0.6508 -0.2703 -0.2474
 6370TIP3    H140525   3.428   0.426  13.668 -0.3550 -1.5506 -2.8279
 6370TIP3    H240526   3.565   0.463  13.613  0.4061 -0.9391 -0.5781
 6371TIP3   OH240527   4.117   0.318  14.789 -0.1518  0.5561 -0.3116
 6371TIP3    H140528   4.079   0.395  14.832  2.3633  0.9536  1.3101
 6371TIP3    H240529   4.210   0.340  14.780  0.2567 -1.5715 -1.4723
 6372TIP3   OH240530   4.340   3.860  16.495  0.3419  0.4496 -0.5072
 6372TIP3    H140531   4.408   3.898  16.550 -0.0277  3.5930 -2.0795
 6372TIP3    H240532   4.388   3.810  16.428  1.0315  1.2239 -0.5918
 6373TIP3   OH240533   2.887   1.792   0.854 -0.4936  0.3053 -0.1442
 6373TIP3    H140534   2.918   1.706   0.825 -0.4553  0.5496 -0.8301
 6373TIP3    H240535   2.871   1.781   0.948  1.8281  0.2116  0.2693
 6374TIP3   OH240536   2.495   0.850   0.629 -0.6246  0.2487  0.1268
 6374TIP3    H140537   2.449   0.933   0.637  0.9423  1.2118 -0.7085
 6374TIP3    H240538   2.576   0.862   0.679 -1.3854 -1.5213  1.8275
 6375TIP3   OH240539   3.817   4.931  13.505 -0.1144 -0.2624 -0.1505
 6375TIP3    H140540   3.911   4.917  13.514 -0.1113 -1.0339 -1.3787
 6375TIP3    H240541   3.809   5.020  13.471  0.1863 -0.3158 -0.3560
 6376TIP3   OH240542   3.038   3.947   1.690  0.1873 -0.4909 -0.5710
 6376TIP3    H140543   2.988   3.935   1.609 -0.0303 -3.4148 -0.0588
 6376TIP3    H240544   2.991   3.896   1.755  0.3636  1.8467  1.4465
 6377TIP3   OH240545   6.737   2.034  15.250  0.5551  0.3749 -0.1761
 6377TIP3    H140546   6.829   2.029  15.225  0.8802  0.1494  1.0426
 6377TIP3    H240547   6.689   2.030  15.167  1.6840  1.8441 -0.9263
 6378TIP3   OH240548   4.966   2.366  11.295 -0.1893 -0.2953 -0.5356
 6378TIP3    H140549   5.014   2.447  11.275  0.1110 -0.3541 -0.0533
 6378TIP3    H240550   4.977   2.355  11.390 -0.6600 -0.6271 -0.5204
 6379TIP3   OH240551   0.081   6.763  12.819  0.0615 -0.0185  0.3270
 6379TIP3    H140552   0.003   6.709  12.820  1.0432 -1.4885 -0.9127
 6379TIP3    H240553   0.123   6.745  12.735  0.0136  3.2640 -0.4705
 6380TIP3   OH240554   5.323   3.222  17.080  0.4361  0.1417 -0.0973
 6380TIP3    H140555   5.397   3.222  17.019  0.3602 -1.2838 -0.2146
 6380TIP3    H240556   5.253   3.266  17.034  1.5036  2.4385  0.4005
 6381TIP3   OH240557   6.577   5.422   3.105 -0.0053  0.5354 -0.3359
 6381TIP3    H140558   6.668   5.448   3.087  0.9715 -2.5075  0.0298
 6381TIP3    H240559   6.527   5.463   3.034  1.9076  0.6645 -1.6691
 6382TIP3   OH240560   4.051   3.003   1.909  0.4254 -0.3599 -0.4403
 6382TIP3    H140561   4.027   2.911   1.908 -0.2417 -0.1937  0.5285
 6382TIP3    H240562   3.970   3.050   1.929  1.1121  0.3322  0.7629
 6383TIP3   OH240563   1.347   3.939  11.095 -0.1870 -0.0518 -0.9797
 6383TIP3    H140564   1.283   3.953  11.165 -0.6027 -2.7020 -0.7791
 6383TIP3    H240565   1.336   3.848  11.070  3.3034 -0.5049 -1.1776
 6384TIP3   OH240566   3.553   3.942  12.943 -0.0359 -0.0257  0.3524
 6384TIP3    H140567   3.556   3.847  12.929  1.1180 -0.0300  0.5500
 6384TIP3    H240568   3.462   3.960  12.965 -0.5577 -0.8933 -1.0280
 6385TIP3   OH240569   1.629   5.905   2.630  0.3208 -0.3414 -0.0040
 6385TIP3    H140570   1.559   5.934   2.688 -0.5151 -0.3714 -0.9710
 6385TIP3    H240571   1.626   5.810   2.634  0.7925 -0.3395  0.5087
 6386TIP3   OH240572   0.786   0.171   3.740 -0.1212  0.1885 -0.1379
 6386TIP3    H140573   0.814   0.164   3.831 -1.5077 -1.1012  0.2106
 6386TIP3    H240574   0.751   0.085   3.718 -2.3679  1.2521 -0.9952
 6387TIP3   OH240575   0.534   6.771   2.580  0.2213 -0.1230 -0.0188
 6387TIP3    H140576   0.601   6.828   2.619  1.8340 -1.8222 -0.2632
 6387TIP3    H240577   0.555   6.769   2.487 -0.7991  0.1390 -0.2634
 6388TIP3   OH240578   5.775   4.024   1.557  0.2431 -0.1603 -0.2555
 6388TIP3    H140579   5.813   4.050   1.473 -0.7430  3.5912  0.3562
 6388TIP3    H240580   5.682   4.014   1.539  0.4667 -2.5984 -0.2600
 6389TIP3   OH240581   3.689   2.969  16.404 -0.3139 -0.1488 -0.1197
 6389TIP3    H140582   3.767   3.008  16.365 -0.1108  0.2778  0.6968
 6389TIP3    H240583   3.716   2.945  16.493 -1.2241  0.3778  0.3065
 6390TIP3   OH240584   2.575   1.301   0.856  0.2317  0.6908 -0.0998
 6390TIP3    H140585   2.554   1.242   0.783  0.8528 -0.8364  0.9297
 6390TIP3    H240586   2.600   1.383   0.814 -2.1745  0.7604 -1.5229
 6391TIP3   OH240587   0.915   3.647   0.305 -0.3901 -0.3829 -0.1309
 6391TIP3    H140588   0.997   3.604   0.329  0.4955  1.3897  0.0831
 6391TIP3    H240589   0.922   3.663   0.211  0.1781  1.1070  0.1443
 6392TIP3   OH240590   0.948   3.747  12.339  0.5548  0.0613  0.5450
 6392TIP3    H140591   0.923   3.814  12.403 -2.3084  0.0817 -0.5620
 6392TIP3    H240592   0.935   3.790  12.254  0.9340 -1.1568 -0.1331
 6393TIP3   OH240593   0.251   4.458  14.742 -0.1974 -0.4798 -0.2262
 6393TIP3    H140594   0.247   4.438  14.835 -2.2004 -3.1552 -0.8250
 6393TIP3    H240595   0.182   4.524  14.729  1.4925  1.4767  0.5011
 6394TIP3   OH240596   0.639   6.115   0.863 -0.0491  0.3236 -0.0796
 6394TIP3    H140597   0.732   6.124   0.883 -0.5484  0.3355  2.4590
 6394TIP3    H240598   0.596   6.174   0.925 -1.8501 -1.0601  0.0193
 6395TIP3   OH240599   1.510   4.060  13.062 -0.8200 -0.0573  0.1860
 6395TIP3    H140600   1.420   4.066  13.091 -0.7332  3.2080 -0.0810
 6395TIP3    H240601   1.560   4.114  13.124  0.5679  0.1362 -1.0580
 6396TIP3   OH240602   1.614   1.383  12.096 -0.1110  0.4742 -0.1055
 6396TIP3    H140603   1.620   1.369  12.001 -3.2649  3.1598 -0.7680
 6396TIP3    H240604   1.572   1.303  12.128  2.8729 -1.4074 -0.5574
 6397TIP3   OH240605   5.052   3.007  12.524 -0.5313  0.1175 -0.8742
 6397TIP3    H140606   5.062   2.915  12.550 -2.3809  0.1275 -0.0278
 6397TIP3    H240607   4.958   3.023  12.528 -0.2795  1.9195 -1.5176
 6398TIP3   OH240608   4.073   5.611   0.482 -0.1047  0.3579 -0.5311
 6398TIP3    H140609   3.990   5.630   0.525 -0.0906  1.8120 -1.1182
 6398TIP3    H240610   4.139   5.655   0.536 -0.0461  1.8237 -1.7605
 6399TIP3   OH240611   5.135   2.846  17.122 -0.4514  0.4696 -0.2423
 6399TIP3    H140612   5.150   2.807  17.208 -2.4485  2.0090  0.8274
 6399TIP3    H240613   5.058   2.799  17.088  1.7755 -1.8310 -2.2638
 6400TIP3   OH240614   6.486   5.532   0.640 -0.2219  0.0431 -0.2559
 6400TIP3    H140615   6.530   5.609   0.675  2.3651 -0.6469 -1.8636
 6400TIP3    H240616   6.400   5.564   0.612  0.4414  2.1160 -0.0107
 6401TIP3   OH240617   5.156   2.374   0.027  0.3953 -0.1037  0.4519
 6401TIP3    H140618   5.105   2.398   0.104 -0.9755 -2.1652  0.2522
 6401TIP3    H240619   5.111   2.418  -0.046 -0.3240 -0.8320  0.4445
 6402TIP3   OH240620   0.025   4.530  16.927 -0.0054 -0.0443  0.0232
 6402TIP3    H140621   0.026   4.542  16.832 -0.1744  0.8833  0.1349
 6402TIP3    H240622  -0.027   4.451  16.941  1.0843 -0.9233 -0.7271
 6403TIP3   OH240623   5.720   4.164   4.800 -0.2532  0.0715 -0.0711
 6403TIP3    H140624   5.743   4.179   4.891  1.6833  0.2396 -0.5600
 6403TIP3    H240625   5.722   4.069   4.789 -0.4422  0.0536  0.0583
 6404TIP3   OH240626   1.653   2.490   2.084  0.1757  0.2537  0.4618
 6404TIP3    H140627   1.718   2.553   2.115  0.2163  1.3841 -1.7977
 6404TIP3    H240628   1.697   2.442   2.014 -0.4466 -1.1070  0.9656
 6405TIP3   OH240629   6.294   0.366  15.193  0.4112  0.6535  0.7177
 6405TIP3    H140630   6.320   0.281  15.158  1.0711  1.2664 -0.2813
 6405TIP3    H240631   6.298   0.354  15.288  0.3234 -0.4834  0.5903
 6406TIP3   OH240632   6.415   5.764  13.267  0.0040  0.4542 -0.3704
 6406TIP3    H140633   6.427   5.762  13.172 -0.6184  2.3046 -0.5126
 6406TIP3    H240634   6.503   5.751  13.302  0.2193 -0.3535 -1.1892
 6407TIP3   OH240635   6.015   5.786  12.000  0.3271  0.1229  0.7343
 6407TIP3    H140636   6.028   5.770  12.093  0.4116 -0.3099  0.6505
 6407TIP3    H240637   5.975   5.873  11.995  0.8439  0.3851  1.1401
 6408TIP3   OH240638   5.618   1.473  14.534 -0.0028 -0.1789  0.0734
 6408TIP3    H140639   5.547   1.477  14.597  1.1117 -0.5506  1.3908
 6408TIP3    H240640   5.687   1.527  14.572  0.2685  0.4985 -1.3769
 6409TIP3   OH240641   3.681   0.940  10.931  0.9890  0.0345  0.2704
 6409TIP3    H140642   3.596   0.971  10.961  0.4875  0.5568 -1.6369
 6409TIP3    H240643   3.708   1.004  10.864  2.6711 -0.3641  0.5288
 6410TIP3   OH240644   1.563   4.457   4.509 -0.3309 -0.3187 -0.4761
 6410TIP3    H140645   1.513   4.501   4.440 -1.2634 -1.6938 -0.6858
 6410TIP3    H240646   1.537   4.500   4.590 -1.9044 -1.0507 -0.5779
 6411TIP3   OH240647   6.355   5.440  12.679  0.5445 -0.3552  0.6436
 6411TIP3    H140648   6.321   5.362  12.723 -0.5692  0.6994  1.6976
 6411TIP3    H240649   6.286   5.466  12.618  0.1659  0.7658  1.5147
 6412TIP3   OH240650   3.703   5.694   5.988  0.4337 -0.2485  0.2535
 6412TIP3    H140651   3.662   5.664   6.069 -0.8712 -2.0518 -1.0395
 6412TIP3    H240652   3.760   5.622   5.962  0.9007  0.3526 -0.4113
 6413TIP3   OH240653   0.090   5.050   2.284  0.5886 -0.4624  0.1831
 6413TIP3    H140654   0.051   5.009   2.207  2.1458 -3.1754  0.7879
 6413TIP3    H240655   0.126   5.133   2.251  0.1674 -1.0158 -1.7308
 6414TIP3   OH240656   3.367   6.118   1.121 -0.2577  0.3823  0.2157
 6414TIP3    H140657   3.365   6.116   1.217 -0.7797 -0.4926  0.1915
 6414TIP3    H240658   3.452   6.158   1.100  0.7708 -1.3235  1.0180
 6415TIP3   OH240659   6.557   5.950   5.421 -0.3606  0.1355 -0.1360
 6415TIP3    H140660   6.480   5.933   5.475 -1.0770  0.7476 -0.9403
 6415TIP3    H240661   6.584   5.864   5.389 -1.1376 -0.0086 -0.4150
 6416TIP3   OH240662   3.264   3.735   1.689 -0.1707 -0.0440  0.4585
 6416TIP3    H140663   3.249   3.830   1.693 -1.7667 -0.2713  0.3043
 6416TIP3    H240664   3.268   3.707   1.781 -4.8785 -0.5575  0.6164
 6417TIP3   OH240665   5.070   4.277   0.545 -0.0126  0.0106 -0.0870
 6417TIP3    H140666   5.009   4.284   0.472 -2.5706 -1.5855  1.8327
 6417TIP3    H240667   5.068   4.364   0.586 -1.2805 -0.1317  0.1694
 6418TIP3   OH240668   2.717   1.746  13.918 -0.0589 -0.3351  0.7531
 6418TIP3    H140669   2.746   1.673  13.863 -2.2967 -1.0223  0.4160
 6418TIP3    H240670   2.790   1.762  13.977  2.3853  0.3487 -2.3284
 6419TIP3   OH240671   5.778   3.222   0.151 -0.5242 -0.1398  0.2677
 6419TIP3    H140672   5.847   3.288   0.164 -0.7347  0.0092  0.6377
 6419TIP3    H240673   5.697   3.272   0.150 -0.7928 -0.5259  1.8477
 6420TIP3   OH240674   0.006   3.292   3.212  0.1989  0.1383 -0.1067
 6420TIP3    H140675   0.080   3.301   3.152 -1.1983 -2.7054 -2.4490
 6420TIP3    H240676  -0.050   3.367   3.193  1.7403  1.5151  0.6583
 6421TIP3   OH240677   4.991   0.586   3.605 -0.4065 -0.8804  0.6399
 6421TIP3    H140678   4.925   0.655   3.600  1.2764  0.6429 -1.5816
 6421TIP3    H240679   4.954   0.514   3.554 -0.5504 -0.2104 -0.2092
 6422TIP3   OH240680   6.114   3.178   1.150  0.0071  0.4046  0.2031
 6422TIP3    H140681   6.179   3.236   1.190  2.3677 -0.5322 -2.1685
 6422TIP3    H240682   6.144   3.090   1.172 -0.9580 -0.0375 -0.1951
 6423TIP3   OH240683   5.212   5.090  15.080  0.0713 -0.2489 -0.3366
 6423TIP3    H140684   5.209   5.150  15.154 -0.5115 -0.0775 -0.4969
 6423TIP3    H240685   5.255   5.012  15.114  2.4617  0.9066 -0.5915
 6424TIP3   OH240686   2.325   1.364   3.015  0.3678 -0.9568  0.2921
 6424TIP3    H140687   2.312   1.404   2.928 -4.3120  0.7116  1.5904
 6424TIP3    H240688   2.281   1.280   3.009 -0.3036 -0.6688  1.1461
 6425TIP3   OH240689   6.654   5.296   1.505 -0.2042  0.5657  0.3899
 6425TIP3    H140690   6.690   5.384   1.512  2.9607 -0.6611  0.2072
 6425TIP3    H240691   6.622   5.275   1.593  0.3168  1.3809  0.7764
 6426TIP3   OH240692   4.938   3.633  10.939 -0.5366 -0.1647  0.5976
 6426TIP3    H140693   4.976   3.576  10.872  1.6742  0.9730  0.8352
 6426TIP3    H240694   4.900   3.573  11.003  0.3172 -1.3344  0.0225
 6427TIP3   OH240695   6.168   2.897   1.546 -0.2568 -0.5112  0.1625
 6427TIP3    H140696   6.132   2.822   1.499 -1.4535 -0.0578  0.3500
 6427TIP3    H240697   6.236   2.860   1.602 -0.9289 -1.4623  0.3425
 6428TIP3   OH240698   5.932   3.528  15.676  0.0943  0.2068  0.7275
 6428TIP3    H140699   5.883   3.610  15.676  0.0888  0.2044  0.3806
 6428TIP3    H240700   5.866   3.461  15.656  0.6061  0.4338 -1.9828
 6429TIP3   OH240701   5.223   3.114   3.301  0.2201 -0.3317 -0.4710
 6429TIP3    H140702   5.291   3.062   3.258  1.4480 -0.5060  1.6125
 6429TIP3    H240703   5.266   3.197   3.322 -0.6067  0.0672 -0.3234
 6430TIP3   OH240704   0.388   1.913   5.449 -0.7098  0.5706 -0.5785
 6430TIP3    H140705   0.402   1.979   5.517 -0.7318 -0.0461  0.0188
 6430TIP3    H240706   0.297   1.928   5.421 -0.8791  0.4666 -0.0925
 6431TIP3   OH240707   6.274   4.946   2.835  0.2084 -0.2062 -0.2812
 6431TIP3    H140708   6.279   5.011   2.765  0.0559  0.1232  0.0087
 6431TIP3    H240709   6.241   4.867   2.793 -0.9118  0.3013 -0.3675
 6432TIP3   OH240710   2.875   6.599   5.942  0.0453 -0.3265 -0.3548
 6432TIP3    H140711   2.835   6.575   5.858 -0.9423 -0.2974  0.1034
 6432TIP3    H240712   2.966   6.622   5.920 -0.2124 -0.3138 -1.4104
 6433TIP3   OH240713   6.698   0.475   6.225  0.2954 -0.0623  0.3718
 6433TIP3    H140714   6.712   0.410   6.293  0.4121 -0.5741 -0.1384
 6433TIP3    H240715   6.781   0.523   6.221 -0.1087  0.7520  1.4048
 6434TIP3   OH240716   5.104   2.168   2.752  0.0783  0.3680  0.0916
 6434TIP3    H140717   5.045   2.211   2.814  0.0208  1.3393 -0.6274
 6434TIP3    H240718   5.181   2.224   2.751  0.7833 -0.5646  0.5599
 6435TIP3   OH240719   1.419   4.419   1.687 -0.8250  0.5425 -0.1448
 6435TIP3    H140720   1.455   4.504   1.664  2.1193 -0.5792  0.0842
 6435TIP3    H240721   1.365   4.394   1.612  1.6748  0.7524 -2.0726
 6436TIP3   OH240722   0.921   3.567   6.628 -0.4411  0.1208  0.6403
 6436TIP3    H140723   1.013   3.590   6.629 -0.6653  1.0332  0.5497
 6436TIP3    H240724   0.920   3.474   6.605  0.4018  0.3339 -0.2774
 6437TIP3   OH240725   5.442   2.713  14.743  0.2895 -0.2682  0.0602
 6437TIP3    H140726   5.409   2.738  14.829 -0.3782 -0.2565 -0.1952
 6437TIP3    H240727   5.399   2.630  14.724  1.0092 -0.6435  0.0608
 6438TIP3   OH240728   5.030   3.966  11.879 -0.0323  0.1678  0.2815
 6438TIP3    H140729   4.972   3.948  11.805  2.3395 -0.5308 -1.4725
 6438TIP3    H240730   5.045   4.060  11.874  2.4075 -0.2671 -1.9702
 6439TIP3   OH240731   6.031   5.489   6.247 -0.3052 -0.7999  0.0369
 6439TIP3    H140732   5.965   5.425   6.220  0.8400 -0.8926 -2.6951
 6439TIP3    H240733   6.108   5.437   6.268  0.2012 -0.4237 -0.8592
 6440TIP3   OH240734   5.406   1.990   5.588 -0.0120  0.4223 -0.2640
 6440TIP3    H140735   5.340   2.060   5.586  1.2327  1.5988 -0.5171
 6440TIP3    H240736   5.416   1.965   5.496 -2.5856 -2.1456  0.0891
 6441TIP3   OH240737   4.444   0.590   4.444  0.4017 -0.0878  0.3795
 6441TIP3    H140738   4.403   0.505   4.459  1.3404 -0.5974  0.1155
 6441TIP3    H240739   4.430   0.608   4.351 -1.2364  0.8285  0.7863
 6442TIP3   OH240740   5.028   0.225  16.545  0.0816  0.3671  0.4108
 6442TIP3    H140741   5.075   0.207  16.463 -0.4433  0.5534  0.0687
 6442TIP3    H240742   4.992   0.313  16.533 -0.3420  0.2313  0.6851
 6443TIP3   OH240743   5.777   2.775  10.397 -0.1425  0.2448  0.3279
 6443TIP3    H140744   5.862   2.785  10.440  0.6268 -0.6292 -0.9385
 6443TIP3    H240745   5.792   2.709  10.329 -1.6992  0.4742 -0.2686
 6444TIP3   OH240746   5.848   0.491   4.278  0.1991  0.0802 -0.4154
 6444TIP3    H140747   5.795   0.413   4.262 -0.5411  0.4406  0.3234
 6444TIP3    H240748   5.894   0.473   4.359  1.5947 -0.4345 -1.2975
 6445TIP3   OH240749   5.416   6.025  11.648  0.3850  0.3220 -0.2538
 6445TIP3    H140750   5.360   6.055  11.576 -0.8603  2.2063  1.4227
 6445TIP3    H240751   5.469   6.102  11.670 -0.8509  0.5091  2.2826
 6446TIP3   OH240752   5.250   3.762   0.441  0.5928  0.6767  0.0520
 6446TIP3    H140753   5.295   3.722   0.515  2.8034  2.1233 -0.4595
 6446TIP3    H240754   5.163   3.784   0.474  1.7941  2.0090  2.4625
 6447TIP3   OH240755   2.057   4.818  12.010  0.0681  0.0552 -0.1887
 6447TIP3    H140756   1.962   4.820  12.020  0.0533  0.4793 -0.4225
 6447TIP3    H240757   2.089   4.780  12.091 -0.3484 -0.7175 -0.3798
 6448TIP3   OH240758   4.769   0.096  16.571  0.5427 -0.0238  0.7670
 6448TIP3    H140759   4.790   0.003  16.583 -0.7997 -0.2474  1.4695
 6448TIP3    H240760   4.849   0.134  16.534  1.4544 -1.2533  1.4352
 6449TIP3   OH240761   1.146   1.689  12.625  0.4706 -0.2624  0.4919
 6449TIP3    H140762   1.079   1.621  12.621  0.2888 -0.0647  0.2542
 6449TIP3    H240763   1.149   1.726  12.537  0.4371  0.1707  0.6719
 6450TIP3   OH240764   3.207   2.400  13.027  0.1554 -0.3976 -0.7024
 6450TIP3    H140765   3.274   2.432  12.967 -0.2533 -0.4981 -1.2201
 6450TIP3    H240766   3.125   2.413  12.980 -0.2168 -0.0218  0.0304
 6451TIP3   OH240767   3.385   5.905   2.875 -0.0826 -0.0965  0.3954
 6451TIP3    H140768   3.457   5.869   2.823  1.5105  2.5706  0.6616
 6451TIP3    H240769   3.335   5.958   2.814  0.1006  0.7120  0.9428
 6452TIP3   OH240770   4.847   4.826   4.296  0.1648  0.5009  0.5496
 6452TIP3    H140771   4.874   4.915   4.321 -2.0758  2.1530 -2.5214
 6452TIP3    H240772   4.813   4.788   4.377 -0.1619  2.9783  1.6337
 6453TIP3   OH240773   2.986   2.864  16.427 -0.2234  0.0737  0.0565
 6453TIP3    H140774   3.006   2.771  16.420 -1.8534 -0.1733 -1.5281
 6453TIP3    H240775   2.894   2.871  16.403 -0.1184  2.0972  0.1543
 6454TIP3   OH240776   1.303   4.792  14.779  0.1208 -0.4496 -0.3986
 6454TIP3    H140777   1.352   4.744  14.713  1.7264 -0.4943  0.8007
 6454TIP3    H240778   1.288   4.729  14.849 -1.4168 -0.3484 -0.6158
 6455TIP3   OH240779   3.627   4.822   3.923 -0.2643  0.5604  0.1801
 6455TIP3    H140780   3.650   4.828   4.016 -2.3945 -0.0072  0.7651
 6455TIP3    H240781   3.671   4.898   3.883  2.1293 -0.1768  1.3094
 6456TIP3   OH240782   4.025   5.275  15.049 -0.2969 -0.1129 -0.1602
 6456TIP3    H140783   3.963   5.227  15.104 -0.2944 -1.5793 -1.4397
 6456TIP3    H240784   4.079   5.208  15.008  1.3931  1.0951  0.0190
 6457TIP3   OH240785   2.734   5.030   5.582  0.2429  0.7734  0.7079
 6457TIP3    H140786   2.768   4.962   5.641 -1.3444 -1.4280 -0.8018
 6457TIP3    H240787   2.639   5.016   5.583  0.0895  1.5183 -1.3453
 6458TIP3   OH240788   6.410   0.118  15.216  0.5420  0.3279  0.5963
 6458TIP3    H140789   6.392   0.030  15.183 -0.6897  0.5151  0.7359
 6458TIP3    H240790   6.479   0.107  15.281  1.1792 -0.3848 -0.1948
 6459TIP3   OH240791   2.644   3.509  15.213  0.1091  0.6245  0.0161
 6459TIP3    H140792   2.553   3.497  15.186  0.1815 -0.0064  0.0378
 6459TIP3    H240793   2.691   3.436  15.173  0.0292 -0.9601  2.7064
 6460TIP3   OH240794   4.111   2.733  11.309  0.3248  0.1954 -0.2688
 6460TIP3    H140795   4.062   2.812  11.332 -1.4485 -1.3097  1.2713
 6460TIP3    H240796   4.112   2.733  11.213  0.5000  2.1616 -0.2902
 6461TIP3   OH240797   4.555   4.707  14.752  0.1912 -0.6098  0.2859
 6461TIP3    H140798   4.610   4.765  14.805  1.1678 -0.4169 -0.9046
 6461TIP3    H240799   4.610   4.630  14.737 -0.3107 -0.9275  0.0843
 6462TIP3   OH240800   6.065   3.893   0.129  0.2240 -0.2403  0.0506
 6462TIP3    H140801   6.060   3.797   0.125  1.6185 -0.2994 -0.3078
 6462TIP3    H240802   5.975   3.922   0.111  0.0908 -1.4488 -1.3051
 6463TIP3   OH240803   6.526   4.982  13.373 -0.1708  0.3567 -0.2962
 6463TIP3    H140804   6.464   4.921  13.413  1.0837  0.0512  1.2440
 6463TIP3    H240805   6.471   5.047  13.330 -1.5392 -1.2371 -1.0099
 6464TIP3   OH240806   0.089   6.544   1.376  0.4137 -0.9125 -0.1260
 6464TIP3    H140807   0.055   6.463   1.414 -0.6955 -0.7569 -0.7863
 6464TIP3    H240808   0.140   6.584   1.447 -1.6916 -0.6011  1.2578
 6465TIP3   OH240809   4.042   1.348  16.942 -0.7793  0.4432  0.2780
 6465TIP3    H140810   4.107   1.379  16.879  0.2383 -2.0684  0.0526
 6465TIP3    H240811   4.059   1.400  17.021  3.4921 -2.1136  1.2059
 6466TIP3   OH240812   2.601   3.564   4.970 -0.1467  0.3231 -0.0101
 6466TIP3    H140813   2.626   3.502   4.902 -0.3177 -0.1343  0.3377
 6466TIP3    H240814   2.551   3.632   4.924  2.1114  1.5093 -0.8019
 6467TIP3   OH240815   2.994   3.591   4.184 -0.4430 -0.2791  0.4328
 6467TIP3    H140816   2.930   3.642   4.233 -0.0798  0.3217  0.2853
 6467TIP3    H240817   3.077   3.603   4.231 -0.3340 -0.6584  0.3457
 6468TIP3   OH240818   4.159   4.019   1.420 -0.4945  0.5049 -0.3089
 6468TIP3    H140819   4.233   3.971   1.385  0.2116  1.7354 -0.5152
 6468TIP3    H240820   4.090   3.953   1.430  0.3717 -0.4874 -0.8373
 6469TIP3   OH240821   4.087   0.676   3.533  0.4855  0.1237 -0.1032
 6469TIP3    H140822   4.068   0.629   3.452  0.7431 -0.5224  0.2059
 6469TIP3    H240823   4.045   0.761   3.522  0.0812 -0.1495 -0.6990
 6470TIP3   OH240824   4.567   2.274   0.144  0.2200 -0.2148 -0.1466
 6470TIP3    H140825   4.561   2.182   0.116  0.9403 -0.6028  0.9316
 6470TIP3    H240826   4.477   2.300   0.161 -0.0179 -0.6256 -0.7562
 6471TIP3   OH240827   4.551   0.016   3.292 -0.4039  0.0924  0.9197
 6471TIP3    H140828   4.550   0.104   3.254 -0.8714 -0.0753  0.5407
 6471TIP3    H240829   4.565   0.030   3.385  0.3101  0.5313  0.7481
 6472TIP3   OH240830   0.718   4.202  13.615  0.8211  0.2936  0.6343
 6472TIP3    H140831   0.801   4.225  13.657 -1.3760  1.4038  4.5882
 6472TIP3    H240832   0.673   4.146  13.678 -1.3481 -0.5164 -1.5423
 6473TIP3   OH240833   2.494   5.142   3.087 -0.4983 -0.5742 -0.3605
 6473TIP3    H140834   2.454   5.221   3.050 -0.8598 -0.6177 -0.0707
 6473TIP3    H240835   2.583   5.142   3.052 -0.1118  0.6004  0.5712
 6474TIP3   OH240836   3.616   0.128  13.513 -0.7984 -0.5414  0.1312
 6474TIP3    H140837   3.526   0.160  13.526 -0.9932 -0.0761 -2.1421
 6474TIP3    H240838   3.625   0.056  13.575 -2.8909 -0.8578  0.1007
 6475TIP3   OH240839   3.642   4.037  14.329 -0.4726 -0.5605 -0.5171
 6475TIP3    H140840   3.634   3.943  14.347 -2.6334 -0.5193 -1.1118
 6475TIP3    H240841   3.698   4.042  14.252 -0.0801 -1.3548 -0.2862
 6476TIP3   OH240842   5.479   4.541  16.926 -0.2808 -0.3591  0.7940
 6476TIP3    H140843   5.491   4.512  17.016  1.9160 -2.5016 -0.1430
 6476TIP3    H240844   5.439   4.465  16.882 -1.2659  0.6427 -0.0782
 6477TIP3   OH240845   2.426   3.682   4.630  0.3550  0.1550 -0.1044
 6477TIP3    H140846   2.335   3.658   4.616  0.2896 -0.0011  0.5880
 6477TIP3    H240847   2.431   3.708   4.722  1.4625 -1.9064  0.4529
 6478TIP3   OH240848   3.266   2.934   2.575 -0.0107 -0.0071 -0.0461
 6478TIP3    H140849   3.189   2.980   2.543  0.8086  1.1520 -0.3944
 6478TIP3    H240850   3.258   2.938   2.670 -0.2161  0.3871 -0.0788
 6479TIP3   OH240851   4.937   5.644  16.746 -0.3762  0.2819  0.0841
 6479TIP3    H140852   5.018   5.608  16.712  0.7770  1.8952  1.0528
 6479TIP3    H240853   4.926   5.604  16.832 -0.7649 -0.1525 -0.1640
 6480TIP3   OH240854   4.553   2.048  15.218  0.3622 -0.3182 -0.0137
 6480TIP3    H140855   4.465   2.055  15.180  0.3024 -0.1873  0.1451
 6480TIP3    H240856   4.601   1.992  15.158  0.0623 -0.6836  0.0835
 6481TIP3   OH240857   0.851   2.877  15.374  0.1768 -0.1192  0.1462
 6481TIP3    H140858   0.921   2.836  15.323  1.1240  0.4598  0.9746
 6481TIP3    H240859   0.885   2.963  15.398 -1.2426  0.5978 -0.3537
 6482TIP3   OH240860   4.840   6.745  11.374 -0.7320 -0.8286 -0.2605
 6482TIP3    H140861   4.914   6.787  11.417 -0.0463 -1.3414 -0.9127
 6482TIP3    H240862   4.818   6.803  11.301 -2.2334  0.3097  1.0580
 6483TIP3   OH240863   5.922   3.987  11.901 -0.2682  0.1452  0.5178
 6483TIP3    H140864   5.841   3.972  11.852 -0.5391 -0.8725  1.2563
 6483TIP3    H240865   5.953   3.899  11.924  0.5889  0.5627  0.9702
 6484TIP3   OH240866   6.396   5.620  13.510 -0.7699 -0.1114  0.0386
 6484TIP3    H140867   6.435   5.706  13.494 -0.3042 -0.1403  1.0296
 6484TIP3    H240868   6.415   5.601  13.601 -0.9257 -1.2439 -0.1567
 6485TIP3   OH240869   5.392   4.792  16.808 -0.1613 -0.4262 -0.2596
 6485TIP3    H140870   5.408   4.706  16.847  2.1947  1.0051  2.1434
 6485TIP3    H240871   5.422   4.784  16.718  0.3249 -2.0353  0.0306
 6486TIP3   OH240872   6.248   6.676   2.086 -0.1078  1.0265 -0.4779
 6486TIP3    H140873   6.198   6.755   2.065  1.5176  1.8844 -1.2696
 6486TIP3    H240874   6.339   6.699   2.063  0.4257 -0.9699 -0.4495
 6487TIP3   OH240875   0.721   6.751   0.728  0.4851  0.2215 -0.3123
 6487TIP3    H140876   0.640   6.752   0.677 -0.9826 -0.1793  1.9630
 6487TIP3    H240877   0.790   6.761   0.663 -1.2448 -2.1178 -2.5957
 6488TIP3   OH240878   4.057   3.123  16.620  0.1734 -0.1147 -0.2514
 6488TIP3    H140879   4.131   3.067  16.645  0.8897  0.7582 -0.4225
 6488TIP3    H240880   4.059   3.195  16.683 -1.0931 -0.5543  0.3254
 6489TIP3   OH240881   3.183   3.129  13.339  0.4837 -0.3586 -0.3490
 6489TIP3    H140882   3.087   3.133  13.341  0.3492 -2.5519 -1.4167
 6489TIP3    H240883   3.207   3.182  13.264  0.1984  1.3786  0.7632
 6490TIP3   OH240884   4.212   1.889  16.876  0.1414  0.3575 -0.2285
 6490TIP3    H140885   4.265   1.914  16.800 -0.0693 -0.2181 -0.5639
 6490TIP3    H240886   4.136   1.947  16.872  1.0147  1.5934  0.5784
 6491TIP3   OH240887   1.589   6.650   1.505  0.1307  0.1846  0.0116
 6491TIP3    H140888   1.578   6.728   1.452  0.0705  0.1966  0.0407
 6491TIP3    H240889   1.666   6.606   1.469  1.2304  1.1742  1.1473
 6492TIP3   OH240890   6.397   5.651  12.428 -0.3419 -0.1758 -0.5943
 6492TIP3    H140891   6.368   5.561  12.414  0.2844 -0.4119 -0.4140
 6492TIP3    H240892   6.363   5.673  12.515 -0.8189 -0.1013 -0.7974
 6493TIP3   OH240893   4.814   5.324   5.500  0.0216 -0.2069  0.7427
 6493TIP3    H140894   4.841   5.234   5.518 -2.3419 -0.7971  1.4730
 6493TIP3    H240895   4.827   5.370   5.583 -0.2945 -0.2742  0.8318
 6494TIP3   OH240896   5.483   1.241   5.675 -0.6312 -0.0907  0.4539
 6494TIP3    H140897   5.567   1.238   5.720  1.0839 -0.8564 -2.6771
 6494TIP3    H240898   5.478   1.330   5.639 -1.3467  0.0680  0.9291
 6495TIP3   OH240899   0.471   2.869   4.528  0.7234 -0.2633 -0.2475
 6495TIP3    H140900   0.385   2.844   4.493  0.1072  1.6072 -0.1359
 6495TIP3    H240901   0.533   2.810   4.484 -0.5785 -1.4271 -0.5614
 6496TIP3   OH240902   2.784   3.563  14.687  0.0242 -0.7670 -0.1918
 6496TIP3    H140903   2.847   3.552  14.616 -1.0367  0.2477 -1.2988
 6496TIP3    H240904   2.748   3.475  14.700 -0.3551 -0.8114 -1.4587
 6497TIP3   OH240905   0.269   4.923   0.204  0.2739 -0.9455 -0.4540
 6497TIP3    H140906   0.349   4.927   0.151 -0.0081  2.7214 -0.7758
 6497TIP3    H240907   0.298   4.944   0.293 -0.5387  3.0670 -1.0062
 6498TIP3   OH240908   3.232   1.434   0.678 -0.1329 -0.5644 -0.0938
 6498TIP3    H140909   3.320   1.467   0.660 -0.7980  1.4307  0.1499
 6498TIP3    H240910   3.175   1.486   0.622 -1.2437 -1.2293  0.3974
 6499TIP3   OH240911   0.285   2.201  15.713  0.0251 -0.4563 -0.0039
 6499TIP3    H140912   0.345   2.168  15.646  1.5499 -0.7920  1.4882
 6499TIP3    H240913   0.269   2.125  15.769 -1.0586 -0.1168  0.1537
 6500TIP3   OH240914   6.480   6.248   4.306  0.3864  0.0451 -0.7515
 6500TIP3    H140915   6.456   6.299   4.384  1.8387 -0.2452 -0.1112
 6500TIP3    H240916   6.539   6.181   4.338  0.1104 -0.7825 -1.9379
 6501TIP3   OH240917   3.568   0.918  15.093  0.3961  0.2939 -0.3670
 6501TIP3    H140918   3.478   0.912  15.123  0.8820 -1.1098  0.8237
 6501TIP3    H240919   3.599   0.828  15.090  2.5029  0.9037  1.5575
 6502TIP3   OH240920   3.199   2.686  16.207  0.0095  0.2841  0.1142
 6502TIP3    H140921   3.134   2.731  16.154  0.5025  1.1768  0.2558
 6502TIP3    H240922   3.240   2.755  16.259  0.9063 -0.2950  0.1966
 6503TIP3   OH240923   0.312   2.966   5.402  0.2005  0.6715 -1.0252
 6503TIP3    H140924   0.357   2.969   5.486 -0.3462 -3.2494 -0.4957
 6503TIP3    H240925   0.220   2.984   5.424  0.3455  1.4304 -1.0424
 6504TIP3   OH240926   6.443   1.663  15.430 -0.6132  0.3330  0.3775
 6504TIP3    H140927   6.481   1.659  15.517 -0.6604  0.2029  0.3919
 6504TIP3    H240928   6.407   1.575  15.415 -0.4142  0.2910  0.1399
 6505TIP3   OH240929   5.759   0.003  16.244  0.0236  0.2849 -0.2926
 6505TIP3    H140930   5.778   0.019  16.336  1.1457 -0.3677 -0.3979
 6505TIP3    H240931   5.828   0.050  16.197 -0.0165 -0.1327 -0.7677
 6506TIP3   OH240932   0.778   1.204   3.610 -0.1521  0.1765  0.1295
 6506TIP3    H140933   0.751   1.148   3.538 -0.6402 -1.2055  1.3585
 6506TIP3    H240934   0.744   1.291   3.587  2.1549  0.4122 -2.6540
 6507TIP3   OH240935   1.072   4.810  16.147  0.0014 -0.5838 -0.3054
 6507TIP3    H140936   1.016   4.738  16.176 -1.7064  0.5202 -0.8040
 6507TIP3    H240937   1.158   4.789  16.183 -1.2783 -0.9848  2.7216
 6508TIP3   OH240938   4.999   5.160   3.255  0.4015  0.0071  0.1575
 6508TIP3    H140939   5.079   5.180   3.303  0.2057 -0.4165  0.6669
 6508TIP3    H240940   5.018   5.077   3.211  0.5316  0.3238 -0.3796
 6509TIP3   OH240941   0.139   2.563   2.166  0.5651 -0.0606 -0.3318
 6509TIP3    H140942   0.166   2.495   2.104  1.8073  0.9773 -0.9612
 6509TIP3    H240943   0.090   2.516   2.233  2.0282 -1.7022 -0.3724
 6510TIP3   OH240944   2.797   4.451  14.549 -0.3550 -0.1397  0.3213
 6510TIP3    H140945   2.862   4.458  14.619  0.0158 -0.9293  0.0569
 6510TIP3    H240946   2.717   4.424  14.595 -0.4289  0.5398  0.6020
 6511TIP3   OH240947   5.820   0.374   1.627  0.4146 -0.1078 -0.3106
 6511TIP3    H140948   5.823   0.455   1.678  0.3624 -0.1094 -0.3045
 6511TIP3    H240949   5.727   0.353   1.621  0.4519 -0.3584 -0.0155
 6512TIP3   OH240950   5.959   3.075   1.351 -0.2855  0.5345 -0.1383
 6512TIP3    H140951   6.018   3.105   1.282  2.8888 -1.9615  1.3829
 6512TIP3    H240952   5.982   3.129   1.427 -0.9672  0.5039  0.0972
 6513TIP3   OH240953   6.696   1.445  15.454 -0.3921  0.2720 -0.1845
 6513TIP3    H140954   6.606   1.477  15.457 -0.7956 -0.7027 -1.4366
 6513TIP3    H240955   6.703   1.400  15.370  1.1795  0.0795  0.0326
 6514TIP3   OH240956   4.471   6.113  11.290 -0.7911  0.0800 -0.7212
 6514TIP3    H140957   4.386   6.101  11.248 -1.4653  1.2173  0.2961
 6514TIP3    H240958   4.451   6.153  11.374  0.5537 -1.9978  0.6260
 6515TIP3   OH240959   4.999   6.610  14.080  0.2993 -0.3032 -0.3382
 6515TIP3    H140960   5.063   6.545  14.107  1.0704  0.3012 -0.6963
 6515TIP3    H240961   5.041   6.694  14.099 -0.5827  0.0894 -0.1201
 6516TIP3   OH240962   0.148   6.487  13.619 -0.1140  0.1747 -0.4305
 6516TIP3    H140963   0.119   6.397  13.636 -0.5249  0.1888 -1.0605
 6516TIP3    H240964   0.244   6.481  13.612 -0.2630 -0.4556 -1.9813
 6517TIP3   OH240965   2.349   5.259  10.947 -0.2934  0.1888  0.5170
 6517TIP3    H140966   2.366   5.300  10.862 -1.5008  0.2115  0.2707
 6517TIP3    H240967   2.365   5.166  10.933  0.4435  0.3169  0.5205
 6518TIP3   OH240968   5.930   2.582   2.946  0.4597 -0.3399  0.2037
 6518TIP3    H140969   5.927   2.589   3.041  1.6506  0.2640  0.2060
 6518TIP3    H240970   6.011   2.626   2.921 -0.4843  0.6204 -1.2090
 6519TIP3   OH240971   6.652   3.223  11.935 -0.0586 -0.2053  0.2894
 6519TIP3    H140972   6.638   3.308  11.975  0.1142 -0.0878  0.1007
 6519TIP3    H240973   6.727   3.186  11.982 -0.3036 -0.3657  0.5505
 6520TIP3   OH240974   4.387   6.167   6.244 -0.1364  0.4807  0.0339
 6520TIP3    H140975   4.308   6.145   6.293 -1.3475  0.9260 -1.6528
 6520TIP3    H240976   4.425   6.083   6.219  0.4950  0.2583  1.7373
 6521TIP3   OH240977   1.828   0.789   0.942  0.2116 -0.2181  0.0160
 6521TIP3    H140978   1.885   0.716   0.965  1.6135  0.9727  0.4191
 6521TIP3    H240979   1.859   0.818   0.856 -0.1101  0.1110  0.0118
 6522TIP3   OH240980   1.638   1.340   4.041 -0.5880  0.3956 -0.3601
 6522TIP3    H140981   1.559   1.340   3.986  0.8365 -0.1805 -2.4817
 6522TIP3    H240982   1.658   1.433   4.052 -1.6180  0.5482  0.2780
 6523TIP3   OH240983   2.969   1.928  17.190 -0.0697  0.0649 -0.3508
 6523TIP3    H140984   3.049   1.939  17.242  1.0872 -3.9612 -1.1000
 6523TIP3    H240985   3.001   1.904  17.103 -2.0823  2.2889 -1.7581
 6524TIP3   OH240986   6.578   6.764   1.773  0.8708 -0.2028 -0.0937
 6524TIP3    H140987   6.523   6.743   1.698 -1.0742 -1.1922  1.5823
 6524TIP3    H240988   6.577   6.860   1.777 -0.4228 -0.1973 -0.3216
 6525TIP3   OH240989   3.896   5.493   5.980  0.0077 -0.0348  0.4911
 6525TIP3    H140990   3.864   5.403   5.981 -0.6204  0.1906  1.8290
 6525TIP3    H240991   3.952   5.500   6.057  1.2471  0.3233 -0.4087
 6526TIP3   OH240992   4.384   3.341   3.516 -0.1065  0.4881 -0.9052
 6526TIP3    H140993   4.384   3.335   3.611  1.3659 -0.6505 -0.9633
 6526TIP3    H240994   4.454   3.282   3.488 -0.6630  0.6501 -2.7032
 6527TIP3   OH240995   5.355   6.226   3.962  0.5490  0.0153 -0.1633
 6527TIP3    H140996   5.281   6.280   3.932 -0.1633 -0.7431  0.2186
 6527TIP3    H240997   5.314   6.148   4.000  1.5173  0.2277  1.3128
 6528TIP3   OH240998   4.671   0.687   4.569  0.8280  0.4494  0.0008
 6528TIP3    H140999   4.731   0.613   4.581  0.5658  0.0270 -1.1946
 6528TIP3    H241000   4.584   0.647   4.573  0.6525  0.9128  0.7693
 6529TIP3   OH241001   4.107   1.752   0.359 -0.1947 -0.4946 -0.2290
 6529TIP3    H141002   4.082   1.771   0.449  1.6009  1.0423 -0.0402
 6529TIP3    H241003   4.026   1.764   0.309 -0.8637  0.0518  0.9556
 6530TIP3   OH241004   3.041   3.250  13.693  0.7703 -0.2850 -0.6980
 6530TIP3    H141005   3.055   3.318  13.628 -1.3781 -1.7215 -2.7291
 6530TIP3    H241006   2.953   3.267  13.727  0.4701 -1.6581 -0.7638
 6531TIP3   OH241007   3.568   3.676   5.711  0.5172 -0.3996 -0.2341
 6531TIP3    H141008   3.599   3.650   5.797  0.1749  0.3833  0.1262
 6531TIP3    H241009   3.497   3.737   5.728 -0.6821 -1.5284 -1.0486
 6532TIP3   OH241010   2.946   4.186  12.532  0.0834  0.6226  0.6331
 6532TIP3    H141011   3.012   4.253  12.549  2.2958 -1.8663  2.3675
 6532TIP3    H241012   2.887   4.225  12.468  3.0357  3.0809 -0.6992
 6533TIP3   OH241013   0.428   3.939  16.764 -0.3983 -0.2725 -1.2034
 6533TIP3    H141014   0.476   3.859  16.781 -0.6405 -0.1769 -0.0175
 6533TIP3    H241015   0.479   3.985  16.697  0.7495 -0.5212 -0.4972
 6534TIP3   OH241016   4.533   3.789   2.739 -0.3406  0.7388 -0.3861
 6534TIP3    H141017   4.521   3.828   2.826 -0.6081  2.6908 -1.2913
 6534TIP3    H241018   4.598   3.844   2.696  0.9484 -1.1239 -0.9088
 6535TIP3   OH241019   4.136   3.137   3.637 -0.1084  0.3363 -0.3220
 6535TIP3    H141020   4.178   3.194   3.701  0.4503  1.1534 -1.4014
 6535TIP3    H241021   4.194   3.060   3.632  0.2817  0.6389 -0.4472
 6536TIP3   OH241022   2.312   5.225  11.461  0.0071 -0.2324 -0.0131
 6536TIP3    H141023   2.295   5.230  11.367  0.1285 -0.0141 -0.0222
 6536TIP3    H241024   2.407   5.237  11.469 -0.0974  0.4521  0.1952
 6537TIP3   OH241025   0.760   0.733  14.636  0.2299  0.4044  0.1583
 6537TIP3    H141026   0.673   0.763  14.663  1.0225  2.7349  0.2664
 6537TIP3    H241027   0.780   0.783  14.557  0.6559 -1.5897 -1.0320
 6538TIP3   OH241028   5.856   5.765   5.742 -0.0630 -0.0906  0.4381
 6538TIP3    H141029   5.806   5.709   5.802  0.6883  0.4028  1.5339
 6538TIP3    H241030   5.919   5.706   5.701 -1.7983 -0.8138 -1.2896
 6539TIP3   OH241031   4.792   6.041  15.979  0.0877 -0.3695 -0.1573
 6539TIP3    H141032   4.850   6.106  16.018 -2.9949  1.2463  1.9260
 6539TIP3    H241033   4.754   5.994  16.053 -2.7201 -0.0674 -1.3264
 6540TIP3   OH241034   2.159   6.049   3.261  0.4189 -0.0423  0.1200
 6540TIP3    H141035   2.181   6.041   3.354  0.0409 -0.6609  0.1552
 6540TIP3    H241036   2.210   6.125   3.232  1.4126 -0.5219  0.5701
 6541TIP3   OH241037   0.939   4.544  12.010  0.0860  0.3532  0.0639
 6541TIP3    H141038   0.914   4.637  12.014  1.4593  0.7334 -0.0501
 6541TIP3    H241039   1.008   4.541  11.944  0.2291 -0.7127  0.2573
 6542TIP3   OH241040   1.471   5.216   4.826 -0.5508  0.0273  0.4239
 6542TIP3    H141041   1.472   5.128   4.789 -1.2784 -0.1480  0.8038
 6542TIP3    H241042   1.562   5.233   4.851 -0.1333 -0.0379 -0.9805
 6543TIP3   OH241043   4.972   3.484   2.050 -0.9403 -0.2895  0.4203
 6543TIP3    H141044   4.906   3.450   1.990  0.1933  0.5001 -1.3120
 6543TIP3    H241045   5.056   3.459   2.010 -0.1255  2.4386  0.3474
 6544TIP3   OH241046   2.454   6.237  14.692 -0.1588 -0.1692 -0.1183
 6544TIP3    H141047   2.450   6.224  14.597 -0.0909 -2.7736  0.1783
 6544TIP3    H241048   2.461   6.148  14.727  0.8384  0.8254  2.2819
 6545TIP3   OH241049   1.157   5.344  10.970  0.1764 -0.6560 -0.5133
 6545TIP3    H141050   1.169   5.383  10.884  0.3159  1.2533  0.3571
 6545TIP3    H241051   1.177   5.414  11.032  0.4730 -2.1161  1.0838
 6546TIP3   OH241052   1.334   3.794  15.549  0.1375  0.6336 -0.1151
 6546TIP3    H141053   1.247   3.767  15.578 -0.6425  1.8456 -1.2448
 6546TIP3    H241054   1.369   3.718  15.503 -0.4668  0.2657  0.0323
 6547TIP3   OH241055   4.633   1.486  13.655  0.2512  0.3346 -0.4443
 6547TIP3    H141056   4.610   1.434  13.578  0.8901  0.3929 -0.6779
 6547TIP3    H241057   4.728   1.500  13.647  0.3592  0.1309  0.4792
 6548TIP3   OH241058   3.561   0.245   4.570  0.0678 -0.3319 -0.0876
 6548TIP3    H141059   3.542   0.249   4.663  0.7332 -1.7229  0.1258
 6548TIP3    H241060   3.505   0.312   4.531 -1.1140 -0.5641  1.1732
 6549TIP3   OH241061   3.924   2.245  17.126 -0.1572 -0.1198  0.1139
 6549TIP3    H141062   3.907   2.333  17.093  1.2281  0.2200  0.2461
 6549TIP3    H241063   3.934   2.191  17.047 -1.3790 -0.2454  0.0375
 6550TIP3   OH241064   1.946   4.554  13.512  0.2126  0.4121  0.1381
 6550TIP3    H141065   1.937   4.561  13.607 -0.4166 -1.4735  0.2387
 6550TIP3    H241066   1.874   4.605  13.477 -0.7119 -0.4892  0.7103
 6551TIP3   OH241067   3.768   1.438   2.444  0.2105  0.6183 -0.0074
 6551TIP3    H141068   3.689   1.390   2.422 -1.1984  2.0503  1.7865
 6551TIP3    H241069   3.808   1.460   2.360 -0.7954 -0.8943 -0.9008
 6552TIP3   OH241070   0.065   6.700   3.124 -0.2371  0.1421  0.0293
 6552TIP3    H141071   0.123   6.769   3.091  0.8195  0.2533  2.0408
 6552TIP3    H241072  -0.014   6.746   3.153 -0.6887  0.1707 -1.2073
 6553TIP3   OH241073   5.303   1.572   1.523 -0.1545 -0.3370  0.0471
 6553TIP3    H141074   5.387   1.525   1.524  0.5327  0.8354  1.8806
 6553TIP3    H241075   5.274   1.568   1.433  1.5696 -1.3484 -0.4889
 6554TIP3   OH241076   4.306   1.639  12.666  0.4224 -0.9189 -0.2622
 6554TIP3    H141077   4.215   1.650  12.636 -0.2493 -0.5195  1.8069
 6554TIP3    H241078   4.298   1.596  12.751  2.0366  1.2250  1.0206
 6555TIP3   OH241079   4.469   3.533   4.881  0.1412  0.0108 -0.0171
 6555TIP3    H141080   4.383   3.506   4.911 -0.4467  0.7679 -1.0000
 6555TIP3    H241081   4.483   3.619   4.921  0.8180 -0.4996  0.8538
 6556TIP3   OH241082   6.573   6.538  12.187  0.3478 -0.1326 -0.2869
 6556TIP3    H141083   6.620   6.555  12.106  2.8013 -0.4424  1.0115
 6556TIP3    H241084   6.506   6.474  12.163  2.4789 -1.9462 -1.6749
 6557TIP3   OH241085   3.057   2.416   1.623 -0.3659 -0.2185  0.4208
 6557TIP3    H141086   3.131   2.357   1.636  0.2636  0.5365  0.2862
 6557TIP3    H241087   3.087   2.477   1.555 -0.9416  0.3672  0.6945
 6558TIP3   OH241088   5.350   5.629   0.259  0.2764  0.3848 -0.1798
 6558TIP3    H141089   5.402   5.696   0.217  2.4408 -0.5043  1.0066
 6558TIP3    H241090   5.351   5.652   0.352 -1.2675  0.2365 -0.1165
 6559TIP3   OH241091   1.576   4.678   1.577  0.6919  0.3461  0.4057
 6559TIP3    H141092   1.629   4.652   1.502  1.4727  1.4587  0.5543
 6559TIP3    H241093   1.637   4.727   1.633  0.4600 -1.4969  2.3689
 6560TIP3   OH241094   0.023   3.041   0.763  0.2371 -0.5762 -0.9878
 6560TIP3    H141095  -0.040   3.044   0.836  0.6150 -0.2811 -0.6703
 6560TIP3    H241096   0.057   2.952   0.764 -0.5558 -0.8884 -1.4859
 6561TIP3   OH241097   4.499   1.956   5.856 -0.5440  0.4106 -0.4684
 6561TIP3    H141098   4.503   1.948   5.761 -0.5949  0.9880 -0.5247
 6561TIP3    H241099   4.406   1.945   5.877 -0.5547  0.4350 -0.5016
 6562TIP3   OH241100   2.324   2.169   1.214 -0.6782 -0.5538 -0.2112
 6562TIP3    H141101   2.326   2.142   1.306  0.5390 -0.3758 -0.1737
 6562TIP3    H241102   2.239   2.140   1.182 -1.8295  0.9222  1.4221
 6563TIP3   OH241103   0.163   1.712  13.711 -0.2257  0.1426  0.1217
 6563TIP3    H141104   0.111   1.642  13.673 -0.9496 -0.0835  1.5021
 6563TIP3    H241105   0.162   1.695  13.805  2.0622  0.3385  0.2081
 6564TIP3   OH241106   4.918   3.025  16.416  0.2236 -0.0129 -0.0997
 6564TIP3    H141107   4.951   2.941  16.446 -1.0157 -0.4061  0.1711
 6564TIP3    H241108   4.937   3.027  16.322 -0.3409 -0.8808 -0.2373
 6565TIP3   OH241109   4.362   4.275   4.543 -0.2480 -0.7691 -0.6817
 6565TIP3    H141110   4.271   4.250   4.558 -0.2579  0.5825  1.7140
 6565TIP3    H241111   4.357   4.355   4.491 -0.3681 -1.6124 -1.9922
 6566TIP3   OH241112   0.957   2.475   0.083  0.1039 -0.0544  0.7229
 6566TIP3    H141113   0.895   2.402   0.084 -1.0141  0.8101 -2.0837
 6566TIP3    H241114   1.025   2.449   0.022  0.6117  0.5419  1.0233
 6567TIP3   OH241115   3.393   4.351  13.539  0.2117 -0.5331 -0.2376
 6567TIP3    H141116   3.336   4.383  13.470  0.0464  1.0048  0.6028
 6567TIP3    H241117   3.335   4.332  13.612  0.5907 -0.5118  0.0714
 6568TIP3   OH241118   5.040   6.315  11.917  0.6382 -0.8246  0.4874
 6568TIP3    H141119   4.991   6.282  11.842 -2.2588 -0.4996  2.1784
 6568TIP3    H241120   5.051   6.240  11.975  1.3571 -0.6884  0.5410
 6569TIP3   OH241121   1.496   0.155  16.881  0.2485 -0.1820  0.1589
 6569TIP3    H141122   1.536   0.108  16.808 -0.3631  2.8405 -2.2636
 6569TIP3    H241123   1.427   0.207  16.840 -1.8276 -0.3652  3.3216
 6570TIP3   OH241124   4.077   5.134   1.649  0.0451 -0.2367 -0.5309
 6570TIP3    H141125   4.120   5.089   1.722  2.5097  2.6571 -0.0958
 6570TIP3    H241126   4.121   5.100   1.571 -1.1027 -1.7386 -0.5417
 6571TIP3   OH241127   2.745   2.356  13.629  0.3835 -0.2793  0.3822
 6571TIP3    H141128   2.749   2.372  13.535 -1.2517 -0.9149  0.1842
 6571TIP3    H241129   2.816   2.295  13.646  0.1729 -0.8039 -0.5923
 6572TIP3   OH241130   6.006   2.827  15.194  0.0929 -0.3478 -0.6262
 6572TIP3    H141131   6.096   2.822  15.161 -0.5735 -0.9970 -2.4634
 6572TIP3    H241132   6.011   2.793  15.283  1.6663 -0.4288 -0.7324
 6573TIP3   OH241133   3.227   3.590   4.363  0.2111  0.2228 -0.2531
 6573TIP3    H141134   3.189   3.533   4.429 -0.9803  2.1987  0.8081
 6573TIP3    H241135   3.304   3.628   4.405 -0.2616  1.0954 -0.1671
 6574TIP3   OH241136   4.628   5.742   3.365  0.2423  0.0727  0.3408
 6574TIP3    H141137   4.604   5.706   3.280 -0.1521  1.4270 -0.1443
 6574TIP3    H241138   4.646   5.666   3.420  0.1778 -0.8182 -0.8617
 6575TIP3   OH241139   2.306   2.193  16.699  0.2810 -0.1808  0.3261
 6575TIP3    H141140   2.389   2.151  16.679  0.3737  0.0189  0.2924
 6575TIP3    H241141   2.328   2.263  16.760  0.0718 -0.4319  0.6914
 6576TIP3   OH241142   2.461   5.995   3.559  0.4434  0.6628 -0.5732
 6576TIP3    H141143   2.373   6.032   3.546 -0.5449 -1.2409  0.4339
 6576TIP3    H241144   2.489   6.029   3.644  1.0782  2.0082 -1.3135
 6577TIP3   OH241145   4.692   2.947   0.377  0.2301 -0.4794 -0.7868
 6577TIP3    H141146   4.739   3.002   0.313  0.4186  0.0131 -0.2265
 6577TIP3    H241147   4.691   2.860   0.337 -1.4261  0.2419 -2.4060
 6578TIP3   OH241148   6.717   2.518  11.419  0.4220 -0.3016  0.0157
 6578TIP3    H141149   6.715   2.446  11.356  0.7534  0.6994 -1.1434
 6578TIP3    H241150   6.639   2.570  11.399 -0.0810 -0.5931  1.1674
 6579TIP3   OH241151   1.945   4.677   6.326 -0.0774  0.5669  0.1366
 6579TIP3    H141152   1.871   4.688   6.385  0.3477  0.0860  0.7671
 6579TIP3    H241153   2.006   4.746   6.352  0.2668  0.1273  0.5088
 6580TIP3   OH241154   3.942   3.789   1.321  0.4799 -0.1104  0.7203
 6580TIP3    H141155   3.871   3.813   1.381  1.7436  2.4597  1.2776
 6580TIP3    H241156   3.928   3.844   1.244  1.2337 -0.3636  0.3992
 6581TIP3   OH241157   5.824   6.038  12.941 -0.3341  0.2982  0.2263
 6581TIP3    H141158   5.794   6.116  12.987 -0.8005  0.3204 -0.1231
 6581TIP3    H241159   5.745   5.998  12.906 -0.2210 -0.8906  1.2832
 6582TIP3   OH241160   2.375   5.669   5.973 -0.0900 -0.0247 -0.7494
 6582TIP3    H141161   2.437   5.614   6.019 -1.6301 -1.5665 -0.4713
 6582TIP3    H241162   2.309   5.692   6.039  0.1485  1.5669 -1.0349
 6583TIP3   OH241163   0.928   4.352   2.658 -0.1919 -0.0012 -0.0998
 6583TIP3    H141164   0.907   4.445   2.668 -1.7524 -0.4813  1.4886
 6583TIP3    H241165   0.903   4.331   2.568 -1.1673  0.8050 -0.0255
 6584TIP3   OH241166   1.152   3.966   0.589  1.1185  0.5397 -0.2324
 6584TIP3    H141167   1.210   4.030   0.631 -0.5836  1.6074  0.5494
 6584TIP3    H241168   1.161   3.983   0.495  1.3408  1.3402 -0.0684
 6585TIP3   OH241169   5.574   4.313   2.974 -0.3940 -0.1264  0.3088
 6585TIP3    H141170   5.641   4.303   2.907  1.1715 -1.5264  2.0102
 6585TIP3    H241171   5.542   4.403   2.964  0.6378  0.0532 -1.5199
 6586TIP3   OH241172   1.995   5.720   1.456 -0.3785  0.3356 -0.1655
 6586TIP3    H141173   2.022   5.743   1.545  0.6668  1.8339 -0.8552
 6586TIP3    H241174   1.933   5.648   1.468 -0.7879  0.9887  1.8142
 6587TIP3   OH241175   5.126   6.506   1.279 -0.3186 -0.1937 -0.0768
 6587TIP3    H141176   5.191   6.512   1.210  0.2896 -2.0992  0.2982
 6587TIP3    H241177   5.075   6.587   1.271  1.0956  0.6058 -1.3555
 6588TIP3   OH241178   3.450   5.515  12.886 -0.0856  0.5842  0.5073
 6588TIP3    H141179   3.388   5.550  12.949 -1.0980  0.1208 -0.2129
 6588TIP3    H241180   3.521   5.579  12.883 -1.1779  1.7887  0.3277
 6589TIP3   OH241181   4.345   2.988  15.011  0.4409  0.1001 -0.2514
 6589TIP3    H141182   4.260   2.949  14.992  0.5136 -0.4407  0.5193
 6589TIP3    H241183   4.352   3.060  14.949 -0.0656 -0.5823 -1.1115
 6590TIP3   OH241184   3.595   1.863   2.586  0.1113  0.2047 -0.6885
 6590TIP3    H141185   3.572   1.928   2.652  0.6717  3.4551 -3.5561
 6590TIP3    H241186   3.687   1.843   2.603 -0.3147 -0.5788  0.7717
 6591TIP3   OH241187   3.653   1.710  11.682  0.9116  0.2108 -0.0750
 6591TIP3    H141188   3.699   1.787  11.715  0.3702 -0.1147  1.4417
 6591TIP3    H241189   3.608   1.742  11.604 -0.4085  1.7809  1.3015
 6592TIP3   OH241190   2.594   1.461  14.091 -0.0155  0.3870  0.2292
 6592TIP3    H141191   2.609   1.489  14.181 -0.8580 -1.9683  1.1425
 6592TIP3    H241192   2.500   1.446  14.086 -0.0497  1.0344 -1.2086
 6593TIP3   OH241193   5.135   0.123  11.860  0.3529  0.4494 -0.1700
 6593TIP3    H141194   5.228   0.118  11.841  0.6383  0.6864  1.1243
 6593TIP3    H241195   5.122   0.064  11.934 -0.7409 -0.5029 -1.0984
 6594TIP3   OH241196   0.920   2.531   0.690  0.0391 -0.3547  0.4870
 6594TIP3    H141197   0.928   2.501   0.599 -2.2184  0.6659 -0.1002
 6594TIP3    H241198   0.949   2.622   0.688 -0.6928 -0.1116  0.6245
 6595TIP3   OH241199   3.602   2.388   1.819  0.1008  0.1713 -0.1921
 6595TIP3    H141200   3.662   2.349   1.754 -0.6681 -1.9142  0.2983
 6595TIP3    H241201   3.660   2.419   1.889  0.6218 -2.6864  0.7256
 6596TIP3   OH241202   1.809   2.511  16.778 -0.1413  0.3914  0.2125
 6596TIP3    H141203   1.811   2.418  16.801  0.7689 -0.2529 -2.2798
 6596TIP3    H241204   1.727   2.523  16.730  1.1320  0.1637 -2.0942
 6597TIP3   OH241205   2.077   0.945   3.080  0.1250  0.3410  0.0113
 6597TIP3    H141206   2.163   0.902   3.073 -0.3156 -0.8457  1.5958
 6597TIP3    H241207   2.096   1.031   3.117  0.7793  0.6829 -1.0780
 6598TIP3   OH241208   1.774   0.288  16.956 -0.5404  0.0892  0.2161
 6598TIP3    H141209   1.829   0.260  17.029  1.0026  1.0754 -0.5296
 6598TIP3    H241210   1.730   0.367  16.987  0.0153  0.4335  0.1328
 6599TIP3   OH241211   2.078   2.043   1.787 -0.1817 -0.6786 -0.1339
 6599TIP3    H141212   2.156   1.993   1.763 -1.6704 -2.0685 -2.2569
 6599TIP3    H241213   2.016   1.978   1.820 -1.2380  0.0983 -0.5504
 6600TIP3   OH241214   2.330   0.685   5.344  0.1190 -0.2029  0.3834
 6600TIP3    H141215   2.367   0.646   5.423 -0.5931 -1.4381  0.1354
 6600TIP3    H241216   2.352   0.622   5.275 -0.8209 -0.0397 -0.0748
 6601TIP3   OH241217   4.648   1.550  10.108 -0.3457  0.1882  0.5312
 6601TIP3    H141218   4.718   1.579  10.167  0.4214 -1.0476  0.2498
 6601TIP3    H241219   4.568   1.584  10.148  0.3129  0.7449  1.4142
 6602TIP3   OH241220   5.267   0.313   5.174 -0.4154 -0.3563  0.0519
 6602TIP3    H141221   5.230   0.253   5.239 -1.6904 -0.3526 -0.6440
 6602TIP3    H241222   5.298   0.256   5.104 -0.3535 -0.2844  0.0210
 6603TIP3   OH241223   3.959   6.545   0.608 -0.4478  0.7624 -0.4963
 6603TIP3    H141224   3.917   6.460   0.601 -0.4884  0.8369 -1.1714
 6603TIP3    H241225   4.048   6.531   0.575  0.6099  0.2271  2.4131
 6604TIP3   OH241226   0.259   0.399   5.516 -0.1302  0.4696  0.2819
 6604TIP3    H141227   0.353   0.384   5.508  0.1296  1.6144  1.0763
 6604TIP3    H241228   0.252   0.486   5.556 -1.5269  0.6081 -0.2416
 6605TIP3   OH241229   6.617   4.680   1.959 -0.9571 -0.5858 -0.0991
 6605TIP3    H141230   6.550   4.617   1.933  0.7471 -2.8247  0.7508
 6605TIP3    H241231   6.595   4.702   2.050 -1.2031 -0.4148 -0.1989
 6606TIP3   OH241232   0.665   0.877  15.243  0.5995 -0.3800  0.1797
 6606TIP3    H141233   0.724   0.810  15.209 -0.1650 -0.9968  0.0619
 6606TIP3    H241234   0.646   0.933  15.167  1.0147 -0.1913  0.2133
 6607TIP3   OH241235   5.093   0.659   5.695 -0.2187  0.3187  0.7858
 6607TIP3    H141236   5.148   0.651   5.617 -0.2371  0.1652  0.7879
 6607TIP3    H241237   5.114   0.745   5.731  0.6650 -0.1050  1.2801
 6608TIP3   OH241238   5.361   3.621   3.997 -0.1772 -0.2256 -0.0167
 6608TIP3    H141239   5.276   3.659   4.018  0.1309  0.6344 -0.2920
 6608TIP3    H241240   5.394   3.588   4.080 -1.0594 -1.1345 -0.0229
 6609TIP3   OH241241   1.230   2.425  15.834  0.4703  0.5190 -0.1690
 6609TIP3    H141242   1.245   2.347  15.888 -0.4108  1.0763  0.9143
 6609TIP3    H241243   1.193   2.391  15.753  0.5792 -0.2421  0.0872
 6610TIP3   OH241244   3.683   5.873   3.516 -0.2494 -0.1954 -0.5286
 6610TIP3    H141245   3.720   5.960   3.530  0.7780 -0.4935 -1.3129
 6610TIP3    H241246   3.758   5.819   3.491 -0.4812 -1.8362  2.1436
 6611TIP3   OH241247   1.975   6.430  11.192  0.2296 -0.0720 -0.1245
 6611TIP3    H141248   1.890   6.387  11.191  0.3003 -0.2055 -0.7201
 6611TIP3    H241249   1.963   6.509  11.139  0.2908  0.2710  0.3705
 6612TIP3   OH241250   6.032   5.359  13.911 -0.0967  0.6161 -0.2167
 6612TIP3    H141251   6.024   5.333  13.819  1.1914  1.7274 -0.6600
 6612TIP3    H241252   6.040   5.455  13.907 -1.0481  0.7589  1.1218
 6613TIP3   OH241253   2.257   5.896   1.337 -0.8820 -0.0499  0.0831
 6613TIP3    H141254   2.244   5.870   1.428 -0.4684  1.3636  0.5529
 6613TIP3    H241255   2.170   5.921   1.306 -0.9168  0.0609  0.2731
 6614TIP3   OH241256   0.872   3.215  16.035 -0.2324 -0.0857  0.4523
 6614TIP3    H141257   0.807   3.174  15.978  0.2677 -1.7117  1.0466
 6614TIP3    H241258   0.956   3.185  16.002  0.1196  0.1442  1.1366
 6615TIP3   OH241259   6.443   3.766  12.274 -0.0467  0.0188  0.4423
 6615TIP3    H141260   6.446   3.670  12.280  0.2534  0.0172  0.2977
 6615TIP3    H241261   6.398   3.793  12.353 -2.4373 -0.3721 -0.7213
 6616TIP3   OH241262   5.217   5.045  16.624 -0.1145  0.3001  0.4621
 6616TIP3    H141263   5.143   5.077  16.572  0.0641  1.5357  0.9401
 6616TIP3    H241264   5.188   4.961  16.659 -1.3545  0.8267  0.7367
 6617TIP3   OH241265   4.723   5.457  16.095  0.2033  0.2570 -0.0686
 6617TIP3    H141266   4.788   5.527  16.102  1.1354 -0.3868 -1.8529
 6617TIP3    H241267   4.775   5.376  16.093 -0.6981 -0.3173 -0.6066
 6618TIP3   OH241268   0.905   4.698  13.211  0.1898 -0.7126  0.2065
 6618TIP3    H141269   0.870   4.740  13.289  0.6467  1.7759 -0.8663
 6618TIP3    H241270   0.992   4.735  13.201  0.8555 -2.4078 -0.4521
 6619TIP3   OH241271   5.306   1.075  11.303  0.0788  0.4964  0.0759
 6619TIP3    H141272   5.296   1.084  11.208  1.1976  0.8467 -0.0220
 6619TIP3    H241273   5.221   1.045  11.334 -1.0112  2.6371 -0.7554
 6620TIP3   OH241274   4.507   1.464   5.068 -0.0967  0.1584  0.6595
 6620TIP3    H141275   4.429   1.510   5.101 -2.4771 -1.9652 -1.6701
 6620TIP3    H241276   4.516   1.497   4.978  1.3248 -0.1059  0.7082
 6621TIP3   OH241277   6.364   6.468  15.626  0.1328  0.3926 -0.7663
 6621TIP3    H141278   6.402   6.554  15.613 -1.3712  1.3520  0.9375
 6621TIP3    H241279   6.269   6.483  15.625 -0.2170 -0.2519  5.1787
 6622TIP3   OH241280   4.689   0.779  13.860  0.2014  0.0731  0.6871
 6622TIP3    H141281   4.698   0.832  13.939  1.0595 -2.4686  2.3546
 6622TIP3    H241282   4.656   0.694  13.891  0.6894 -1.0269 -1.6480
 6623TIP3   OH241283   1.616   1.585  16.190  0.0019  0.5220 -0.5120
 6623TIP3    H141284   1.597   1.677  16.210 -3.0122 -0.0559 -0.4722
 6623TIP3    H241285   1.553   1.536  16.242  1.1762 -1.5724 -0.9995
 6624TIP3   OH241286   0.912   3.029  11.561 -0.6274 -0.2574 -0.0109
 6624TIP3    H141287   0.920   3.089  11.635 -1.4809 -2.6721  2.1443
 6624TIP3    H241288   0.836   3.060  11.512 -2.2898 -0.6621  2.2004
 6625TIP3   OH241289   1.372   1.876  12.068  0.1881  0.1121 -0.3442
 6625TIP3    H141290   1.282   1.907  12.070  0.1336 -0.0274 -0.5494
 6625TIP3    H241291   1.417   1.927  12.135  0.1067  0.6568 -0.6996
 6626TIP3   OH241292   0.640   0.857   3.040  0.0195 -0.0040 -0.0235
 6626TIP3    H141293   0.608   0.766   3.041 -1.8749  0.6313 -1.6223
 6626TIP3    H241294   0.561   0.910   3.031  1.0908  1.8537  1.1877
 6627TIP3   OH241295   2.832   6.021  10.838 -0.1339 -0.5141  0.4526
 6627TIP3    H141296   2.881   6.078  10.779  0.2948 -0.8400  0.4937
 6627TIP3    H241297   2.830   6.068  10.921  0.6247 -0.7613  0.6194
 6628TIP3   OH241298   6.746   2.411   5.890  0.0974  0.5929 -0.1142
 6628TIP3    H141299   6.670   2.459   5.857  0.0963  0.0639 -0.9121
 6628TIP3    H241300   6.786   2.373   5.811  0.3711 -0.3127  0.4481
 6629TIP3   OH241301   3.722   1.727   4.372  0.0735 -0.6922  0.2585
 6629TIP3    H141302   3.767   1.790   4.316 -4.2104  1.2579 -1.2243
 6629TIP3    H241303   3.717   1.647   4.320 -0.1631 -0.1974 -0.4829
 6630TIP3   OH241304   0.922   2.311  11.451 -0.2646  0.4683  0.5591
 6630TIP3    H141305   0.942   2.311  11.357  1.7548  0.0838  0.9546
 6630TIP3    H241306   0.918   2.219  11.475  0.4123  0.5572  1.0569
 6631TIP3   OH241307   2.044   5.898  17.213  0.3555  0.3542 -0.1267
 6631TIP3    H141308   2.055   5.808  17.183 -1.0059  0.3149 -0.5197
 6631TIP3    H241309   2.022   5.948  17.135 -2.9174  0.2983  0.6699
 6632TIP3   OH241310   3.386   1.281   3.452 -0.7538  0.3369 -0.0703
 6632TIP3    H141311   3.293   1.286   3.430 -0.3667  1.2900 -1.5277
 6632TIP3    H241312   3.387   1.241   3.539 -2.4025 -2.3300 -1.1771
 6633TIP3   OH241313   3.878   6.094  12.321  0.2093  0.3573  0.1682
 6633TIP3    H141314   3.831   6.100  12.404  1.5033  0.5686  0.9022
 6633TIP3    H241315   3.824   6.142  12.259 -0.8351  0.0852  0.8646
 6634TIP3   OH241316   6.070   3.196   4.687  0.1834  0.3665  0.3120
 6634TIP3    H141317   6.139   3.193   4.621 -0.1559  2.0119 -0.1426
 6634TIP3    H241318   6.107   3.249   4.758  0.7398 -1.8162  1.6929
 6635TIP3   OH241319   6.652   0.609   2.408 -0.4484 -0.0404 -0.0097
 6635TIP3    H141320   6.651   0.541   2.475 -0.0568  0.1004  0.1402
 6635TIP3    H241321   6.612   0.685   2.451  0.1768  0.1741  0.2004
 6636TIP3   OH241322   6.417   2.599   1.648 -0.0503 -0.1052 -0.1435
 6636TIP3    H141323   6.461   2.655   1.713  2.3972 -2.1233  0.0339
 6636TIP3    H241324   6.482   2.588   1.579 -0.4898 -2.6464 -0.1931
 6637TIP3   OH241325   2.451   2.299   4.901  0.2875 -0.0297  1.0684
 6637TIP3    H141326   2.519   2.253   4.851 -0.2620  0.3234 -0.0308
 6637TIP3    H241327   2.397   2.341   4.834 -0.8582 -0.0823  1.9437
 6638TIP3   OH241328   4.829   4.255   2.643 -0.0641  0.1256  0.0286
 6638TIP3    H141329   4.759   4.313   2.613  0.7627  0.7227 -0.7953
 6638TIP3    H241330   4.891   4.313   2.688  0.3476 -0.2494 -0.0470
 6639TIP3   OH241331   1.942   1.257  14.654 -0.5889 -0.1475 -0.1806
 6639TIP3    H141332   2.007   1.265  14.585 -1.5733  0.2110 -1.0819
 6639TIP3    H241333   1.962   1.327  14.715  1.1377 -1.3110  0.6338
 6640TIP3   OH241334   5.142   3.601  12.353  0.0527 -0.7367  0.1833
 6640TIP3    H141335   5.187   3.561  12.278  0.5401  1.1665 -0.5677
 6640TIP3    H241336   5.194   3.575  12.429  0.5899 -1.2023 -0.3337
 6641TIP3   OH241337   6.381   1.233  16.377 -0.4939 -0.5899 -0.0710
 6641TIP3    H141338   6.382   1.327  16.359  0.0761 -0.5222  0.3024
 6641TIP3    H241339   6.333   1.195  16.303 -1.7032  0.1045  0.3361
 6642TIP3   OH241340   1.856   6.536  13.414  0.0660  0.3141  0.3031
 6642TIP3    H141341   1.858   6.608  13.476  0.6276  1.1315 -0.6549
 6642TIP3    H241342   1.768   6.498  13.425 -1.4974  3.2232 -1.5268
 6643TIP3   OH241343   4.543   5.209  14.145  0.0457  0.4623  0.0129
 6643TIP3    H141344   4.579   5.152  14.077 -1.0183 -0.6995  0.4213
 6643TIP3    H241345   4.582   5.295  14.126  1.5308 -0.3392 -0.6994
 6644TIP3   OH241346   1.460   3.776   6.020  0.2529  0.3572 -0.2507
 6644TIP3    H141347   1.508   3.838   6.075 -1.0425  2.3975 -1.3883
 6644TIP3    H241348   1.368   3.796   6.034 -0.1245  0.8188 -3.0231
 6645TIP3   OH241349   5.235   4.333  14.419 -0.3549 -0.2642  0.0972
 6645TIP3    H141350   5.307   4.371  14.369 -1.1737  1.3222  0.0845
 6645TIP3    H241351   5.278   4.292  14.495  0.7061 -0.9183 -0.8444
 6646TIP3   OH241352   6.786   4.144   6.305 -0.4821 -0.3731 -0.1295
 6646TIP3    H141353   6.875   4.168   6.331 -0.9472  3.5148 -1.7231
 6646TIP3    H241354   6.794   4.121   6.212 -1.3410  1.5457 -0.7047
 6647TIP3   OH241355   2.000   5.343   1.330  0.0025  0.2802  0.2895
 6647TIP3    H141356   1.907   5.325   1.322 -0.1598  0.8685  0.8051
 6647TIP3    H241357   2.032   5.347   1.240 -0.0637 -1.9763  0.1543
 6648TIP3   OH241358   4.591   1.945   1.039  0.4614 -0.2891  0.5208
 6648TIP3    H141359   4.503   1.980   1.049  0.4164 -0.8882  2.5922
 6648TIP3    H241360   4.632   1.999   0.972 -1.7639 -0.5714 -1.1032
 6649TIP3   OH241361   5.510   6.000   0.966  0.4355 -0.0898  0.0456
 6649TIP3    H141362   5.438   5.989   1.029 -0.8674  1.1246 -1.1805
 6649TIP3    H241363   5.499   5.928   0.904 -0.0035  0.3344 -0.3799
 6650TIP3   OH241364   6.535   6.583   1.544  0.6416 -0.6909 -0.3812
 6650TIP3    H141365   6.561   6.622   1.461  0.8141  0.0127 -0.0003
 6650TIP3    H241366   6.614   6.539   1.576  0.7269 -0.4946 -0.3234
 6651TIP3   OH241367   6.278   5.070   1.530  0.7839  0.2858  0.5651
 6651TIP3    H141368   6.354   5.082   1.474  0.1494  1.1074 -0.1381
 6651TIP3    H241369   6.299   4.994   1.583  1.1296 -0.9026 -1.2404
 6652TIP3   OH241370   4.820   5.708  12.222  0.6715 -0.1354  0.5818
 6652TIP3    H141371   4.807   5.624  12.177 -2.1085  0.0748  0.9347
 6652TIP3    H241372   4.823   5.772  12.151 -0.6507 -0.1443  0.5201
 6653TIP3   OH241373   5.307   3.114   2.791 -0.2759 -0.2337 -0.1917
 6653TIP3    H141374   5.343   3.092   2.705  0.3169 -0.4314  0.1082
 6653TIP3    H241375   5.382   3.146   2.841 -0.6879  0.2141  0.1401
 6654TIP3   OH241376   2.753   3.074   1.924 -0.1254  0.0307  1.1220
 6654TIP3    H141377   2.668   3.031   1.923 -0.0744 -0.0573  0.2538
 6654TIP3    H241378   2.814   3.008   1.891 -0.3454  1.3556 -2.1447
 6655TIP3   OH241379   4.877   0.936  15.560  0.0210 -0.3528  0.1328
 6655TIP3    H141380   4.801   0.897  15.517 -1.6923  1.5043  1.3843
 6655TIP3    H241381   4.940   0.951  15.490 -1.6829  0.1983 -1.2964
 6656TIP3   OH241382   4.503   1.249   4.567  0.2271 -0.1354 -0.3333
 6656TIP3    H141383   4.511   1.235   4.661  0.9347  1.0784 -0.2100
 6656TIP3    H241384   4.593   1.245   4.534  0.3046  2.2915 -0.5297
 6657TIP3   OH241385   5.073   3.408  17.146 -0.3253 -0.5851  0.0473
 6657TIP3    H141386   5.112   3.430  17.231 -1.0858  0.6731  0.0890
 6657TIP3    H241387   5.107   3.475  17.086 -1.7242  0.0188 -0.0943
 6658TIP3   OH241388   2.252   3.975  17.000  0.2365  0.6574 -0.0623
 6658TIP3    H141389   2.258   3.976  16.905  1.3396 -3.0252 -0.0825
 6658TIP3    H241390   2.308   3.902  17.027 -2.2800 -0.1341  3.2334
 6659TIP3   OH241391   0.315   5.263   0.577 -0.0237  0.1878 -0.1045
 6659TIP3    H141392   0.334   5.177   0.614 -2.5333  0.5032  2.0262
 6659TIP3    H241393   0.230   5.288   0.614  0.7412  3.6747 -0.4900
 6660TIP3   OH241394   2.473   1.126   6.536 -0.1325 -0.1159  0.7075
 6660TIP3    H141395   2.498   1.171   6.617  0.1869  0.3128  0.3773
 6660TIP3    H241396   2.534   1.160   6.471  0.5443 -1.5332  0.5953
 6661TIP3   OH241397   6.781   2.173   5.162 -0.3776 -0.1616 -0.0596
 6661TIP3    H141398   6.845   2.150   5.230 -0.4434  0.7540  0.3167
 6661TIP3    H241399   6.793   2.267   5.149  0.9276 -0.6561 -2.6445
 6662TIP3   OH241400   3.125   0.055  14.954  0.2162  0.3536 -1.0265
 6662TIP3    H141401   3.054  -0.003  14.928 -1.8565  0.9518  2.9273
 6662TIP3    H241402   3.198  -0.005  14.974  0.0365 -0.4350 -2.6652
 6663TIP3   OH241403   3.577   2.562  13.410  0.1165  0.3656 -0.3139
 6663TIP3    H141404   3.624   2.478  13.414 -0.6794 -0.1094 -0.7801
 6663TIP3    H241405   3.514   2.550  13.339 -0.2981  1.2154 -0.0887
 6664TIP3   OH241406   0.225   1.360   2.277  0.4418 -0.0120 -0.5183
 6664TIP3    H141407   0.172   1.289   2.242 -0.7560  1.2227 -1.2362
 6664TIP3    H241408   0.291   1.316   2.331 -0.0183 -1.6836 -1.2900
 6665TIP3   OH241409   0.018   4.997   0.461  0.0096 -0.1182 -0.4977
 6665TIP3    H141410   0.106   4.961   0.471  0.3884  1.5335  2.4918
 6665TIP3    H241411   0.023   5.049   0.380  1.8220  0.1120 -0.2648
 6666TIP3   OH241412   0.167   4.035   1.157  0.3034 -0.0705 -0.3063
 6666TIP3    H141413   0.221   3.991   1.092  0.5215 -0.0669 -0.1254
 6666TIP3    H241414   0.214   4.025   1.240  1.2167  1.9407 -0.5323
 6667TIP3   OH241415   2.383   1.739  10.355 -0.1804 -0.0731  0.2051
 6667TIP3    H141416   2.293   1.707  10.359 -1.0059  2.4330  3.1106
 6667TIP3    H241417   2.436   1.664  10.379 -1.7794 -0.5028  2.5455
 6668TIP3   OH241418   4.022   6.127  10.930 -0.2222  0.4850  0.8727
 6668TIP3    H141419   3.951   6.188  10.908  1.2311  1.3076 -1.6698
 6668TIP3    H241420   4.058   6.100  10.846  0.4149 -2.4699  2.0273
 6669TIP3   OH241421   6.262   0.421   2.556 -0.2709  0.2959 -0.3488
 6669TIP3    H141422   6.200   0.371   2.503 -1.1856  1.0599 -0.0184
 6669TIP3    H241423   6.321   0.355   2.593 -2.1719 -0.6805  1.0239
 6670TIP3   OH241424   3.024   2.397  15.387  0.5057 -0.0748  0.0739
 6670TIP3    H141425   3.093   2.462  15.393  0.3145  0.3192 -1.8692
 6670TIP3    H241426   3.055   2.324  15.442  1.5328  0.8952  0.8014
 6671TIP3   OH241427   4.249   3.345  15.989 -0.0397 -0.5917 -0.3056
 6671TIP3    H141428   4.226   3.275  15.927 -0.8778  0.5258 -1.2857
 6671TIP3    H241429   4.270   3.420  15.933  0.5982  0.0214  0.7437
 6672TIP3   OH241430   5.810   5.687  11.821 -0.2694  0.2753  0.4616
 6672TIP3    H141431   5.893   5.730  11.844  0.1014 -0.9389  1.5166
 6672TIP3    H241432   5.760   5.753  11.775  0.6348  1.5549  1.2835
 6673TIP3   OH241433   5.793   6.533   2.185 -0.1420 -0.2163 -0.2812
 6673TIP3    H141434   5.861   6.467   2.171  0.5249  0.6032 -0.9720
 6673TIP3    H241435   5.841   6.616   2.189 -1.2186  0.5576 -2.3210
 6674TIP3   OH241436   0.053   0.644   0.961  0.0589 -0.0961  0.1605
 6674TIP3    H141437  -0.034   0.655   0.921  0.4793  0.6505 -0.5616
 6674TIP3    H241438   0.081   0.734   0.979 -0.0927 -0.4085  2.0810
 6675TIP3   OH241439   0.162   2.412  14.430 -0.4589  0.1484 -0.4716
 6675TIP3    H141440   0.254   2.418  14.452 -0.5847 -0.0931  0.1416
 6675TIP3    H241441   0.151   2.322  14.396 -0.9449 -0.6750  1.7904
 6676TIP3   OH241442   5.091   1.813   3.124 -0.2495 -0.1858 -0.0237
 6676TIP3    H141443   5.132   1.732   3.095 -1.7158 -0.9783  0.0444
 6676TIP3    H241444   5.027   1.833   3.055  0.2063  0.9883 -0.1097
 6677TIP3   OH241445   1.810   4.181   0.051 -0.4109  0.2178  0.2027
 6677TIP3    H141446   1.855   4.202   0.133 -0.7320  0.7403  0.2438
 6677TIP3    H241447   1.874   4.200  -0.017 -0.9008  1.9028  0.2028
 6678TIP3   OH241448   6.563   6.085  12.184 -0.5864 -0.0910 -0.3404
 6678TIP3    H141449   6.524   6.005  12.220 -1.0581  0.6587  0.8325
 6678TIP3    H241450   6.531   6.155  12.240  1.4330  0.6899 -0.1053
 6679TIP3   OH241451   3.115   1.652  16.124  0.5030 -0.6089  0.3813
 6679TIP3    H141452   3.047   1.720  16.123  2.0380  0.9727 -0.4127
 6679TIP3    H241453   3.143   1.645  16.033  1.8844 -0.7255  0.8049
 6680TIP3   OH241454   4.197   3.406   5.791 -0.1815  0.2942 -0.0470
 6680TIP3    H141455   4.147   3.437   5.716 -1.4042  2.6295  1.6654
 6680TIP3    H241456   4.178   3.469   5.861 -0.5538 -2.8025  2.7866
 6681TIP3   OH241457   0.591   2.374  12.908  0.5695  0.0913  0.6666
 6681TIP3    H141458   0.637   2.396  12.827 -0.9519 -1.2854 -0.6049
 6681TIP3    H241459   0.586   2.457  12.956  0.3002  1.2366 -1.2654
 6682TIP3   OH241460   0.884   4.861   5.664  0.4699 -0.3960 -0.1459
 6682TIP3    H141461   0.806   4.813   5.693 -0.4870  0.9505 -0.4535
 6682TIP3    H241462   0.912   4.910   5.742 -0.6471  1.2900 -0.7764
 6683TIP3   OH241463   2.945   1.674   2.831  0.3346  0.7402 -0.4562
 6683TIP3    H141464   2.863   1.632   2.855 -0.0985  1.8441  0.0287
 6683TIP3    H241465   2.923   1.731   2.757  0.9007  0.1689 -1.0705
 6684TIP3   OH241466   3.436   5.165   4.329  0.0307 -0.3158 -0.0340
 6684TIP3    H141467   3.394   5.213   4.258 -0.5617  1.5687  1.5320
 6684TIP3    H241468   3.417   5.073   4.312 -0.2488  0.1307 -2.1961
 6685TIP3   OH241469   0.303   2.555  15.050  0.1021  0.3301 -0.3280
 6685TIP3    H141470   0.254   2.477  15.026 -0.5846  0.3991  0.8386
 6685TIP3    H241471   0.387   2.523  15.083  0.0507  0.1230 -0.4022
 6686TIP3   OH241472   5.055   1.293  11.246  0.2547 -0.0701  0.0523
 6686TIP3    H141473   5.035   1.201  11.230  3.2461 -0.9228  0.9599
 6686TIP3    H241474   5.097   1.294  11.332  0.7940  2.0796 -0.2037
 6687TIP3   OH241475   2.147   6.433  15.582  0.0344  0.0103  0.2897
 6687TIP3    H141476   2.202   6.439  15.660 -2.0560  1.0639  1.7394
 6687TIP3    H241477   2.156   6.518  15.540 -0.0520 -0.0033  0.2436
 6688TIP3   OH241478   5.594   6.406  14.949 -0.2263  0.0378 -0.4394
 6688TIP3    H141479   5.619   6.478  14.891 -2.0039 -0.2135 -1.5838
 6688TIP3    H241480   5.601   6.442  15.037  2.9124  0.3052 -0.7628
 6689TIP3   OH241481   5.739   4.918  13.010  0.3925 -0.0608  0.1740
 6689TIP3    H141482   5.803   4.866  12.961  0.3115 -0.4682  0.4970
 6689TIP3    H241483   5.693   4.854  13.064  0.3874  0.3662  0.6766
 6690TIP3   OH241484   0.930   4.537  16.902 -0.3881  0.1329  0.4913
 6690TIP3    H141485   0.933   4.486  16.984 -0.7831 -2.8422 -1.2488
 6690TIP3    H241486   0.876   4.484  16.844  1.3195  1.3175 -2.2508
 6691TIP3   OH241487   4.485   5.996   5.248 -0.6407  0.1016 -0.0406
 6691TIP3    H141488   4.519   6.080   5.217 -2.1394 -0.3373 -2.9461
 6691TIP3    H241489   4.405   6.018   5.296  0.4394  0.5579  1.5944
 6692TIP3   OH241490   5.292   5.051   0.494  0.2479 -0.0387  0.2548
 6692TIP3    H141491   5.273   5.072   0.402 -0.0038 -1.8063 -0.1294
 6692TIP3    H241492   5.369   5.104   0.515 -0.7445  1.7173 -0.4221
 6693TIP3   OH241493   0.137   5.383  13.008  0.4016 -0.2876  0.2471
 6693TIP3    H141494   0.105   5.396  12.919  1.2939  0.4856  0.0371
 6693TIP3    H241495   0.063   5.341  13.053 -0.5412  0.5351 -0.4937
 6694TIP3   OH241496   6.577   0.769   4.525 -0.4940  0.6570  0.1441
 6694TIP3    H141497   6.641   0.710   4.485 -1.3789 -0.1211 -0.1475
 6694TIP3    H241498   6.541   0.819   4.451 -0.7462  0.5837  0.2177
 6695TIP3   OH241499   0.520   3.969  12.234  0.1582 -0.0029 -0.3475
 6695TIP3    H141500   0.560   4.038  12.181 -0.8363  0.3555 -0.6400
 6695TIP3    H241501   0.593   3.932  12.284  0.9622  0.2334 -1.3288
 6696TIP3   OH241502   3.487   0.929   2.956  0.1615  0.2816 -0.2863
 6696TIP3    H141503   3.575   0.962   2.938  0.2569 -0.3717 -1.0421
 6696TIP3    H241504   3.436   0.949   2.878  0.2157 -1.3016 -0.7407
 6697TIP3   OH241505   5.285   3.350   2.610  0.1317  0.2323 -0.2336
 6697TIP3    H141506   5.327   3.266   2.628 -1.7574 -0.3803  1.3854
 6697TIP3    H241507   5.224   3.363   2.682 -0.9336  2.1244 -1.4324
 6698TIP3   OH241508   2.600   5.651   3.035  0.1543  0.0875 -0.0313
 6698TIP3    H141509   2.596   5.747   3.028 -1.5977 -0.0153 -0.6349
 6698TIP3    H241510   2.603   5.621   2.945  3.8080 -0.3666  0.1581
 6699TIP3   OH241511   3.385   2.538   1.748 -0.1628  0.0482 -0.0767
 6699TIP3    H141512   3.378   2.543   1.652 -1.2591  0.9885  0.0436
 6699TIP3    H241513   3.467   2.491   1.763  0.0818 -0.0107 -1.4810
 6700TIP3   OH241514   5.053   2.464  14.825 -0.1308  0.0042  0.5330
 6700TIP3    H141515   5.121   2.446  14.890 -0.0077 -0.1674  0.3587
 6700TIP3    H241516   5.026   2.554  14.842  0.9702  0.4820 -0.1389
 6701TIP3   OH241517   1.669   3.135  12.976 -0.3986 -0.2480  0.2367
 6701TIP3    H141518   1.610   3.187  13.031 -1.5903 -1.2210 -0.0973
 6701TIP3    H241519   1.754   3.178  12.985 -1.1748  1.2403  0.6505
 6702TIP3   OH241520   0.513   2.243   1.866 -0.3794  0.0972  0.6563
 6702TIP3    H141521   0.486   2.210   1.780  1.3842  0.6149 -0.1118
 6702TIP3    H241522   0.493   2.171   1.926 -1.3133 -0.4000 -0.2312
 6703TIP3   OH241523   0.845   4.217   5.461  0.1045  0.2326  0.1897
 6703TIP3    H141524   0.866   4.138   5.411 -0.8701  0.5800 -0.7805
 6703TIP3    H241525   0.753   4.234   5.441 -0.5917 -0.1688  2.8734
 6704TIP3   OH241526   1.548   1.267   2.672  0.3866  0.1390  0.1992
 6704TIP3    H141527   1.465   1.222   2.661  1.1556 -1.1565 -0.4465
 6704TIP3    H241528   1.527   1.345   2.723 -1.1156 -0.4765  0.5392
 6705TIP3   OH241529   1.362   0.570   3.906 -0.1453  0.1656 -0.4233
 6705TIP3    H141530   1.306   0.518   3.848 -0.8968  0.9859 -0.4657
 6705TIP3    H241531   1.403   0.634   3.847  1.1100 -0.6497 -0.4431
 6706TIP3   OH241532   4.861   5.019   1.161  0.1261 -0.0867  0.0913
 6706TIP3    H141533   4.771   5.021   1.192  0.3502 -1.1900  0.8738
 6706TIP3    H241534   4.899   4.942   1.204  1.4873  0.4677 -0.0824
 6707TIP3   OH241535   3.513   5.584  10.968 -0.1727  0.3303  0.3398
 6707TIP3    H141536   3.575   5.583  10.895 -2.9228  0.2072 -2.0716
 6707TIP3    H241537   3.565   5.614  11.043  2.6526  0.7345 -1.7037
 6708TIP3   OH241538   0.880   1.264  15.964 -0.3102 -0.4105  0.0126
 6708TIP3    H141539   0.892   1.188  15.907  1.4891  0.9172 -1.4849
 6708TIP3    H241540   0.965   1.275  16.007 -1.0120 -0.1205  1.3656
 6709TIP3   OH241541   6.657   0.061  11.070 -0.0121  0.6097 -0.1234
 6709TIP3    H141542   6.611   0.008  11.005  1.3705  0.7994 -1.2836
 6709TIP3    H241543   6.721   0.110  11.019  1.1302  0.7280  1.4091
 6710TIP3   OH241544   1.401   2.156   4.647  0.0901 -0.0599  0.2774
 6710TIP3    H141545   1.472   2.127   4.590  0.4062 -1.5493  1.4039
 6710TIP3    H241546   1.408   2.101   4.725 -2.3968 -0.3745  0.3364
 6711TIP3   OH241547   3.967   1.727   1.757 -0.0569 -0.4657  0.1448
 6711TIP3    H141548   4.029   1.794   1.729 -0.9977  0.6277  0.6488
 6711TIP3    H241549   4.022   1.661   1.799  1.0837 -0.9378 -2.0131
 6712TIP3   OH241550   1.439   2.197   3.957 -0.3771 -0.3300 -0.1165
 6712TIP3    H141551   1.356   2.246   3.959 -1.6090 -2.3469 -0.4038
 6712TIP3    H241552   1.477   2.211   4.043 -1.8487 -0.7434  0.6263
 6713TIP3   OH241553   5.949   6.162  11.244 -0.4192  0.4526  0.2951
 6713TIP3    H141554   6.005   6.199  11.176  2.3270 -2.0090  1.1074
 6713TIP3    H241555   5.924   6.076  11.211 -1.8819  0.6020  0.9494
 6714TIP3   OH241556   4.856   2.532   0.896 -0.4771  0.0405 -0.6289
 6714TIP3    H141557   4.766   2.541   0.927  0.3575 -0.0327  2.0140
 6714TIP3    H241558   4.883   2.621   0.873  0.2219  0.8642  3.0347
 6715TIP3   OH241559   2.098   5.847   2.519  0.6211 -0.3060  0.3270
 6715TIP3    H141560   2.084   5.927   2.469  1.8152 -0.1028  0.3200
 6715TIP3    H241561   2.072   5.869   2.608  0.8588  0.0566  0.3061
 6716TIP3   OH241562   6.153   5.188   5.208 -0.1630  0.1012 -0.1430
 6716TIP3    H141563   6.117   5.103   5.185  0.5642  0.1793 -1.5743
 6716TIP3    H241564   6.106   5.213   5.288 -1.2672 -1.0695 -0.4169
 6717TIP3   OH241565   0.374   6.695   0.079 -0.1323  0.4213  0.4646
 6717TIP3    H141566   0.351   6.615   0.031  0.3018  0.3026  0.4600
 6717TIP3    H241567   0.301   6.707   0.141  0.4014 -0.6475  1.3056
 6718TIP3   OH241568   4.761   3.417   2.396  0.4310 -0.1961  0.1436
 6718TIP3    H141569   4.707   3.372   2.332  0.7578 -0.2106 -0.1213
 6718TIP3    H241570   4.844   3.371   2.396  0.1446 -0.7418  1.2146
 6719TIP3   OH241571   0.943   2.259   6.108 -0.4787 -0.4448  0.2870
 6719TIP3    H141572   0.968   2.336   6.056 -0.8972 -0.6712 -0.2633
 6719TIP3    H241573   0.868   2.289   6.159 -1.7105 -0.9484 -1.1747
 6720TIP3   OH241574   1.036   6.326  15.680 -0.5728  0.2598  0.0246
 6720TIP3    H141575   1.023   6.419  15.701 -0.1491  0.2883  0.1567
 6720TIP3    H241576   1.129   6.310  15.697 -0.5612 -0.0935 -0.3757
 6721TIP3   OH241577   1.528   3.295   1.582  0.0795  0.4283  0.2994
 6721TIP3    H141578   1.478   3.243   1.519  1.6160 -0.5844 -0.1071
 6721TIP3    H241579   1.586   3.349   1.528  0.9947 -0.0240  0.8188
 6722TIP3   OH241580   6.383   5.785  15.059  0.3277 -0.3420  0.6496
 6722TIP3    H141581   6.443   5.859  15.055  1.8672 -1.6115 -1.0844
 6722TIP3    H241582   6.299   5.820  15.030  0.9985  0.7694  0.0071
 6723TIP3   OH241583   3.804   0.399   3.802  0.1340 -0.0539 -0.4597
 6723TIP3    H141584   3.719   0.411   3.760  0.0820 -1.0326 -0.6327
 6723TIP3    H241585   3.865   0.445   3.745 -0.6453  3.1676  1.1601
 6724TIP3   OH241586   1.760   3.658  13.027  0.4822 -0.1967  0.7428
 6724TIP3    H141587   1.754   3.593  12.956  2.3384  0.1110  0.2619
 6724TIP3    H241588   1.837   3.710  13.005 -2.1970  3.6169 -0.0256
 6725TIP3   OH241589   3.881   5.019   4.723 -0.1301  0.2194 -0.2598
 6725TIP3    H141590   3.803   5.042   4.673  1.0382  0.9703 -1.7785
 6725TIP3    H241591   3.952   5.069   4.682  1.2119 -0.6843  0.8934
 6726TIP3   OH241592   2.671   4.370   6.177  0.2714 -0.1750 -0.2223
 6726TIP3    H141593   2.742   4.403   6.231  0.4396 -1.6490  0.4601
 6726TIP3    H241594   2.709   4.297   6.128 -0.4622 -0.2342 -0.7186
 6727TIP3   OH241595   0.987   3.253  12.213 -0.1012  0.5460 -0.4691
 6727TIP3    H141596   1.055   3.315  12.237  1.6500 -1.4287 -0.1384
 6727TIP3    H241597   0.975   3.199  12.292 -1.8408  0.6982 -0.6218
 6728TIP3   OH241598   4.200   1.749   0.986  0.4879 -0.2530  0.0833
 6728TIP3    H141599   4.226   1.764   1.077 -0.7964 -0.7229  0.5333
 6728TIP3    H241600   4.220   1.831   0.941  0.6445  0.1549  0.8926
 6729TIP3   OH241601   0.190   0.564  15.663 -0.0038 -0.5690 -0.4536
 6729TIP3    H141602   0.102   0.528  15.656 -1.0718  1.6465  0.6939
 6729TIP3    H241603   0.214   0.587  15.574  0.2806 -3.0665 -1.0534
 6730TIP3   OH241604   4.734   5.544   4.693 -0.0756 -0.1215  0.1881
 6730TIP3    H141605   4.763   5.530   4.602  1.2197 -0.0108  0.5791
 6730TIP3    H241606   4.704   5.635   4.695  0.0412 -0.0760 -0.0825
 6731TIP3   OH241607   5.090   4.803   5.042 -0.2505  0.2651  0.2541
 6731TIP3    H141608   5.150   4.730   5.056 -1.3079 -0.8956 -1.1251
 6731TIP3    H241609   5.145   4.881   5.049  1.1541 -0.7087  0.3279
 6732TIP3   OH241610   2.288   2.472  12.673  0.5939  0.6474  0.2893
 6732TIP3    H141611   2.341   2.518  12.737  0.8745  1.1637 -0.3056
 6732TIP3    H241612   2.341   2.471  12.594  0.5122 -0.5496  0.2433
 6733TIP3   OH241613   4.931   1.159  16.388 -0.5781 -0.0259  0.6251
 6733TIP3    H141614   4.988   1.170  16.312  1.7280 -0.4915  2.2196
 6733TIP3    H241615   4.879   1.239  16.391  1.7046  1.5281  0.4838
 6734TIP3   OH241616   1.316   1.957  12.553  0.0749  0.1071 -0.3214
 6734TIP3    H141617   1.275   2.028  12.504  0.6688  0.2648 -0.5821
 6734TIP3    H241618   1.377   2.001  12.613 -0.2416 -0.1191  0.1739
 6735TIP3   OH241619   4.740   4.146   4.827  0.2097  0.3522  0.2462
 6735TIP3    H141620   4.790   4.117   4.903  1.3525  0.4031 -0.4755
 6735TIP3    H241621   4.780   4.100   4.753  0.9811  2.4584 -0.6903
 6736TIP3   OH241622   5.554   3.158  15.738 -0.4082 -0.0243 -0.0876
 6736TIP3    H141623   5.519   3.185  15.823 -0.4911  0.9757 -0.4272
 6736TIP3    H241624   5.636   3.114  15.759  0.0581  1.0739  0.4609
 6737TIP3   OH241625   4.347   4.432   1.087 -0.0221  0.2104 -0.3126
 6737TIP3    H141626   4.439   4.418   1.108  0.0966  0.5386 -0.6028
 6737TIP3    H241627   4.335   4.390   1.002 -0.7764 -2.0919  0.9164
 6738TIP3   OH241628   3.873   4.037   2.024 -0.1097  0.0140 -0.0534
 6738TIP3    H141629   3.796   4.060   1.972 -1.7647 -0.0089  2.3255
 6738TIP3    H241630   3.923   4.119   2.031 -0.5408  0.3218 -0.5346
 6739TIP3   OH241631   3.529   3.713   1.917 -0.6314 -0.1773 -0.3879
 6739TIP3    H141632   3.485   3.794   1.891 -2.3306 -0.4791  1.4042
 6739TIP3    H241633   3.621   3.738   1.928 -0.9792  1.2972 -0.7543
 6740TIP3   OH241634   5.063   0.407   5.795  0.5022 -0.1760  0.4101
 6740TIP3    H141635   4.981   0.396   5.844  0.1844 -0.9521 -0.2935
 6740TIP3    H241636   5.057   0.495   5.759 -0.0741 -0.2543  0.2937
 6741TIP3   OH241637   5.786   3.969  16.580  0.2409  0.3261  0.5795
 6741TIP3    H141638   5.782   3.998  16.489  2.1754  3.8581  1.5384
 6741TIP3    H241639   5.801   3.874  16.575  2.2722  0.7840 -2.7702
 6742TIP3   OH241640   2.273   2.433   4.735 -0.3626  0.0907  0.5214
 6742TIP3    H141641   2.201   2.371   4.720 -2.2060  1.9456  1.5239
 6742TIP3    H241642   2.283   2.479   4.652 -0.6593  0.1760  0.5338
 6743TIP3   OH241643   2.512   0.551  14.517 -0.4136 -0.3509 -0.5618
 6743TIP3    H141644   2.429   0.592  14.540 -0.8607 -1.1203 -0.7702
 6743TIP3    H241645   2.501   0.525  14.425 -0.8497 -2.6362  0.1176
 6744TIP3   OH241646   4.502   6.107   4.566 -0.3537 -0.4663 -0.0590
 6744TIP3    H141647   4.408   6.116   4.552 -0.1634 -0.8686 -1.6912
 6744TIP3    H241648   4.513   6.113   4.661 -1.9766 -0.0278  0.1121
 6745TIP3   OH241649   0.715   1.995   4.179  0.3043  0.4291  0.1831
 6745TIP3    H141650   0.785   2.049   4.143  0.5131  1.2132  1.6930
 6745TIP3    H241651   0.635   2.043   4.159  0.1863 -0.4848 -1.5744
 6746TIP3   OH241652   4.112   1.625   2.894 -0.2608  0.4043 -0.3943
 6746TIP3    H141653   4.094   1.569   2.819 -0.0256  0.0023 -0.1540
 6746TIP3    H241654   4.034   1.679   2.904  0.1360  1.2268 -1.6082
 6747TIP3   OH241655   3.813   2.675   4.280 -0.0283 -0.1840  0.7025
 6747TIP3    H141656   3.908   2.667   4.285 -0.0620  0.1129  1.8112
 6747TIP3    H241657   3.783   2.664   4.370 -1.1567 -1.6861  0.1795
 6748TIP3   OH241658   6.681   2.118   1.331  0.3051 -0.0022 -0.1181
 6748TIP3    H141659   6.743   2.164   1.275  1.6340 -1.1836  0.3366
 6748TIP3    H241660   6.708   2.139   1.420 -0.8438  0.6297  0.0874
 6749TIP3   OH241661   0.128   1.747   3.128  0.0635 -0.2294  0.2287
 6749TIP3    H141662   0.164   1.726   3.042  1.2821 -0.3202  0.7560
 6749TIP3    H241663   0.055   1.806   3.109 -1.0795 -2.0120 -1.0080
 6750TIP3   OH241664   3.999   6.653  13.449 -0.3737 -0.1048  0.0949
 6750TIP3    H141665   3.918   6.605  13.461  0.1789 -0.9926  0.3270
 6750TIP3    H241666   4.067   6.597  13.487  0.0769  1.6295  1.9893
 6751TIP3   OH241667   4.078   5.017  12.584  0.1173 -0.3183 -0.1315
 6751TIP3    H141668   4.034   4.963  12.518 -0.3464  0.9203 -0.8835
 6751TIP3    H241669   4.014   5.087  12.602  0.8486  0.1830  0.5174
 6752TIP3   OH241670   4.639   1.972  12.553  0.2056  0.3311 -0.6006
 6752TIP3    H141671   4.676   2.030  12.487  0.6807 -1.3374 -1.8432
 6752TIP3    H241672   4.633   2.026  12.631 -0.3269  2.3334 -1.9871
 6753TIP3   OH241673   1.685   5.742  13.584  0.2382 -0.4145  0.4726
 6753TIP3    H141674   1.656   5.661  13.543 -1.0500  1.5093 -2.6238
 6753TIP3    H241675   1.774   5.755  13.550  1.1245 -1.3764  2.3527
 6754TIP3   OH241676   6.394   3.362  15.915 -0.0324  0.7859  0.0243
 6754TIP3    H141677   6.409   3.304  15.840  0.3355  0.3963  0.3937
 6754TIP3    H241678   6.469   3.422  15.914 -2.1721  3.5637 -2.4448
 6755TIP3   OH241679   2.189   0.421   1.499  0.1942  0.3620  0.3743
 6755TIP3    H141680   2.239   0.491   1.541  1.2498  1.0281 -1.9164
 6755TIP3    H241681   2.247   0.345   1.503  1.1502  0.9456 -1.6194
 6756TIP3   OH241682   3.592   5.573   3.299 -0.0162 -0.0738 -0.1201
 6756TIP3    H141683   3.582   5.667   3.310  0.3340  0.0563 -0.8183
 6756TIP3    H241684   3.505   5.537   3.315 -0.1520  0.3686  0.1417
 6757TIP3   OH241685   3.607   6.405   2.925 -0.3097 -0.3980 -0.2824
 6757TIP3    H141686   3.562   6.412   3.009  0.5956  0.1757  0.1606
 6757TIP3    H241687   3.631   6.313   2.919  0.0311 -0.3488  0.3001
 6758TIP3   OH241688   4.858   6.126   2.928  0.3923 -0.3541  0.5546
 6758TIP3    H141689   4.832   6.068   3.000  0.1785 -1.8636 -0.7017
 6758TIP3    H241690   4.822   6.083   2.850  0.5756  1.2919 -0.4357
 6759TIP3   OH241691   1.637   4.928  16.427  0.4353 -0.7178 -0.5263
 6759TIP3    H141692   1.598   4.853  16.471 -0.9431  0.4923  0.3974
 6759TIP3    H241693   1.731   4.910  16.425  0.2901 -1.6902  1.1576
 6760TIP3   OH241694   0.411   2.542   2.271  0.2811  0.6681  0.3364
 6760TIP3    H141695   0.481   2.561   2.208  0.8481 -2.1510  0.0633
 6760TIP3    H241696   0.330   2.553   2.221  0.6556  0.3967 -0.3349
 6761TIP3   OH241697   4.225   0.698   6.049  0.1091 -0.8069 -0.5511
 6761TIP3    H141698   4.213   0.603   6.059 -1.4563 -0.6312 -0.6042
 6761TIP3    H241699   4.180   0.736   6.125  0.7800 -0.0984 -0.4982
 6762TIP3   OH241700   0.426   1.639  11.964 -0.1357  0.1110 -0.0449
 6762TIP3    H141701   0.446   1.598  12.048  1.8932 -0.2324 -0.6814
 6762TIP3    H241702   0.422   1.566  11.903 -1.7926  0.3417 -0.2311
 6763TIP3   OH241703   0.307   4.194  13.656  0.2182 -0.7975  0.3723
 6763TIP3    H141704   0.258   4.213  13.576  1.2404 -2.0521 -0.5540
 6763TIP3    H241705   0.252   4.230  13.726  0.5462  2.6937 -1.0446
 6764TIP3   OH241706   2.104   1.595  14.494  0.5873  0.3433  0.7380
 6764TIP3    H141707   2.188   1.610  14.450  0.2463 -0.2174 -0.1171
 6764TIP3    H241708   2.114   1.636  14.580  2.5145 -1.5779  1.4840
 6765TIP3   OH241709   6.614   6.119  14.883 -0.1859  0.2105  0.2997
 6765TIP3    H141710   6.701   6.089  14.908  0.0955 -0.2796 -1.2410
 6765TIP3    H241711   6.580   6.050  14.826 -0.6336  1.5054 -1.0329
 6766TIP3   OH241712   3.119   0.072   0.720 -0.2285 -0.1765 -0.2255
 6766TIP3    H141713   3.126   0.119   0.637 -1.3011  0.8797  0.2739
 6766TIP3    H241714   3.118   0.141   0.786  1.6953 -1.0404  0.7590
 6767TIP3   OH241715   1.204   6.642  16.977  0.0734 -0.5697 -0.3431
 6767TIP3    H141716   1.209   6.734  16.950 -0.9173 -0.3585  0.1732
 6767TIP3    H241717   1.116   6.632  17.013  0.4585 -1.5151  0.3655
 6768TIP3   OH241718   0.071   0.363   2.278 -0.3471  0.4800 -0.1573
 6768TIP3    H141719   0.156   0.353   2.321 -0.9124 -0.1264  0.8203
 6768TIP3    H241720   0.009   0.377   2.349 -1.1086  0.6971 -0.8551
 6769TIP3   OH241721   6.664   6.274  10.735 -0.1902 -0.6812  0.1768
 6769TIP3    H141722   6.758   6.257  10.735 -0.2541 -1.0635 -0.1090
 6769TIP3    H241723   6.644   6.299  10.644 -0.5022 -1.4337  0.0291
 6770TIP3   OH241724   4.769   6.698  14.224 -0.4132 -0.1661 -0.3864
 6770TIP3    H141725   4.759   6.648  14.305 -2.9582 -2.7103 -2.1659
 6770TIP3    H241726   4.830   6.646  14.172 -1.3650 -0.2935 -1.3842
 6771TIP3   OH241727   3.423   4.265   4.979 -0.1026  0.0747 -0.6019
 6771TIP3    H141728   3.400   4.226   5.064  2.5380  0.9128  0.5402
 6771TIP3    H241729   3.453   4.191   4.926  1.1913 -0.0321  0.2561
 6772TIP3   OH241730   3.231   6.561   0.409  0.2245  0.4028  0.1034
 6772TIP3    H141731   3.294   6.489   0.406  0.1210  0.3330 -0.4713
 6772TIP3    H241732   3.212   6.573   0.502  1.6459  0.9172  0.3389
 6773TIP3   OH241733   5.019   3.023   0.711  0.0905  0.4838  0.0811
 6773TIP3    H141734   5.107   3.023   0.750  0.7427  0.0781 -1.3638
 6773TIP3    H241735   5.018   3.100   0.654 -0.1612 -0.0685 -0.6584
 6774TIP3   OH241736   3.715   0.299  16.197 -0.0154 -0.2818  0.1104
 6774TIP3    H141737   3.775   0.332  16.130  0.0943 -1.9406 -0.6168
 6774TIP3    H241738   3.642   0.260  16.148  0.4012 -2.1350  0.9382
 6775TIP3   OH241739   6.700   1.212   4.079 -0.2808  0.4166 -0.0792
 6775TIP3    H141740   6.654   1.214   3.996 -1.5872 -3.2856  0.4551
 6775TIP3    H241741   6.792   1.201   4.056 -0.4676  0.8284 -1.0334
 6776TIP3   OH241742   0.559   3.188   3.828 -0.1256  0.2429 -0.2450
 6776TIP3    H141743   0.492   3.214   3.765 -0.6846 -1.0148 -0.1786
 6776TIP3    H241744   0.510   3.155   3.903  0.5473 -2.1287 -0.7931
 6777TIP3   OH241745   2.611   4.635   2.260  0.1397  0.1972  0.0576
 6777TIP3    H141746   2.566   4.568   2.312 -0.6651  0.5369 -0.1885
 6777TIP3    H241747   2.614   4.599   2.172  1.8734 -0.5566  0.4094
 6778TIP3   OH241748   5.342   4.448   2.551  0.1915  0.0588 -0.0945
 6778TIP3    H141749   5.386   4.366   2.576  2.2269  0.6700 -1.6049
 6778TIP3    H241750   5.403   4.517   2.577  0.0161  0.9312 -1.9647
 6779TIP3   OH241751   1.108   1.634   3.915  0.4390 -0.0104  0.0499
 6779TIP3    H141752   1.119   1.728   3.903 -0.2207  0.2841  1.5506
 6779TIP3    H241753   1.188   1.595   3.880  0.1397  0.9986 -1.7865
 6780TIP3   OH241754   6.569   3.528   0.012 -0.5762 -0.0775  0.5601
 6780TIP3    H141755   6.490   3.535   0.066 -2.2846 -1.0789 -1.7012
 6780TIP3    H241756   6.569   3.608  -0.041 -1.1990 -1.0008 -0.8618
 6781TIP3   OH241757   0.798   5.213  11.765  0.4143 -0.2323 -0.1317
 6781TIP3    H141758   0.756   5.220  11.679  1.7698 -1.3782 -0.8908
 6781TIP3    H241759   0.748   5.146  11.811 -0.1998  0.2568 -0.0702
 6782TIP3   OH241760   0.819   3.742   1.877 -0.6801  0.1125 -0.0176
 6782TIP3    H141761   0.829   3.791   1.958  0.2618  0.8895 -0.6106
 6782TIP3    H241762   0.725   3.749   1.857 -0.6672  1.0988  0.2480
 6783TIP3   OH241763   0.539   5.368  12.764  0.0059  0.1873  0.0959
 6783TIP3    H141764   0.585   5.447  12.737 -1.5928  1.3449  0.6763
 6783TIP3    H241765   0.498   5.336  12.684  0.8599 -0.2023 -0.1904
 6784TIP3   OH241766   2.897   6.050  12.165 -0.0891 -0.2642  0.3999
 6784TIP3    H141767   2.909   6.142  12.140  0.0475 -0.8381 -1.8048
 6784TIP3    H241768   2.913   6.002  12.084  1.1212 -2.3379  1.8386
 6785TIP3   OH241769   2.577   3.100  16.518 -0.1246 -0.2156 -0.3654
 6785TIP3    H141770   2.598   3.171  16.578  1.8720 -0.0278 -1.2558
 6785TIP3    H241771   2.501   3.132  16.469  1.2179  1.6457 -1.2973
 6786TIP3   OH241772   0.230   1.874  10.457  0.0099  0.0808 -0.3759
 6786TIP3    H141773   0.228   1.970  10.450 -0.3347  0.1480  0.5778
 6786TIP3    H241774   0.193   1.843  10.374 -1.7059  0.8053  0.0898
 6787TIP3   OH241775   6.759   6.556  11.037  0.1681 -0.0858  0.0177
 6787TIP3    H141776   6.699   6.590  10.970 -3.1566 -1.6261  2.0695
 6787TIP3    H241777   6.797   6.635  11.077 -0.5519  0.9318 -1.2749
 6788TIP3   OH241778   6.468   1.561   3.617 -0.1055 -0.2771 -0.6177
 6788TIP3    H141779   6.556   1.526   3.600 -0.6365 -1.4240 -1.0109
 6788TIP3    H241780   6.484   1.649   3.652  1.1343  0.2915 -2.5730
 6789TIP3   OH241781   0.782   4.165  15.021  0.3007  0.0484  0.0407
 6789TIP3    H141782   0.697   4.207  15.037  0.4395 -0.0093  0.9568
 6789TIP3    H241783   0.840   4.202  15.087  1.1502  0.5336 -0.9577
 6790TIP3   OH241784   4.076   1.077   4.274 -0.5583 -0.6915 -0.3762
 6790TIP3    H141785   4.091   0.983   4.273 -1.2194 -0.8104  0.0294
 6790TIP3    H241786   4.102   1.104   4.362 -0.3267 -0.4912 -0.5074
 6791TIP3   OH241787   2.620   2.905  10.408  0.1062 -0.0327  0.5208
 6791TIP3    H141788   2.534   2.916  10.367  0.9181  0.1441 -1.1939
 6791TIP3    H241789   2.612   2.827  10.463 -1.9932  1.6313  2.6829
 6792TIP3   OH241790   5.566   5.458   2.178 -0.0759  0.3819  0.1532
 6792TIP3    H141791   5.616   5.380   2.156 -1.3376  0.4758 -3.4256
 6792TIP3    H241792   5.632   5.523   2.202  0.9557 -1.8379  3.6079
 6793TIP3   OH241793   1.704   5.584   2.393  0.5619  0.4009  0.1350
 6793TIP3    H141794   1.798   5.584   2.413  0.2875 -0.0694  1.4936
 6793TIP3    H241795   1.662   5.605   2.477 -0.6860 -2.3461  0.2653
 6794TIP3   OH241796   1.586   3.873   2.109  0.4167 -0.7149  0.2644
 6794TIP3    H141797   1.498   3.877   2.146  0.6785 -1.6379  1.0256
 6794TIP3    H241798   1.592   3.786   2.070  0.6043 -0.2329 -0.7983
 6795TIP3   OH241799   2.330   2.242  13.320 -0.4485  0.0158  0.1235
 6795TIP3    H141800   2.266   2.192  13.369 -0.2146  0.7441  1.1842
 6795TIP3    H241801   2.370   2.178  13.260 -0.3926 -0.9818  1.2206
 6796TIP3   OH241802   1.422   5.241   4.116 -0.4505  0.5583 -0.0654
 6796TIP3    H141803   1.472   5.322   4.111 -0.9136  0.8405 -0.1932
 6796TIP3    H241804   1.331   5.270   4.122 -0.7113  0.0291 -1.2799
 6797TIP3   OH241805   2.890   2.219  11.618  0.2093  0.1388  0.7930
 6797TIP3    H141806   2.984   2.214  11.601 -0.2167 -2.8745 -0.9393
 6797TIP3    H241807   2.857   2.279  11.552  0.8008  0.6418  0.9444
 6798TIP3   OH241808   6.010   1.951   1.476  0.0008  0.0403 -0.1132
 6798TIP3    H141809   5.933   1.924   1.427 -0.6420  0.1821  0.7939
 6798TIP3    H241810   5.980   1.955   1.567  0.9444  0.5904  0.1823
 6799TIP3   OH241811   6.209   3.364  12.200  0.2558 -0.5377 -0.1123
 6799TIP3    H141812   6.114   3.363  12.208  0.3718  0.1709  1.4604
 6799TIP3    H241813   6.224   3.371  12.106 -1.2212 -2.0907 -0.5001
 6800TIP3   OH241814   0.657   2.994   3.562  0.2199 -0.3874 -0.2379
 6800TIP3    H141815   0.648   3.054   3.636 -2.5747  0.3734 -1.1592
 6800TIP3    H241816   0.688   3.048   3.490  0.2966 -0.6021 -0.3680
 6801TIP3   OH241817   0.951   2.804   0.717  0.1468 -0.3385  0.3659
 6801TIP3    H141818   0.966   2.837   0.806  0.4491  0.4186  0.0397
 6801TIP3    H241819   0.870   2.846   0.689  0.1773 -0.3937  0.1951
 6802TIP3   OH241820   4.405   3.029   3.134 -0.4552  0.0039  0.9717
 6802TIP3    H141821   4.444   3.116   3.127 -0.7234  0.0087 -0.6174
 6802TIP3    H241822   4.326   3.034   3.081  0.2990 -1.6387 -0.3355
 6803TIP3   OH241823   1.558   1.886  15.580 -0.0836  0.5621  0.1525
 6803TIP3    H141824   1.598   1.801  15.563  1.0958  0.5498  2.7267
 6803TIP3    H241825   1.589   1.942  15.509  0.0770 -0.8380 -0.9107
 6804TIP3   OH241826   2.257   3.818  11.772 -0.0972 -0.1378  0.1062
 6804TIP3    H141827   2.262   3.889  11.707  0.0558 -1.4656 -1.3433
 6804TIP3    H241828   2.205   3.855  11.843  1.2668  1.9832  0.0586
 6805TIP3   OH241829   5.356   2.645  15.569  0.3475 -0.7657 -0.6036
 6805TIP3    H141830   5.376   2.733  15.603  0.8854 -0.7397 -0.9833
 6805TIP3    H241831   5.390   2.646  15.479 -0.3252 -1.1105 -0.8656
 6806TIP3   OH241832   0.640   2.475   1.783  1.2536 -0.4094  0.7733
 6806TIP3    H141833   0.593   2.536   1.840  0.8954  1.6947 -1.7076
 6806TIP3    H241834   0.593   2.392   1.795 -1.5404  1.0326  0.3138
 6807TIP3   OH241835   6.385   5.101   3.658 -0.0580 -0.4338 -0.4847
 6807TIP3    H141836   6.342   5.174   3.703  0.7655 -0.3809  0.2174
 6807TIP3    H241837   6.376   5.027   3.717  0.6523 -0.4668 -0.4103
 6808TIP3   OH241838   5.850   1.516   3.223  0.3890 -0.1497  0.1072
 6808TIP3    H141839   5.860   1.593   3.167 -1.7518  1.1049  1.3535
 6808TIP3    H241840   5.938   1.478   3.228  1.0364  0.9448 -2.3017
 6809TIP3   OH241841   3.005   0.140   4.605 -0.4762 -0.6046  0.3088
 6809TIP3    H141842   2.927   0.121   4.552  0.7876 -0.1847 -1.7816
 6809TIP3    H241843   3.054   0.057   4.606 -0.3144 -0.5062  0.4857
 6810TIP3   OH241844   3.450   2.349   0.009 -0.1681 -0.1606  0.5614
 6810TIP3    H141845   3.509   2.424   0.000 -0.7327  0.1596 -0.6124
 6810TIP3    H241846   3.509   2.274   0.022  0.5842 -0.0341 -1.8639
 6811TIP3   OH241847   6.013   5.436  11.320 -0.0185  0.2223 -0.2184
 6811TIP3    H141848   5.944   5.441  11.253  0.5504  1.3194 -0.7306
 6811TIP3    H241849   6.091   5.469  11.276  0.5874  0.0426  0.7107
 6812TIP3   OH241850   4.084   2.147   5.979  0.3163 -0.1326  0.3427
 6812TIP3    H141851   4.171   2.177   6.007  0.5574 -0.2809 -0.2476
 6812TIP3    H241852   4.027   2.169   6.053  0.9723 -0.6226  1.0059
 6813TIP3   OH241853   4.055   5.914   2.864 -0.3065  0.2135 -0.2000
 6813TIP3    H141854   3.977   5.950   2.905 -0.9820 -1.0200 -0.3857
 6813TIP3    H241855   4.121   5.983   2.874 -0.5486  0.0587  2.6630
 6814TIP3   OH241856   5.192   0.794   0.706 -0.0153 -0.6184  0.2928
 6814TIP3    H141857   5.173   0.842   0.625  0.9398 -0.9523 -0.1361
 6814TIP3    H241858   5.284   0.810   0.722  0.0596 -1.4515  0.7258
 6815TIP3   OH241859   0.077   3.359  14.234  0.1866 -0.2561 -0.3310
 6815TIP3    H141860   0.086   3.305  14.155  0.4879 -0.9541  0.1765
 6815TIP3    H241861  -0.012   3.393  14.229  0.3196 -0.0152 -1.1527
 6816TIP3   OH241862   0.625   3.658   2.139  0.7308  0.0079  0.7731
 6816TIP3    H141863   0.566   3.584   2.151  1.9138 -1.0313  0.2667
 6816TIP3    H241864   0.572   3.724   2.095 -0.9448  0.2932  3.0915
 6817TIP3   OH241865   4.151   5.303  13.934 -0.6897 -0.4361  0.5175
 6817TIP3    H141866   4.176   5.323  13.844 -0.5463  0.4980  0.7588
 6817TIP3    H241867   4.214   5.235  13.962 -0.7961 -0.7945 -0.1107
 6818TIP3   OH241868   6.081   4.964  13.848 -0.4514  0.4773  0.7333
 6818TIP3    H141869   6.141   4.930  13.782 -0.9368 -0.7191  0.8791
 6818TIP3    H241870   6.118   5.048  13.875  0.0929  0.6691 -0.5934
 6819TIP3   OH241871   2.952   0.495  12.716 -0.2104  0.1720 -1.1862
 6819TIP3    H141872   3.023   0.433  12.733 -1.3598 -0.3974  1.9539
 6819TIP3    H241873   2.995   0.581  12.717  0.1351  0.0667  3.4571
 6820TIP3   OH241874   6.430   1.821   2.167 -0.3419  0.5913  0.5011
 6820TIP3    H141875   6.388   1.803   2.252  0.5297 -1.4562  0.5277
 6820TIP3    H241876   6.502   1.758   2.162  0.2799  1.4075 -1.3108
 6821TIP3   OH241877   3.476   2.242   0.687 -0.6594 -0.0213 -0.6345
 6821TIP3    H141878   3.487   2.219   0.779  1.5865  1.3956 -0.5040
 6821TIP3    H241879   3.452   2.335   0.688  0.4341  0.2824 -1.4943
 6822TIP3   OH241880   4.657   1.488   2.206  0.3806  0.0429  0.0389
 6822TIP3    H141881   4.710   1.551   2.158  0.1383  0.5667  0.4499
 6822TIP3    H241882   4.566   1.512   2.185  0.2204  1.3750  2.1052
 6823TIP3   OH241883   1.876   3.022   4.005  0.0112 -0.3049 -0.4989
 6823TIP3    H141884   1.939   3.093   3.994  1.1185 -1.0528  0.8495
 6823TIP3    H241885   1.930   2.943   4.012 -1.0826 -0.9906  0.3879
 6824TIP3   OH241886   4.530   5.507   5.031 -0.4413  0.1243 -0.2224
 6824TIP3    H141887   4.484   5.550   4.959 -0.9288  1.2719  0.7688
 6824TIP3    H241888   4.559   5.579   5.088  1.0862 -0.6880  0.0489
 6825TIP3   OH241889   5.092   5.694  12.303 -0.1616 -0.2196 -0.7291
 6825TIP3    H141890   5.101   5.721  12.394 -0.1548  0.5094 -0.9413
 6825TIP3    H241891   5.007   5.729  12.276  1.0108  1.9705 -1.7978
 6826TIP3   OH241892   5.502   0.817   0.802  0.2174 -0.0545  0.1735
 6826TIP3    H141893   5.490   0.865   0.720 -0.6991  0.2142  0.4619
 6826TIP3    H241894   5.445   0.861   0.865 -0.1509 -1.1269  0.6040
 6827TIP3   OH241895   3.427   0.636  14.286 -0.0850  0.0212  0.9968
 6827TIP3    H141896   3.515   0.603  14.305  1.2768  2.5584 -0.6688
 6827TIP3    H241897   3.368   0.576  14.332  2.6209 -0.0201  4.6204
 6828TIP3   OH241898   4.796   5.138  14.787 -0.1070  0.3660  0.1161
 6828TIP3    H141899   4.791   5.234  14.780  0.4860  0.3871  0.0042
 6828TIP3    H241900   4.826   5.123  14.877 -0.0014  0.2864  0.0660
 6829TIP3   OH241901   2.705   2.750   3.184 -0.2417 -0.2350  0.1091
 6829TIP3    H141902   2.628   2.795   3.220 -0.4938  0.6896 -1.5682
 6829TIP3    H241903   2.778   2.808   3.206 -0.2037 -0.4061  0.4382
 6830TIP3   OH241904   6.218   5.812   6.371  1.4265  0.0307 -0.1442
 6830TIP3    H141905   6.150   5.782   6.432 -0.0940  0.1601 -1.7320
 6830TIP3    H241906   6.291   5.752   6.384 -0.4531 -2.5534 -1.1586
 6831TIP3   OH241907   2.092   2.774  14.740 -0.0187  0.0232 -0.2801
 6831TIP3    H141908   2.081   2.763  14.646  0.4466 -0.0414 -0.3327
 6831TIP3    H241909   2.186   2.789  14.751 -0.1477  0.5736  0.1205
 6832TIP3   OH241910   6.315   3.313   1.973 -0.4890 -0.0718 -0.9145
 6832TIP3    H141911   6.267   3.392   1.948 -0.6054  0.8112  1.9494
 6832TIP3    H241912   6.404   3.343   1.988 -0.7409 -0.2773  1.0920
 6833TIP3   OH241913   4.813   4.132  14.621 -0.2493  0.5350 -0.0144
 6833TIP3    H141914   4.904   4.160  14.627  0.1391 -0.7549  0.4040
 6833TIP3    H241915   4.763   4.213  14.620  0.8712  1.2481  0.3346
 6834TIP3   OH241916   4.916   4.346   1.203  0.2059  0.0895  0.2674
 6834TIP3    H141917   4.824   4.342   1.177  0.5965 -0.4688 -1.0706
 6834TIP3    H241918   4.961   4.387   1.129  1.7427 -3.8902 -1.1557
 6835TIP3   OH241919   3.905   0.594  11.991  0.3377  0.4463  0.1453
 6835TIP3    H141920   3.854   0.623  12.067  0.5971  1.4222 -0.0430
 6835TIP3    H241921   3.877   0.651  11.920  1.7065  1.0360  0.0486
 6836TIP3   OH241922   5.553   5.322  16.089  0.3730  0.1348  0.7012
 6836TIP3    H141923   5.572   5.345  16.180  2.3798  2.2800 -0.2253
 6836TIP3    H241924   5.522   5.404  16.050 -0.7616 -0.8396 -0.5019
 6837TIP3   OH241925   1.648   6.238  14.611 -0.1121 -0.0108  0.4840
 6837TIP3    H141926   1.653   6.282  14.695 -2.7656  0.1311  0.6090
 6837TIP3    H241927   1.603   6.300  14.554  0.9198 -0.4330 -0.8226
 6838TIP3   OH241928   3.136   1.623   4.560  0.7029 -0.6661  0.7485
 6838TIP3    H141929   3.210   1.561   4.562  0.1467 -1.3341  1.0154
 6838TIP3    H241930   3.167   1.695   4.506  0.3994 -2.4307 -1.8934
 6839TIP3   OH241931   1.566   0.799   0.780  0.1642 -0.3715  0.0168
 6839TIP3    H141932   1.524   0.865   0.835  1.5706  1.4419 -1.0434
 6839TIP3    H241933   1.643   0.772   0.831 -0.4071 -1.2108  0.4477
 6840TIP3   OH241934   2.495   5.890  16.995 -0.1879 -0.0690  0.2849
 6840TIP3    H141935   2.545   5.814  16.964  1.4368  0.6319  1.1310
 6840TIP3    H241936   2.496   5.882  17.090 -1.4870  0.0979  0.3173
 6841TIP3   OH241937   0.511   1.740   1.648  0.0181  0.3340  0.6863
 6841TIP3    H141938   0.471   1.779   1.570  0.5454 -0.1351  0.1701
 6841TIP3    H241939   0.559   1.813   1.689  0.1852  0.4575  0.2734
 6842TIP3   OH241940   2.953   3.105  14.827 -0.2866 -0.3712 -0.2241
 6842TIP3    H141941   3.016   3.115  14.898 -1.1825 -0.2265  0.5622
 6842TIP3    H241942   2.970   3.179  14.769 -0.9625  0.6969  0.9428
 6843TIP3   OH241943   4.347   1.506  13.455 -0.0477 -0.3062  0.3532
 6843TIP3    H141944   4.306   1.493  13.541  1.4151  1.1479  1.2918
 6843TIP3    H241945   4.334   1.422  13.410 -1.1924 -0.9526  1.8199
 6844TIP3   OH241946   3.337   2.596  13.579  0.0905  0.1742 -0.3982
 6844TIP3    H141947   3.383   2.513  13.563 -0.0089 -0.1337  0.8792
 6844TIP3    H241948   3.379   2.658  13.519 -0.5374 -1.0271 -2.1195
 6845TIP3   OH241949   1.666   3.164  11.957  0.1427 -0.1069  0.0563
 6845TIP3    H141950   1.737   3.183  12.019 -1.0657  2.4675  0.6887
 6845TIP3    H241951   1.587   3.160  12.011 -0.5057 -0.9608 -0.9245
 6846TIP3   OH241952   0.379   1.577  10.797  0.5338  0.6284  0.8536
 6846TIP3    H141953   0.295   1.566  10.753  0.5372  2.0124  0.4900
 6846TIP3    H241954   0.378   1.512  10.868  0.3646 -1.3235 -0.9000
 6847TIP3   OH241955   1.199   2.933  16.194  0.0285  0.7408  0.1120
 6847TIP3    H141956   1.146   2.869  16.146  0.2884 -1.1082  2.1702
 6847TIP3    H241957   1.138   2.969  16.260  1.2272 -1.3210  2.4217
 6848TIP3   OH241958   2.092   5.597   0.652 -0.6621 -0.2186 -0.5940
 6848TIP3    H141959   2.147   5.604   0.730 -0.9884 -0.7722 -0.3114
 6848TIP3    H241960   2.155   5.589   0.579 -0.3668 -0.7562 -0.2830
 6849TIP3   OH241961   0.283   1.594  12.494  0.2764 -0.3579  0.5394
 6849TIP3    H141962   0.240   1.516  12.459 -1.0318  0.8635 -0.5943
 6849TIP3    H241963   0.265   1.591  12.588  0.3664 -1.5010  0.5271
 6850TIP3   OH241964   3.917   4.498  14.293 -0.3952  0.0615  0.3603
 6850TIP3    H141965   3.906   4.423  14.352  0.0326  0.6155  1.1529
 6850TIP3    H241966   3.929   4.573  14.352  0.4765  0.5507 -0.4311
 6851TIP3   OH241967   1.023   0.594  16.806  0.1934 -0.5393 -0.1994
 6851TIP3    H141968   0.942   0.626  16.846  1.2771  1.6855  0.3032
 6851TIP3    H241969   1.077   0.564  16.879  1.3959  1.7381 -0.0847
 6852TIP3   OH241970   0.433   1.957  14.568 -0.1224 -0.1265  0.1712
 6852TIP3    H141971   0.466   1.936  14.480 -0.2003  0.5504 -0.0202
 6852TIP3    H241972   0.466   2.045  14.585 -1.5713  0.4271  0.1150
 6853TIP3   OH241973   0.854   5.640  12.826 -0.5864  0.7049 -0.6559
 6853TIP3    H141974   0.930   5.670  12.776 -0.0986  0.1580 -0.2578
 6853TIP3    H241975   0.826   5.560  12.781 -0.7422  0.7411 -0.6227
 6854TIP3   OH241976   0.030   2.690  11.735  0.3414  0.0168 -0.0922
 6854TIP3    H141977  -0.009   2.620  11.787 -1.6184  1.3545  0.2900
 6854TIP3    H241978   0.068   2.750  11.799 -1.5826  1.3784 -0.1977
 6855TIP3   OH241979   2.256   4.614  11.704  0.5100  0.0550  0.0495
 6855TIP3    H141980   2.350   4.606  11.721  0.2389 -0.5917  1.2744
 6855TIP3    H241981   2.247   4.699  11.660  1.7152 -0.0769 -0.4724
 6856TIP3   OH241982   6.467   1.814  13.329  0.2443  0.2976 -0.1852
 6856TIP3    H141983   6.515   1.830  13.248  0.1765 -2.5122 -0.8333
 6856TIP3    H241984   6.391   1.762  13.302 -0.2250  0.0478  1.5651
 6857TIP3   OH241985   5.163   4.199   4.747 -0.3543 -0.1731  0.4926
 6857TIP3    H141986   5.068   4.207   4.749 -0.3222  0.1861  0.6929
 6857TIP3    H241987   5.195   4.282   4.782  0.0470  0.1156 -0.5162
 6858TIP3   OH241988   1.125   0.900  15.390  0.0207  0.3864  0.1708
 6858TIP3    H141989   1.078   0.853  15.459 -2.5509  0.6239 -1.3668
 6858TIP3    H241990   1.099   0.991  15.401 -0.1100  0.4778 -0.8865
 6859TIP3   OH241991   2.983   5.153  11.431  0.3956  0.6403 -0.1791
 6859TIP3    H141992   2.925   5.224  11.404 -1.0742  0.1891  1.6756
 6859TIP3    H241993   2.940   5.073  11.400 -0.0961  0.2929  1.3353
 6860TIP3   OH241994   6.646   6.572  15.416  0.1764 -0.0047  0.0378
 6860TIP3    H141995   6.714   6.517  15.454 -0.7867 -1.4726 -0.3375
 6860TIP3    H241996   6.563   6.529  15.438 -0.6794  1.9140  0.7532
 6861TIP3   OH241997   5.931   5.772  13.601 -0.4430  0.0482 -0.0967
 6861TIP3    H141998   5.901   5.795  13.513  1.0963  0.7643 -0.4491
 6861TIP3    H241999   5.898   5.842  13.657 -1.6329 -0.5354 -0.0529
 6862TIP3   OH242000   1.201   2.953   2.997  0.2955 -0.0618  0.4632
 6862TIP3    H142001   1.275   3.000   3.036  0.7849 -0.8941  0.5522
 6862TIP3    H242002   1.239   2.871   2.965 -0.3523  0.0561 -0.6129
 6863TIP3   OH242003   1.148   4.685   4.018  0.2385 -0.2097  0.2609
 6863TIP3    H142004   1.161   4.740   4.095 -1.5660 -0.0034  0.4385
 6863TIP3    H242005   1.230   4.638   4.007  1.4468  1.7473  0.7391
 6864TIP3   OH242006   5.059   5.330  17.011 -0.1795  0.3375 -0.3758
 6864TIP3    H142007   4.979   5.336  17.063 -0.4112  0.9274 -0.7917
 6864TIP3    H242008   5.080   5.237  17.010  1.4068  0.5587  3.1739
 6865TIP3   OH242009   5.557   3.801   3.950 -0.5548 -0.1091  0.0287
 6865TIP3    H142010   5.603   3.729   3.905 -0.5455 -1.7009  2.5282
 6865TIP3    H242011   5.481   3.759   3.991 -0.6868  1.3589  1.3125
 6866TIP3   OH242012   2.111   2.470   0.417 -0.3452  0.5327  0.7818
 6866TIP3    H142013   2.173   2.398   0.424 -0.8991  0.0998  1.2841
 6866TIP3    H242014   2.036   2.434   0.369 -0.2255  1.0433  0.2003
 6867TIP3   OH242015   2.657   2.964   1.286  0.2531  0.3137 -0.0732
 6867TIP3    H142016   2.663   2.884   1.233 -1.1085  0.4791 -0.5043
 6867TIP3    H242017   2.679   3.035   1.226  0.0272  0.3830 -0.0755
 6868TIP3   OH242018   1.699   3.834   1.629 -0.1200 -0.2843  0.1420
 6868TIP3    H142019   1.778   3.878   1.659  0.1399 -0.9379  0.4392
 6868TIP3    H242020   1.731   3.765   1.570 -0.5557  0.3044 -0.7880
 6869TIP3   OH242021   3.590   4.517  11.212  0.8166 -0.6164  0.2571
 6869TIP3    H142022   3.672   4.564  11.223  1.0380 -0.5915 -1.3350
 6869TIP3    H242023   3.610   4.447  11.150 -0.8678  0.8175 -2.0071
 6870TIP3   OH242024   0.884   4.267  16.433  0.2556 -0.1778  0.2184
 6870TIP3    H142025   0.896   4.175  16.459 -0.1505 -0.1202  0.6204
 6870TIP3    H242026   0.924   4.317  16.504  0.1217 -0.0379  0.1927
 6871TIP3   OH242027   0.777   3.212  15.390 -0.4608 -0.6092  0.9231
 6871TIP3    H142028   0.787   3.190  15.482 -0.7829 -0.1675  1.0664
 6871TIP3    H242029   0.690   3.252  15.385  0.5403  1.6023  0.8562
 6872TIP3   OH242030   2.812   4.732   5.477 -0.3905 -0.2733  0.6842
 6872TIP3    H142031   2.784   4.764   5.563 -0.7936  0.1314  0.4036
 6872TIP3    H242032   2.784   4.641   5.475  1.2770 -0.8250  1.7156
 6873TIP3   OH242033   6.325   1.002   3.062 -0.1924  0.4058 -0.3877
 6873TIP3    H142034   6.402   0.948   3.044 -0.8275 -0.5347 -0.2930
 6873TIP3    H242035   6.358   1.073   3.118  0.9342  0.9476 -1.6904
 6874TIP3   OH242036   5.755   2.009  15.207 -0.1965  0.1030  0.0425
 6874TIP3    H142037   5.671   1.964  15.210 -0.0597 -0.2283 -0.7862
 6874TIP3    H242038   5.733   2.102  15.204 -0.4872  0.0838  1.4662
 6875TIP3   OH242039   0.371   2.142   0.120  0.5019 -0.3291  0.3291
 6875TIP3    H142040   0.307   2.141   0.049  0.9703 -1.8181 -0.0908
 6875TIP3    H242041   0.425   2.064   0.106  1.4242  0.0500  1.5752
 6876TIP3   OH242042   4.967   0.997   0.630 -0.4271 -0.0389 -0.3072
 6876TIP3    H142043   4.913   1.076   0.626  2.1878  1.7935 -0.6301
 6876TIP3    H242044   5.056   1.028   0.613  1.0703 -2.6249  2.3905
 6877TIP3   OH242045   3.165   6.496  12.277 -0.0246 -0.1757 -0.3276
 6877TIP3    H142046   3.219   6.571  12.299 -0.1226  0.1677 -1.2244
 6877TIP3    H242047   3.227   6.423  12.272  0.4515  0.3199 -1.8990
 6878TIP3   OH242048   4.599   5.766   1.602  0.0426  0.1889  0.5871
 6878TIP3    H142049   4.594   5.680   1.644  1.4394 -0.8659 -1.3250
 6878TIP3    H242050   4.692   5.787   1.603  0.2083 -0.1113 -2.3530
 6879TIP3   OH242051   2.090   3.530  13.273 -0.5505  0.0083  0.2988
 6879TIP3    H142052   2.158   3.597  13.275 -2.8208  2.3815  1.2289
 6879TIP3    H242053   2.087   3.494  13.361 -0.7733  0.1897  0.3658
 6880TIP3   OH242054   3.901   2.821  13.228 -0.0368  0.0776  0.2851
 6880TIP3    H142055   3.984   2.828  13.181 -0.9416 -0.0998 -1.3788
 6880TIP3    H242056   3.862   2.908  13.220 -0.1420  0.0805  0.8217
 6881TIP3   OH242057   1.893   5.927   2.739  0.0567  0.1585 -0.1222
 6881TIP3    H142058   1.919   6.011   2.701 -1.0884 -0.2828 -1.9667
 6881TIP3    H242059   1.800   5.919   2.717  0.3219 -1.9159 -0.5835
 6882TIP3   OH242060   6.188   5.438   5.160 -0.5081 -0.1367  0.4528
 6882TIP3    H142061   6.202   5.448   5.066  0.7784  0.3537  0.6774
 6882TIP3    H242062   6.172   5.345   5.173 -1.0593 -0.1497 -0.2905
 6883TIP3   OH242063   3.878   1.864   4.199 -0.2453 -0.0006 -0.0044
 6883TIP3    H142064   3.901   1.812   4.123  0.8794 -0.4918  0.6537
 6883TIP3    H242065   3.929   1.945   4.189 -0.4228  0.1106  0.0009
 6884TIP3   OH242066   0.315   4.543  12.547 -0.5521  0.3551  0.1612
 6884TIP3    H142067   0.398   4.536  12.501 -0.2927  1.0568  0.5189
 6884TIP3    H242068   0.269   4.615  12.504 -0.4496  0.7893  0.7649
 6885TIP3   OH242069   5.372   6.204  12.160  0.1175 -0.8397  0.2273
 6885TIP3    H142070   5.443   6.165  12.210  0.4277 -0.9681 -0.3114
 6885TIP3    H242071   5.381   6.167  12.073 -0.4364 -0.6334  0.0810
 6886TIP3   OH242072   3.040   6.086  16.244  0.2847  0.5937  0.2739
 6886TIP3    H142073   3.099   6.090  16.168  0.1393  1.5278  0.1968
 6886TIP3    H242074   3.080   6.146  16.308 -0.2892  0.8209  0.4239
 6887TIP3   OH242075   4.351   2.816   0.069  0.5143  0.3511 -0.3514
 6887TIP3    H142076   4.408   2.769   0.130 -0.9246  0.6538  1.2708
 6887TIP3    H242077   4.357   2.766  -0.013  1.0955 -1.1146  0.5561
 6888TIP3   OH242078   4.329   1.187  12.224  0.5924  0.4574  0.0577
 6888TIP3    H142079   4.301   1.273  12.255  0.6942  0.8337 -0.8764
 6888TIP3    H242080   4.257   1.128  12.247  0.6985  0.7106  1.0632
 6889TIP3   OH242081   5.921   6.239   1.172  0.6635  0.6950 -0.9042
 6889TIP3    H142082   5.848   6.185   1.201 -0.8145  2.4441 -1.2922
 6889TIP3    H242083   5.982   6.239   1.245  0.6462 -1.3805 -0.8541
 6890TIP3   OH242084   5.574   1.500   1.620 -0.2617 -0.2036  0.3000
 6890TIP3    H142085   5.597   1.585   1.582 -0.3105 -0.3010  0.0529
 6890TIP3    H242086   5.548   1.521   1.710 -1.4478  0.2123 -0.1171
 6891TIP3   OH242087   3.938   0.179  13.721 -0.1497  0.2328  0.0038
 6891TIP3    H142088   3.940   0.097  13.672  1.3913 -0.1359  0.6627
 6891TIP3    H242089   3.945   0.153  13.813  1.6796  1.1657  0.1480
 6892TIP3   OH242090   6.586   1.486  17.079 -0.7326  0.5436 -0.0845
 6892TIP3    H142091   6.644   1.430  17.131 -0.7912  0.4727 -0.0958
 6892TIP3    H242092   6.500   1.444  17.086 -0.8865  0.9236  0.3377
 6893TIP3   OH242093   5.511   2.487   3.590 -0.1573 -0.5713  0.4309
 6893TIP3    H142094   5.517   2.443   3.675  4.1301  0.2619  0.7007
 6893TIP3    H242095   5.485   2.576   3.611  0.0833 -0.5910  0.8256
 6894TIP3   OH242096   2.728   2.962   0.872  0.0804  0.1729 -0.6976
 6894TIP3    H142097   2.732   2.909   0.792 -0.6003  1.5555 -1.6624
 6894TIP3    H242098   2.654   3.021   0.858  0.4372  0.9527  0.6416
 6895TIP3   OH242099   3.061   0.327  15.485 -0.8995  0.4317 -0.4623
 6895TIP3    H142100   3.068   0.422  15.499  1.8947  0.1992 -0.0078
 6895TIP3    H242101   3.000   0.298  15.552 -2.4473  1.9977 -1.1299
 6896TIP3   OH242102   1.642   1.995  16.154  0.6280  0.1355  0.0895
 6896TIP3    H142103   1.732   2.014  16.181  0.6766 -0.8448  0.6715
 6896TIP3    H242104   1.613   1.929  16.217 -0.6815  0.8519  0.2353
 6897TIP3   OH242105   2.566   2.658  16.435  0.3851  0.4206  0.0155
 6897TIP3    H142106   2.578   2.570  16.471 -0.8321  0.2251 -0.0452
 6897TIP3    H242107   2.478   2.657  16.396  0.5489  1.5141 -0.4021
 6898TIP3   OH242108   5.708   5.615  15.700 -0.0254  0.4556  0.2472
 6898TIP3    H142109   5.680   5.628  15.609 -0.1585 -0.8916  0.0799
 6898TIP3    H242110   5.802   5.632  15.698  0.0259  0.1288 -0.2118
 6899TIP3   OH242111   5.009   0.712   0.119 -0.2049  0.4749  0.2004
 6899TIP3    H142112   4.925   0.669   0.137 -0.1063  1.0095  1.9790
 6899TIP3    H242113   5.054   0.714   0.203  1.3362  0.7722 -0.6145
 6900TIP3   OH242114   2.806   0.357  12.935  0.4799 -0.1376  0.8873
 6900TIP3    H142115   2.827   0.422  12.869  0.2505  0.5565  1.4898
 6900TIP3    H242116   2.728   0.312  12.902  0.4492  0.1128  0.6242
 6901TIP3   OH242117   5.357   6.546   4.993 -0.1248  0.3255  0.1717
 6901TIP3    H142118   5.412   6.616   4.957 -0.0672 -0.0319 -0.4319
 6901TIP3    H242119   5.317   6.585   5.071 -1.4898  1.6075 -1.1510
 6902TIP3   OH242120   0.248   1.422   4.879  0.9614 -0.4638 -0.3415
 6902TIP3    H142121   0.297   1.392   4.802 -1.4697 -1.8667 -1.3923
 6902TIP3    H242122   0.166   1.455   4.843  0.9447  1.5599  1.4235
 6903TIP3   OH242123   6.022   1.992  14.792 -0.2496  0.7048  0.3441
 6903TIP3    H142124   5.944   2.046  14.786 -1.1518 -0.2997  2.4724
 6903TIP3    H242125   6.095   2.054  14.789 -1.0999  1.6275 -1.7626
 6904TIP3   OH242126   1.145   3.661  11.582  0.5344 -0.1885  0.2491
 6904TIP3    H142127   1.176   3.573  11.601 -1.5325 -0.6398  1.6824
 6904TIP3    H242128   1.182   3.715  11.652  0.2336 -0.2791  0.4831
 6905TIP3   OH242129   3.498   2.015  15.195 -0.1124  0.3203  0.1916
 6905TIP3    H142130   3.427   1.964  15.234 -0.0869 -0.3382 -0.6198
 6905TIP3    H242131   3.480   2.105  15.222 -2.5006  0.4887 -1.8692
 6906TIP3   OH242132   2.995   1.911   4.522  0.3427 -0.9192 -0.3654
 6906TIP3    H142133   3.009   1.989   4.469 -0.3409 -1.6632 -1.6579
 6906TIP3    H242134   3.029   1.839   4.468  0.5300 -1.5802  0.6156
 6907TIP3   OH242135   3.013   3.371   6.434 -0.3786  0.2734 -0.3972
 6907TIP3    H142136   3.005   3.284   6.475  0.1627  0.5019  0.2004
 6907TIP3    H242137   3.013   3.353   6.340  0.8513 -0.4775 -0.2693
 6908TIP3   OH242138   4.142   4.225   0.653  0.1598  0.1291  0.0814
 6908TIP3    H142139   4.206   4.236   0.723  0.8848  1.8314 -0.8306
 6908TIP3    H242140   4.156   4.135   0.623  0.6725 -0.2140  1.2984
 6909TIP3   OH242141   3.944   5.260  12.116 -0.5155  0.2035  0.3648
 6909TIP3    H142142   3.914   5.261  12.207  0.5794  1.6861  0.7419
 6909TIP3    H242143   3.987   5.345  12.105 -0.7112  0.0620 -1.5723
 6910TIP3   OH242144   1.360   0.800  13.797 -0.1089 -0.2343  0.3221
 6910TIP3    H142145   1.280   0.750  13.812  0.1353 -0.6062  0.4005
 6910TIP3    H242146   1.343   0.886  13.836 -0.0280 -0.6981  1.3912
 6911TIP3   OH242147   1.289   0.424   0.026 -0.2012  0.1931  0.2346
 6911TIP3    H142148   1.258   0.488   0.091  0.0901 -0.0575  0.6263
 6911TIP3    H242149   1.258   0.340   0.059 -1.5498  0.2338 -0.8629
 6912TIP3   OH242150   4.884   6.575   4.243  0.0063 -0.9183 -0.4008
 6912TIP3    H142151   4.873   6.491   4.288  1.5115 -0.4484  0.8373
 6912TIP3    H242152   4.946   6.556   4.173  0.4467 -0.7974 -0.0393
 6913TIP3   OH242153   0.700   2.088  14.370  1.1579  0.1694  0.6125
 6913TIP3    H142154   0.658   2.010  14.334  2.2753 -0.3994  0.5284
 6913TIP3    H242155   0.731   2.061  14.457  1.8143  0.4258  0.4596
 6914TIP3   OH242156   2.278   3.841   0.073 -0.2052  0.1008 -0.1323
 6914TIP3    H142157   2.202   3.872   0.122  1.8920  0.6678  2.8769
 6914TIP3    H242158   2.255   3.751   0.048 -1.3074 -0.2470  1.9901
 6915TIP3   OH242159   2.357   6.538   0.864 -0.7305 -0.3256  0.3471
 6915TIP3    H142160   2.434   6.527   0.807 -2.5726 -1.6637 -1.9938
 6915TIP3    H242161   2.394   6.555   0.951  2.2035 -0.2505 -0.8380
 6916TIP3   OH242162   4.745   3.431   5.998  0.3762  0.3265  0.0976
 6916TIP3    H142163   4.659   3.401   5.969  0.1627 -0.5207  1.5287
 6916TIP3    H242164   4.795   3.350   6.012  1.0183  0.7731  0.4235
 6917TIP3   OH242165   2.816   3.335   0.008 -0.1299  0.5968 -0.0305
 6917TIP3    H142166   2.740   3.296   0.050 -0.6489  0.6753 -0.8836
 6917TIP3    H242167   2.807   3.312  -0.085  0.2222  1.6600 -0.3408
 6918TIP3   OH242168   4.388   4.342  15.113  0.6922 -0.1635 -0.1848
 6918TIP3    H142169   4.442   4.406  15.159 -0.9549  0.0936  1.4602
 6918TIP3    H242170   4.402   4.260  15.160  0.6368 -0.3893 -0.5550
 6919TIP3   OH242171   0.651   0.800   4.736  0.2316  0.3572 -0.1270
 6919TIP3    H142172   0.598   0.740   4.684 -0.0506  0.6250 -0.1446
 6919TIP3    H242173   0.714   0.743   4.781  0.4309  0.1180 -0.7008
 6920TIP3   OH242174   2.425   6.128   4.132 -0.3384  0.9147  0.0612
 6920TIP3    H142175   2.376   6.076   4.068 -0.2022  0.2460  0.4898
 6920TIP3    H242176   2.383   6.213   4.131 -1.7585  0.2358  0.7087
 6921TIP3   OH242177   2.378   0.351   1.875 -0.0764 -0.2019 -0.4821
 6921TIP3    H142178   2.291   0.388   1.859 -0.3837 -0.3645  0.7856
 6921TIP3    H242179   2.438   0.421   1.851 -0.5520 -0.0298 -1.2075
 6922TIP3   OH242180   0.934   4.798   3.096 -0.4291 -0.1897 -0.1372
 6922TIP3    H142181   0.954   4.881   3.052 -1.2363  0.1455  0.1208
 6922TIP3    H242182   0.856   4.817   3.147  0.7861 -0.4248  1.8631
 6923TIP3   OH242183   1.983   4.101  13.819 -0.1875  0.4555  0.9203
 6923TIP3    H142184   2.015   4.184  13.786  1.2053 -0.4250 -0.0003
 6923TIP3    H242185   1.895   4.093  13.784 -0.1651  1.3269  0.6579
 6924TIP3   OH242186   5.838   4.540   4.811 -0.5265 -0.0353  0.3893
 6924TIP3    H142187   5.889   4.472   4.766 -0.0385  0.4995  0.1376
 6924TIP3    H242188   5.763   4.555   4.754 -0.9919 -0.8392  0.7706
 6925TIP3   OH242189   2.367   1.646  14.249  0.8881 -0.4989  0.0440
 6925TIP3    H142190   2.451   1.687  14.233  0.9199  0.4241  2.3600
 6925TIP3    H242191   2.302   1.712  14.224  0.8442 -0.8954 -0.9261
 6926TIP3   OH242192   4.812   0.748   1.359  0.0954  0.3414  0.0238
 6926TIP3    H142193   4.803   0.765   1.265  1.6294  0.7817 -0.0655
 6926TIP3    H242194   4.877   0.678   1.365 -0.5630 -0.2133  0.7230
 6927TIP3   OH242195   2.563   5.081  15.989 -0.5300  0.1478 -0.2711
 6927TIP3    H142196   2.649   5.104  15.956 -0.7062 -0.3352 -1.0688
 6927TIP3    H242197   2.508   5.072  15.911 -1.4711  1.1144  0.2593
 6928TIP3   OH242198   4.411   4.916  12.678  0.1791 -0.0309 -0.2316
 6928TIP3    H142199   4.483   4.855  12.691 -0.4246 -0.4497  1.1519
 6928TIP3    H242200   4.453   4.996  12.646  1.2543 -0.2900  0.5180
 6929TIP3   OH242201   1.735   3.595   6.151 -0.3766  0.1210  0.0477
 6929TIP3    H142202   1.673   3.668   6.139 -2.1445 -1.4782 -0.7964
 6929TIP3    H242203   1.778   3.615   6.234 -3.2012  0.5061  1.5076
 6930TIP3   OH242204   3.753   5.401   4.674 -0.2053  0.3096  0.0848
 6930TIP3    H142205   3.798   5.354   4.744 -0.3801  0.7986  0.5257
 6930TIP3    H242206   3.787   5.490   4.679 -0.2841  0.3700 -0.3993
 6931TIP3   OH242207   3.078   1.895  15.496 -0.1874  0.0280  0.1470
 6931TIP3    H142208   3.005   1.951  15.472 -0.7443 -0.7013  0.1384
 6931TIP3    H242209   3.053   1.856  15.579 -0.2109 -0.9309 -0.3046
 6932TIP3   OH242210   3.389   3.170  12.244 -0.4574 -0.2154  0.3603
 6932TIP3    H142211   3.448   3.245  12.252 -0.3387 -0.2232 -0.4443
 6932TIP3    H242212   3.371   3.144  12.334  0.2299  0.2122  0.6207
 6933TIP3   OH242213   3.393   2.576   0.139 -0.1619  0.2024  0.0612
 6933TIP3    H142214   3.354   2.638   0.077 -1.2185 -0.7419 -0.2476
 6933TIP3    H242215   3.390   2.492   0.093  3.8172  0.3697 -0.6513
 6934TIP3   OH242216   5.150   3.752   0.173 -0.3375  0.0032  0.4176
 6934TIP3    H142217   5.183   3.773   0.261 -0.3895  0.2624  0.3768
 6934TIP3    H242218   5.225   3.712   0.128 -0.9390 -2.1480  1.2868
 6935TIP3   OH242219   0.205   2.413   4.302  0.0793  0.0496 -0.3850
 6935TIP3    H142220   0.271   2.370   4.356 -1.1134 -2.1096 -0.6016
 6935TIP3    H242221   0.143   2.450   4.365  0.8335  1.0211 -0.2071
 6936TIP3   OH242222   0.873   3.604   1.018 -0.0607 -0.0645  0.6186
 6936TIP3    H142223   0.825   3.616   0.936 -0.3724 -0.1387  0.7880
 6936TIP3    H242224   0.816   3.642   1.085 -0.1781 -0.7359  0.9088
 6937TIP3   OH242225   6.696   3.772  14.505 -0.6281  0.1819  0.7823
 6937TIP3    H142226   6.677   3.717  14.429  0.0286 -0.0973  0.8133
 6937TIP3    H242227   6.648   3.853  14.489  0.2645  0.4798 -0.3830
 6938TIP3   OH242228   6.140   0.237  13.587 -0.3398 -0.1259 -0.0943
 6938TIP3    H142229   6.050   0.234  13.620  0.6297  0.4148  2.6454
 6938TIP3    H242230   6.172   0.147  13.597 -0.3137 -0.1512 -0.3880
 6939TIP3   OH242231   5.908   0.083   0.185 -0.0541 -0.5680  0.3436
 6939TIP3    H142232   5.934  -0.009   0.188  1.6933 -0.0462  1.8274
 6939TIP3    H242233   5.861   0.098   0.267  1.2497  0.3073  0.9458
 6940TIP3   OH242234   6.093   3.254   2.218  0.0209  0.4225  0.4602
 6940TIP3    H142235   6.018   3.221   2.269  0.2215 -1.3027 -0.3468
 6940TIP3    H242236   6.053   3.307   2.149 -0.4140  0.2677  0.5902
 6941TIP3   OH242237   2.008   4.148  14.356  0.2893  0.2912 -0.0530
 6941TIP3    H142238   1.996   4.241  14.340 -0.8879 -0.1777 -2.0665
 6941TIP3    H242239   1.943   4.105  14.300  1.1507 -1.7583  0.4622
 6942TIP3   OH242240   0.613   5.218   1.066 -0.1062 -0.0634 -0.1823
 6942TIP3    H142241   0.682   5.272   1.104 -2.4501  1.1716  2.4459
 6942TIP3    H242242   0.635   5.129   1.092  0.9351  0.2089 -0.1030
 6943TIP3   OH242243   5.426   3.367  15.596 -0.3667  0.0537 -0.3272
 6943TIP3    H142244   5.375   3.416  15.660  0.8832  0.8939  0.0510
 6943TIP3    H242245   5.462   3.293  15.646  1.0682  1.0161  0.1173
 6944TIP3   OH242246   4.614   1.642   0.683 -0.2386 -0.3052  0.8290
 6944TIP3    H142247   4.660   1.688   0.613 -0.0527  0.2354  1.2963
 6944TIP3    H242248   4.531   1.615   0.644  1.1445 -2.7700 -0.5328
 6945TIP3   OH242249   6.749   3.884  15.292 -0.4031  0.3445  0.4432
 6945TIP3    H142250   6.674   3.849  15.339  0.1600 -0.7764  0.5208
 6945TIP3    H242251   6.813   3.813  15.292 -0.2360  0.4575 -1.6790
 6946TIP3   OH242252   0.361   4.094   1.357 -0.5192  0.0051 -0.0577
 6946TIP3    H142253   0.385   4.015   1.405 -0.5326  0.6896  1.0861
 6946TIP3    H242254   0.444   4.138   1.339 -0.4771 -0.4546 -1.0473
 6947TIP3   OH242255   4.835   3.144   1.556  0.2173 -0.2582 -0.0151
 6947TIP3    H142256   4.780   3.110   1.627  0.3508  1.0018  0.7207
 6947TIP3    H242257   4.898   3.075   1.539  0.0697 -0.6527  0.9843
 6948TIP3   OH242258   3.020   3.010  12.392 -0.0012 -0.3280  0.0763
 6948TIP3    H142259   2.930   3.003  12.363 -0.1777 -1.5286  0.9095
 6948TIP3    H242260   3.054   2.921  12.390  1.1355  0.0935 -0.1128
 6949TIP3   OH242261   6.690   5.602   0.283  0.1435 -0.6076  0.1911
 6949TIP3    H142262   6.674   5.563   0.197 -0.4751 -0.1094  0.0742
 6949TIP3    H242263   6.647   5.687   0.279 -0.0239 -0.6438  1.0528
 6950TIP3   OH242264   6.560   5.309  12.866  0.3827  0.1896 -0.6306
 6950TIP3    H142265   6.520   5.223  12.878 -0.4331  0.7232  0.5316
 6950TIP3    H242266   6.653   5.290  12.852  1.1112 -0.6834  4.4426
 6951TIP3   OH242267   0.198   2.281  12.772 -0.0541  0.3352 -0.2548
 6951TIP3    H142268   0.202   2.324  12.857 -0.2371  3.1614 -1.6162
 6951TIP3    H242269   0.152   2.199  12.789  0.9109  0.3271  2.5594
 6952TIP3   OH242270   3.443   6.649  15.948 -0.1619 -0.6035  0.7038
 6952TIP3    H142271   3.528   6.676  15.913  0.5461 -2.3815  0.9782
 6952TIP3    H242272   3.379   6.696  15.894  0.9685 -0.7485 -0.8001
 6953TIP3   OH242273   2.578   2.303   6.644 -0.3558 -0.6334 -0.2898
 6953TIP3    H142274   2.611   2.226   6.689 -0.3894 -1.2826 -1.3572
 6953TIP3    H242275   2.651   2.365   6.646  0.1071 -1.1631 -0.5234
 6954TIP3   OH242276   0.457   2.957   1.497 -0.4692  0.3287  0.2183
 6954TIP3    H142277   0.502   2.899   1.435 -0.0351  1.2022 -0.3034
 6954TIP3    H242278   0.527   3.012   1.533 -1.0594  1.4602 -0.3291
 6955TIP3   OH242279   3.001   5.974   1.721 -0.4329  0.2914  0.4426
 6955TIP3    H142280   2.937   5.904   1.707  0.8411 -1.0434  1.1167
 6955TIP3    H242281   3.022   6.006   1.633  1.4848 -2.5036 -0.1710
 6956TIP3   OH242282   0.475   4.559  10.935 -0.1183  0.6240  0.0108
 6956TIP3    H142283   0.387   4.531  10.963  0.9882 -2.9154  0.0989
 6956TIP3    H242284   0.480   4.535  10.843  0.9015  0.3850  0.1209
 6957TIP3   OH242285   0.454   2.900   4.798  0.5214 -0.2650  0.6985
 6957TIP3    H142286   0.451   2.912   4.703 -0.7369  0.2973  0.8074
 6957TIP3    H242287   0.390   2.962   4.833  0.2366 -1.1798  1.8516
 6958TIP3   OH242288   5.830   6.335   1.946 -0.1243 -0.5846 -0.5947
 6958TIP3    H142289   5.884   6.414   1.950  2.7414 -2.2002 -4.2889
 6958TIP3    H242290   5.863   6.280   2.017  0.5122 -0.0264 -0.4556
 6959TIP3   OH242291   6.574   1.272   2.958 -0.5829  0.2174 -0.3564
 6959TIP3    H142292   6.536   1.232   3.036 -1.1934 -0.5186 -1.0294
 6959TIP3    H242293   6.543   1.219   2.886 -0.0172  0.8985 -1.1131
 6960TIP3   OH242294   0.860   2.499   5.291 -0.2778 -0.2797  0.3175
 6960TIP3    H142295   0.908   2.579   5.309 -0.8704  0.5087 -1.4992
 6960TIP3    H242296   0.855   2.454   5.375  1.8138  0.6109  0.9390
 6961TIP3   OH242297   5.681   0.523  12.952  0.2507  0.0151  0.6118
 6961TIP3    H142298   5.766   0.528  12.995 -0.5083  1.9907  1.9476
 6961TIP3    H242299   5.637   0.449  12.993  1.1435 -0.7519  0.2099
 6962TIP3   OH242300   3.809   2.735   2.997  0.2725  0.5997 -0.0219
 6962TIP3    H142301   3.901   2.746   3.020 -0.1180  1.7498  1.1133
 6962TIP3    H242302   3.785   2.818   2.955  0.2105 -0.3837 -2.0078
 6963TIP3   OH242303   1.384   0.156   3.728 -0.5029 -0.0354  0.1520
 6963TIP3    H142304   1.409   0.240   3.688 -0.5957 -0.5354 -0.9670
 6963TIP3    H242305   1.289   0.163   3.740 -0.4790  0.1003  0.2713
 6964TIP3   OH242306   3.076   3.405  11.482  0.0506  0.1222 -0.1237
 6964TIP3    H142307   3.085   3.354  11.562  2.7130  1.0478  0.2142
 6964TIP3    H242308   2.987   3.441  11.487 -0.1433 -0.5574  1.9680
 6965TIP3   OH242309   2.555   0.357   6.665  0.3532 -0.1018  0.5035
 6965TIP3    H142310   2.471   0.319   6.690 -0.3854  0.7430 -0.6096
 6965TIP3    H242311   2.587   0.299   6.596 -0.0862  0.4734 -0.1891
 6966TIP3   OH242312   2.162   6.045   2.312 -0.0899 -0.1567  0.5230
 6966TIP3    H142313   2.088   6.083   2.264  0.2574 -0.2290 -0.0777
 6966TIP3    H242314   2.239   6.072   2.261  0.1563 -1.7361  0.0345
 6967TIP3   OH242315   6.191   0.864  15.070  0.5085  0.3808  0.0566
 6967TIP3    H142316   6.237   0.927  15.015 -0.6559  0.8913 -0.3335
 6967TIP3    H242317   6.104   0.856  15.031  0.6631 -1.5102  0.0602
 6968TIP3   OH242318   5.056   6.002  11.998 -1.0513 -0.4204  0.4416
 6968TIP3    H142319   5.086   5.912  11.986  0.2712 -0.3300  2.6816
 6968TIP3    H242320   5.067   6.044  11.913  2.2612 -1.2742  0.4150
 6969TIP3   OH242321   3.335   0.175  13.586 -0.4142  0.2658  0.2989
 6969TIP3    H142322   3.240   0.184  13.596 -0.1103  1.5986  2.1224
 6969TIP3    H242323   3.370   0.189  13.673  1.4522 -0.6454 -0.2839
 6970TIP3   OH242324   1.231   1.749   2.021 -0.1761 -0.3026  0.2128
 6970TIP3    H142325   1.213   1.842   2.013  1.0189  0.0539  1.6178
 6970TIP3    H242326   1.165   1.717   2.082 -2.2075 -0.9059 -2.1838
 6971TIP3   OH242327   0.221   1.655   2.277 -0.3335  0.0158  0.0237
 6971TIP3    H142328   0.249   1.682   2.365 -0.1920 -1.6680  0.5176
 6971TIP3    H242329   0.225   1.560   2.279 -1.5127 -0.0809 -1.4421
 6972TIP3   OH242330   0.424   1.069  16.499  0.2575 -0.2814  0.4520
 6972TIP3    H142331   0.345   1.016  16.491  0.5794 -0.6820 -0.0931
 6972TIP3    H242332   0.393   1.159  16.495  0.1284 -0.4126 -2.9396
 6973TIP3   OH242333   0.096   2.789  14.520 -0.3412  0.2843  0.3395
 6973TIP3    H142334   0.030   2.858  14.534 -0.6677  0.2847 -1.1224
 6973TIP3    H242335   0.058   2.712  14.561 -1.1598  0.3391 -0.3002
 6974TIP3   OH242336   2.971   6.615   1.533  0.2554 -0.3132  0.2200
 6974TIP3    H142337   3.004   6.701   1.559 -1.2760  0.7361 -1.2484
 6974TIP3    H242338   2.925   6.630   1.451  1.4880 -2.8604 -1.0000
 6975TIP3   OH242339   0.991   6.029  13.905 -0.2086 -0.0537 -0.5725
 6975TIP3    H142340   1.013   5.961  13.842  0.4400  0.0668 -0.4706
 6975TIP3    H242341   0.917   5.992  13.954  0.0018 -0.5924 -0.6578
 6976TIP3   OH242342   5.195   2.920   3.964 -0.0873 -0.1634 -0.2347
 6976TIP3    H142343   5.253   2.846   3.982  0.4086  0.1730 -0.4527
 6976TIP3    H242344   5.126   2.883   3.909 -0.1157 -0.5785  0.0738
 6977TIP3   OH242345   0.918   5.560   1.870  0.3017  0.5895 -0.3951
 6977TIP3    H142346   0.904   5.597   1.783  1.8917 -0.1358 -0.9780
 6977TIP3    H242347   0.993   5.502   1.860 -0.0719 -0.2245  1.2556
 6978TIP3   OH242348   2.648   3.665  15.747 -0.5888  0.2414 -0.1562
 6978TIP3    H142349   2.618   3.754  15.764  0.4154  0.6577 -0.5524
 6978TIP3    H242350   2.567   3.614  15.739 -1.1405  0.7632  1.8879
 6979TIP3   OH242351   3.280   5.306   5.163 -0.2737  0.1593  0.6055
 6979TIP3    H142352   3.217   5.241   5.194  0.9664 -0.0776  2.8044
 6979TIP3    H242353   3.359   5.255   5.143  0.1618  0.7837  0.7274
 6980TIP3   OH242354   5.454   2.112  13.730 -0.0104 -0.3397 -0.4514
 6980TIP3    H142355   5.523   2.085  13.790 -1.5603 -0.3053  1.4138
 6980TIP3    H242356   5.419   2.030  13.695  0.0407 -0.4290 -0.2952
 6981TIP3   OH242357   3.322   1.805   3.857 -0.3199  0.4910  0.3555
 6981TIP3    H142358   3.250   1.826   3.917  0.3884 -1.0296  1.7944
 6981TIP3    H242359   3.327   1.880   3.798 -1.8354  1.4792  1.4380
 6982TIP3   OH242360   5.638   4.739   0.470  0.5608  0.1993  0.0089
 6982TIP3    H142361   5.646   4.734   0.375  0.6009  0.1540  0.0147
 6982TIP3    H242362   5.544   4.731   0.487  0.4831  0.9699 -0.0722
 6983TIP3   OH242363   2.915   6.590  12.398 -0.3657  0.0935 -0.5245
 6983TIP3    H142364   2.959   6.579  12.482  1.0554  0.6234 -1.1835
 6983TIP3    H242365   2.975   6.552  12.334 -0.1682  2.1163 -1.6054
 6984TIP3   OH242366   5.563   1.027  14.053  0.7751 -0.4253  0.3800
 6984TIP3    H142367   5.615   1.098  14.014 -1.7466  0.8798 -0.7744
 6984TIP3    H242368   5.534   0.975  13.978 -0.7360 -0.2957  0.8536
 6985TIP3   OH242369   5.225   4.157  15.718  0.0799 -0.1940  0.1437
 6985TIP3    H142370   5.298   4.096  15.708  0.1214 -0.3590  1.3927
 6985TIP3    H242371   5.177   4.151  15.635  0.9679 -0.7622 -0.3282
 6986TIP3   OH242372   1.945   5.678   2.884  0.1641 -0.3594 -0.3246
 6986TIP3    H142373   1.900   5.667   2.968 -1.3268 -0.5824 -1.1264
 6986TIP3    H242374   1.906   5.757   2.846 -0.8281 -1.5138 -1.7993
 6987TIP3   OH242375   6.205   1.967   1.920 -0.7017  0.3895  0.8258
 6987TIP3    H142376   6.171   1.987   2.007  0.5193  1.3179  1.0924
 6987TIP3    H242377   6.201   1.872   1.914 -0.2572  0.2832  2.1110
 6988TIP3   OH242378   3.283   1.913   3.133  0.5526 -0.0065 -0.0267
 6988TIP3    H142379   3.279   1.823   3.165  0.3434 -0.4250 -1.2268
 6988TIP3    H242380   3.332   1.960   3.201 -1.0783 -0.5919  1.5808
 6989TIP3   OH242381   3.581   4.804  11.565 -0.0322  0.4865  0.4831
 6989TIP3    H142382   3.580   4.711  11.590  0.2005  0.6783  1.2247
 6989TIP3    H242383   3.578   4.804  11.470 -0.7114 -0.2796  0.5011
 6990TIP3   OH242384   4.768   4.265   0.939  0.3923  0.0604 -0.6374
 6990TIP3    H142385   4.847   4.299   0.897  0.2599  0.2300 -0.7513
 6990TIP3    H242386   4.770   4.171   0.922  2.6879 -0.6258  2.8067
 6991TIP3   OH242387   1.048   5.899   3.212 -0.3720  0.8503  0.8758
 6991TIP3    H142388   0.982   5.875   3.148  0.1984 -2.2601  1.4054
 6991TIP3    H242389   1.121   5.933   3.159 -0.6327  0.0566 -0.0059
 6992TIP3   OH242390   4.311   2.865   2.659  0.2622 -0.1814  0.1072
 6992TIP3    H142391   4.235   2.825   2.617  1.4869 -1.0928 -1.2964
 6992TIP3    H242392   4.379   2.797   2.656  0.5052 -0.1295  3.2476
 6993TIP3   OH242393   4.705   2.089   3.645 -0.0583  0.0131  0.2660
 6993TIP3    H142394   4.787   2.065   3.688 -0.2052 -2.0745 -0.5764
 6993TIP3    H242395   4.732   2.147   3.573  0.3653  1.8758  1.8921
 6994TIP3   OH242396   4.643   6.563  16.095 -0.0365  0.0912 -0.2710
 6994TIP3    H142397   4.591   6.490  16.129  1.2960 -0.6686  0.1371
 6994TIP3    H242398   4.595   6.641  16.124 -0.3705 -0.5817  1.0332
 6995TIP3   OH242399   3.615   1.308  11.583 -0.4165  0.1201  0.0621
 6995TIP3    H142400   3.602   1.219  11.616 -0.1658 -0.2016 -0.6884
 6995TIP3    H242401   3.631   1.361  11.661 -1.4092 -0.3373  0.5837
 6996TIP3   OH242402   1.715   1.569  12.863 -0.0590  0.4108  0.1792
 6996TIP3    H142403   1.678   1.559  12.775 -0.9518  0.6815  0.5140
 6996TIP3    H242404   1.799   1.523  12.859  0.0601  0.7076 -0.9030
 6997TIP3   OH242405   6.676   0.670   3.161 -0.1954 -0.3048  0.2137
 6997TIP3    H142406   6.766   0.688   3.133 -0.3518  1.2112  0.6653
 6997TIP3    H242407   6.669   0.709   3.248 -0.9746 -1.3758  0.6478
 6998TIP3   OH242408   4.867   1.695   1.719  0.4681 -0.3474  0.0788
 6998TIP3    H142409   4.772   1.689   1.723  0.5101 -2.9360 -1.5546
 6998TIP3    H242410   4.887   1.783   1.752 -2.6471  1.3269 -2.2698
 6999TIP3   OH242411   1.016   0.546  12.431 -0.7138 -0.1967 -0.2001
 6999TIP3    H142412   1.077   0.569  12.501 -0.4743 -0.8554 -0.1957
 6999TIP3    H242413   1.055   0.470  12.388 -1.5053 -0.5944 -0.2269
 7000TIP3   OH242414   3.903   4.353   0.533 -0.5388  0.3614  0.1457
 7000TIP3    H142415   3.980   4.317   0.577  1.0040  0.6057 -2.3215
 7000TIP3    H242416   3.890   4.298   0.456 -3.6175 -0.4539  1.1463
 7001TIP3   OH242417   5.132   1.582  11.785 -0.0764 -0.3379 -0.0109
 7001TIP3    H142418   5.217   1.627  11.792 -0.0337 -0.3735 -0.2912
 7001TIP3    H242419   5.084   1.631  11.719  0.0704 -0.8588 -0.5078
 7002TIP3   OH242420   6.688   2.074  11.973 -0.3430 -0.2010  0.0245
 7002TIP3    H142421   6.749   2.066  11.899 -2.6366 -0.6527 -1.9066
 7002TIP3    H242422   6.640   1.991  11.973  0.4669 -0.7271  2.8651
 7003TIP3   OH242423   0.221   0.681   0.710  0.3264  0.5036  0.0940
 7003TIP3    H142424   0.301   0.695   0.660  0.1697 -0.2545 -0.3590
 7003TIP3    H242425   0.233   0.596   0.753 -0.1683  0.4619  0.1537
 7004TIP3   OH242426   0.244   0.615  12.487  0.1100 -0.3444 -0.3489
 7004TIP3    H142427   0.220   0.703  12.514  1.0287 -0.6219  1.4176
 7004TIP3    H242428   0.333   0.623  12.452 -0.2746 -0.3679 -1.3727
 7005TIP3   OH242429   1.564   2.105   2.508 -0.4764 -0.1914  0.0676
 7005TIP3    H142430   1.513   2.183   2.490  0.0433  0.2663  0.5436
 7005TIP3    H242431   1.576   2.105   2.603  2.0352  0.7832 -0.1891
 7006TIP3   OH242432   2.783   2.379  15.536  0.1833 -0.4418 -0.9011
 7006TIP3    H142433   2.736   2.328  15.470  1.7180 -2.0383 -0.7955
 7006TIP3    H242434   2.864   2.405  15.492  1.3250 -1.7225  0.4169
 7007TIP3   OH242435   1.755   4.899  12.204  0.4586  0.5693  0.8450
 7007TIP3    H142436   1.702   4.885  12.125  1.7554  1.3179 -0.1774
 7007TIP3    H242437   1.770   4.810  12.238 -0.2569  0.2553  0.3669
 7008TIP3   OH242438   5.791   4.923  12.399  0.0123  0.4680 -0.3770
 7008TIP3    H142439   5.707   4.965  12.418 -1.5508 -2.9979  0.7083
 7008TIP3    H242440   5.836   4.918  12.483 -0.0738 -0.5105 -0.3778
 7009TIP3   OH242441   0.925   4.308   4.493 -0.0262  0.0424 -0.2591
 7009TIP3    H142442   0.920   4.282   4.585 -1.1931 -0.5441 -0.4815
 7009TIP3    H242443   0.851   4.263   4.451  2.3422 -2.2610 -2.1067
 7010TIP3   OH242444   2.426   2.335   3.846  0.7784  0.0095 -0.5660
 7010TIP3    H142445   2.353   2.273   3.838  0.1952  0.9892 -3.1943
 7010TIP3    H242446   2.460   2.344   3.758  1.5987  2.5434 -0.0393
 7011TIP3   OH242447   2.971   3.302  16.014 -0.0546  0.3027 -0.0762
 7011TIP3    H142448   2.932   3.224  16.054  0.2412  0.4361  0.4875
 7011TIP3    H242449   2.904   3.370  16.024 -0.2103  0.1839 -0.3291
 7012TIP3   OH242450   2.802   2.899   5.562  0.5904 -0.1745  0.8937
 7012TIP3    H142451   2.804   2.804   5.555  1.5711  0.0861 -3.9654
 7012TIP3    H242452   2.719   2.918   5.606 -0.5172 -3.2176  0.2506
 7013TIP3   OH242453   0.662   5.086  16.699  0.2373 -0.4674 -0.2790
 7013TIP3    H142454   0.592   5.108  16.638 -0.3637 -0.5052  0.3915
 7013TIP3    H242455   0.737   5.137  16.669 -0.1661 -0.1821 -0.8061
 7014TIP3   OH242456   2.246   5.122  14.507  0.0316  0.2894  1.0424
 7014TIP3    H142457   2.298   5.188  14.553 -0.9768  2.1129 -0.3452
 7014TIP3    H242458   2.194   5.173  14.445  0.7588 -2.0249 -1.5421
 7015TIP3   OH242459   1.676   1.160   1.460 -0.4149  0.1960  0.0917
 7015TIP3    H142460   1.648   1.204   1.380 -2.2911 -0.4072  0.3845
 7015TIP3    H242461   1.601   1.168   1.520  0.6598 -0.0381  1.5079
 7016TIP3   OH242462   0.429   1.223   5.084 -0.1768 -0.4057 -0.3681
 7016TIP3    H142463   0.519   1.212   5.052 -0.8731 -1.7890 -1.9154
 7016TIP3    H242464   0.420   1.156   5.152  0.1241  0.0714  0.1426
 7017TIP3   OH242465   3.829   4.695   3.627 -0.0585  0.3341  0.3817
 7017TIP3    H142466   3.816   4.660   3.715  0.9023 -0.8145  0.0863
 7017TIP3    H242467   3.904   4.754   3.636  0.0497  0.2043  0.3247
 7018TIP3   OH242468   3.094   6.124   2.983 -0.5395 -0.2520 -0.1995
 7018TIP3    H142469   3.113   6.103   2.891 -0.1634 -1.5760  0.1694
 7018TIP3    H242470   3.092   6.220   2.986  0.5142 -0.1823 -1.3843
 7019TIP3   OH242471   3.126   0.798  16.404  0.0651 -0.1081  0.4823
 7019TIP3    H142472   3.055   0.769  16.462  0.9024  1.7673  2.5195
 7019TIP3    H242473   3.197   0.823  16.464  1.2773  1.0942 -1.4138
 7020TIP3   OH242474   5.193   1.805   1.939  0.1122  0.1198 -0.3787
 7020TIP3    H142475   5.215   1.799   1.846 -0.4951 -2.2554 -0.4113
 7020TIP3    H242476   5.115   1.859   1.942 -0.1340 -0.1686 -1.2971
 7021TIP3   OH242477   3.121   6.732   3.027 -0.2669 -0.2272 -0.1342
 7021TIP3    H142478   3.156   6.809   2.983  0.5779 -1.4914 -1.7377
 7021TIP3    H242479   3.026   6.742   3.021 -0.1600  0.5147 -0.6302
 7022TIP3   OH242480   3.962   3.959   1.627  0.0215 -0.8063 -0.0421
 7022TIP3    H142481   4.022   4.033   1.635 -0.9751  0.0092 -0.0417
 7022TIP3    H242482   4.019   3.882   1.624  1.0712 -0.0299 -0.2000
 7023TIP3   OH242483   6.619   2.761   3.417 -0.0074  0.0748 -0.2772
 7023TIP3    H142484   6.644   2.821   3.488 -0.4838 -1.3505  1.1198
 7023TIP3    H242485   6.684   2.691   3.421 -0.4577 -0.3743 -0.7953
 7024TIP3   OH242486   2.145   1.298   0.330  0.1229  1.1452  0.2620
 7024TIP3    H142487   2.085   1.335   0.264 -0.5892 -0.1486  0.1648
 7024TIP3    H242488   2.088   1.248   0.388  0.9137  1.2711  1.1492
 7025TIP3   OH242489   1.333   0.570   4.390 -0.2630  0.8681  0.7618
 7025TIP3    H142490   1.411   0.558   4.335  1.0172  0.2320  2.6664
 7025TIP3    H242491   1.366   0.615   4.468 -1.7860  0.4213  1.6658
 7026TIP3   OH242492   2.702   0.927  16.450 -0.5330  0.7808 -0.4765
 7026TIP3    H142493   2.744   0.907  16.533  2.4057  1.3061 -1.7776
 7026TIP3    H242494   2.642   0.999  16.469 -0.2424  0.5734  1.2593
 7027TIP3   OH242495   1.186   2.176   6.589  0.0908 -0.9967  0.2477
 7027TIP3    H142496   1.130   2.198   6.515  0.5639 -1.2119 -0.1830
 7027TIP3    H242497   1.153   2.229   6.661  0.1990 -0.0997 -0.3546
 7028TIP3   OH242498   1.016   4.558  15.071  0.1737  0.2078  0.3169
 7028TIP3    H142499   0.981   4.527  14.988 -0.7708  1.3193  0.2697
 7028TIP3    H242500   0.957   4.630  15.096  0.4365 -0.1138  1.9426
 7029TIP3   OH242501   5.345   1.356  14.430  0.1563 -0.3380  0.0569
 7029TIP3    H142502   5.370   1.379  14.519 -1.2726  3.7421 -0.4598
 7029TIP3    H242503   5.261   1.312  14.438 -0.0916  0.2581  0.7317
 7030TIP3   OH242504   3.827   3.676  12.763 -0.4021 -0.0777 -0.3672
 7030TIP3    H142505   3.742   3.650  12.798 -1.4268  2.2099 -1.0459
 7030TIP3    H242506   3.814   3.766  12.733  2.5679  0.7147  0.5469
 7031TIP3   OH242507   1.071   4.617   2.244  0.2385 -0.2404 -0.4479
 7031TIP3    H142508   1.089   4.708   2.269 -3.1077  0.3915 -0.0277
 7031TIP3    H242509   1.025   4.624   2.160  0.7020 -1.6062 -0.8274
 7032TIP3   OH242510   3.538   3.283   2.032 -0.0496 -0.2348  0.7134
 7032TIP3    H142511   3.610   3.342   2.053 -0.8984  1.3593 -0.7274
 7032TIP3    H242512   3.463   3.319   2.079 -1.0709  1.1186 -1.8846
 7033TIP3   OH242513   3.676   2.239  16.817  0.5560  0.3604 -0.5191
 7033TIP3    H142514   3.686   2.189  16.736 -2.1961  2.7554 -2.4259
 7033TIP3    H242515   3.581   2.249  16.828  0.9522  2.0349  1.7693
 7034TIP3   OH242516   3.033   4.553   5.656  0.2021 -0.3032  0.0188
 7034TIP3    H142517   3.124   4.528   5.642  0.5719  0.7117  0.5662
 7034TIP3    H242518   2.996   4.481   5.707  1.0566 -0.1031  0.9486
 7035TIP3   OH242519   4.875   5.992  12.378 -0.3008 -0.0636 -0.5235
 7035TIP3    H142520   4.961   6.016  12.342  0.3439 -0.3139  0.8064
 7035TIP3    H242521   4.816   5.995  12.303  1.5327 -3.3990 -2.1972
 7036TIP3   OH242522   4.694   2.282   2.693 -0.7464  0.0085 -0.3856
 7036TIP3    H142523   4.762   2.224   2.657 -0.4037 -1.3188  2.2561
 7036TIP3    H242524   4.740   2.332   2.761 -1.7408  1.2752 -0.6404
 7037TIP3   OH242525   4.574   3.323  13.241 -0.0348  0.6040  0.0016
 7037TIP3    H142526   4.554   3.404  13.195  0.7403  2.1926  2.3902
 7037TIP3    H242527   4.509   3.317  13.310  1.4186  0.4626  1.3774
 7038TIP3   OH242528   1.388   2.877  11.033 -0.1810 -0.5574 -0.3507
 7038TIP3    H142529   1.411   2.787  11.010  0.1244 -0.9839  1.5400
 7038TIP3    H242530   1.363   2.917  10.950  0.8920 -2.0191 -1.4139
 7039TIP3   OH242531   5.854   3.415   5.073 -0.3047 -0.1801  0.2091
 7039TIP3    H142532   5.801   3.489   5.102  1.1780  0.7695  0.5543
 7039TIP3    H242533   5.861   3.425   4.978 -0.3365 -0.0209  0.2247
 7040TIP3   OH242534   5.468   1.185  16.548 -0.1590  0.0776 -0.3088
 7040TIP3    H142535   5.480   1.201  16.454 -1.0517 -2.8444 -0.9736
 7040TIP3    H242536   5.549   1.216  16.588  0.4892  0.7895 -2.0960
 7041TIP3   OH242537   1.633   3.286   2.547 -0.2751 -0.2196  0.1158
 7041TIP3    H142538   1.696   3.340   2.595  1.2169  0.1327 -2.1774
 7041TIP3    H242539   1.564   3.268   2.611  1.2825  0.8482  2.1714
 7042TIP3   OH242540   5.253   1.366   6.685  0.2759  0.4273 -0.5257
 7042TIP3    H142541   5.236   1.444   6.737  1.3204  1.4097 -1.6502
 7042TIP3    H242542   5.203   1.297   6.730  0.2502  1.4778  1.1223
 7043TIP3   OH242543   5.204   6.386   4.305  0.4725  0.6839 -0.0159
 7043TIP3    H142544   5.125   6.439   4.296 -0.3104 -0.5631 -0.6562
 7043TIP3    H242545   5.253   6.401   4.225  1.1494  1.8526  0.6005
 7044TIP3   OH242546   0.519   1.402   4.848  0.2974 -0.1193  0.4037
 7044TIP3    H142547   0.463   1.325   4.860 -0.7976  0.5876 -0.0652
 7044TIP3    H242548   0.504   1.429   4.757 -1.5087  2.3047  1.3644
 7045TIP3   OH242549   4.294   2.296  13.884 -0.2564  0.1238  0.0557
 7045TIP3    H142550   4.322   2.205  13.892 -0.9991 -0.0134  1.3083
 7045TIP3    H242551   4.375   2.345  13.872  0.1610 -0.6894 -0.4989
 7046TIP3   OH242552   4.936   2.678  11.742 -0.4613 -0.5711 -0.4519
 7046TIP3    H142553   4.860   2.732  11.763  0.2015  0.3841 -0.4802
 7046TIP3    H242554   4.961   2.638  11.825  0.0397  0.4601 -0.1049
 7047TIP3   OH242555   3.182   3.685   0.857  0.9093  0.4267 -0.1353
 7047TIP3    H142556   3.122   3.623   0.899  1.7357 -0.4674 -0.2296
 7047TIP3    H242557   3.163   3.676   0.764  1.5520 -0.2643 -0.2074
 7048TIP3   OH242558   6.358   3.892   4.433 -0.3541  0.0735  0.2903
 7048TIP3    H142559   6.380   3.846   4.352 -1.5458 -1.0644  0.6108
 7048TIP3    H242560   6.288   3.952   4.408  0.1016  0.5933  0.2307
 7049TIP3   OH242561   1.710   0.388   0.539  0.0201 -0.0710 -0.1002
 7049TIP3    H142562   1.664   0.456   0.489 -0.0107  0.3704  0.5203
 7049TIP3    H242563   1.668   0.306   0.512 -0.8497  0.2834  0.1469
 7050TIP3   OH242564   4.502   5.102  11.556  0.2762  0.4254  0.2283
 7050TIP3    H142565   4.545   5.094  11.471  2.3970  0.4721  1.2515
 7050TIP3    H242566   4.489   5.196  11.568 -0.5435  0.3800 -0.2835
 7051TIP3   OH242567   2.444   4.334   6.363  0.9196  0.8041  0.2030
 7051TIP3    H142568   2.536   4.321   6.338  0.9117  1.9273 -0.4557
 7051TIP3    H242569   2.432   4.278   6.440  1.3681 -1.5995 -1.4105
 7052TIP3   OH242570   5.169   6.748  11.364  0.4936  0.6086  0.0323
 7052TIP3    H142571   5.261   6.774  11.373  0.7684 -0.6904  1.0069
 7052TIP3    H242572   5.125   6.793  11.435  0.2203  1.8559 -0.8999
 7053TIP3   OH242573   1.323   5.544  15.860  0.1628  0.2644  0.2324
 7053TIP3    H142574   1.418   5.533  15.865  0.0861 -0.0021  1.2734
 7053TIP3    H242575   1.289   5.484  15.927 -0.8000 -0.5435 -0.9725
 7054TIP3   OH242576   0.470   5.018   1.473  0.4207  0.5277  0.1733
 7054TIP3    H142577   0.415   5.051   1.544  0.7844  0.4059  0.5152
 7054TIP3    H242578   0.412   5.015   1.397 -0.5403 -1.3463  0.9494
 7055TIP3   OH242579   2.603   2.985   4.053  0.0196  0.1732  0.4715
 7055TIP3    H142580   2.647   2.970   3.969  0.0530  0.0401  0.5119
 7055TIP3    H242581   2.660   3.044   4.100  0.0442  0.1787  0.4346
 7056TIP3   OH242582   4.723   4.832  15.341 -0.2465  0.5285  0.4250
 7056TIP3    H142583   4.735   4.740  15.320 -0.3831  0.9487 -1.5885
 7056TIP3    H242584   4.633   4.851  15.316 -0.4814  1.0030  1.6184
 7057TIP3   OH242585   4.422   3.483   6.199  0.0810  0.2435 -0.4532
 7057TIP3    H142586   4.459   3.548   6.139 -1.4457  1.4616 -0.0994
 7057TIP3    H242587   4.342   3.523   6.231  0.6576 -0.5809  2.0944
 7058TIP3   OH242588   2.424   3.431  16.355  0.7040 -0.7956  0.1352
 7058TIP3    H142589   2.395   3.465  16.440 -0.0075 -0.8165 -0.0994
 7058TIP3    H242590   2.490   3.494  16.325 -0.4928  0.2983 -0.2281
 7059TIP3   OH242591   2.308   4.982   2.583  0.0287 -0.7902  0.2972
 7059TIP3    H142592   2.266   5.068   2.580  0.1806 -0.7244 -0.0759
 7059TIP3    H242593   2.398   5.001   2.611  0.0840 -0.8180  0.1393
 7060TIP3   OH242594   5.417   1.609   3.305  0.2712  0.3819  0.0703
 7060TIP3    H142595   5.445   1.699   3.324  2.7097  0.1952 -2.4460
 7060TIP3    H242596   5.346   1.619   3.242 -0.0621  0.5628  0.4702
 7061TIP3   OH242597   4.746   5.904  16.209  0.0261 -0.5586 -0.7184
 7061TIP3    H142598   4.700   5.872  16.286 -1.1658  0.7036 -0.8838
 7061TIP3    H242599   4.831   5.935  16.242 -1.5457  2.6085  0.6181
 7062TIP3   OH242600   1.101   5.202  15.862 -0.7912  0.0512  0.1790
 7062TIP3    H142601   1.146   5.235  15.940  0.4758  0.3696 -0.6745
 7062TIP3    H242602   1.170   5.164  15.808 -1.7297 -0.6195 -0.5666
 7063TIP3   OH242603   2.846   6.027  13.907 -0.2810  0.5994 -0.2827
 7063TIP3    H142604   2.820   6.105  13.857  0.1305  0.7683 -0.2411
 7063TIP3    H242605   2.900   5.977  13.846 -0.4785  0.3867 -0.2818
 7064TIP3   OH242606   2.578   4.854   4.363  0.3854  0.1755 -0.0723
 7064TIP3    H142607   2.564   4.905   4.443  0.9398 -0.0555  0.1742
 7064TIP3    H242608   2.523   4.897   4.298  0.4487  0.7740  0.2632
 7065TIP3   OH242609   5.271   3.684   5.428 -0.8783  0.0842  0.6732
 7065TIP3    H142610   5.364   3.697   5.448 -0.4467  0.9542 -1.7498
 7065TIP3    H242611   5.240   3.770   5.402 -1.7848 -0.6729 -0.7847
 7066TIP3   OH242612   5.945   6.570   0.141  0.4157 -0.0165 -0.2649
 7066TIP3    H142613   5.888   6.609   0.075  0.6685  0.8854  0.0436
 7066TIP3    H242614   6.024   6.546   0.092 -0.1416 -1.1010 -0.6566
 7067TIP3   OH242615   0.845   2.708   3.334  0.3692  0.7982 -0.9419
 7067TIP3    H142616   0.911   2.640   3.322  0.4955  0.7918 -0.2491
 7067TIP3    H242617   0.894   2.790   3.329  0.0830  0.8793 -2.6586
 7068TIP3   OH242618   5.364   4.502   5.488 -0.1661 -0.0520  0.4690
 7068TIP3    H142619   5.285   4.491   5.541 -1.5743  1.4174 -1.2561
 7068TIP3    H242620   5.422   4.432   5.517 -1.8368 -0.7352  2.2603
 7069TIP3   OH242621   6.725   6.187  15.929 -0.0514 -0.0746  0.1428
 7069TIP3    H142622   6.675   6.128  15.873  1.5261 -0.4838 -0.8576
 7069TIP3    H242623   6.666   6.261  15.944 -0.8065 -0.3535 -1.3749
 7070TIP3   OH242624   3.513   2.121   6.002  0.3715 -0.0494  0.2746
 7070TIP3    H142625   3.444   2.061   6.027 -0.5696  1.7463  2.1564
 7070TIP3    H242626   3.588   2.097   6.057 -0.2645  0.9981  1.6189
 7071TIP3   OH242627   5.791   1.731  16.135  0.2763  0.4162 -0.2162
 7071TIP3    H142628   5.778   1.794  16.064  2.1443  2.2884  1.0348
 7071TIP3    H242629   5.807   1.785  16.212  0.0320 -1.5986  1.2786
 7072TIP3   OH242630   3.484   3.159   2.970  0.5066  0.6090  0.0627
 7072TIP3    H142631   3.548   3.156   3.040  0.8646  1.8934 -0.1931
 7072TIP3    H242632   3.502   3.241   2.924 -0.1972  0.1409 -1.0751
 7073TIP3   OH242633   2.687   0.718   2.851  0.4433  0.3305 -0.4523
 7073TIP3    H142634   2.757   0.717   2.917  0.8485 -0.8876 -0.8996
 7073TIP3    H242635   2.701   0.800   2.803  0.9830  0.5532  0.0731
 7074TIP3   OH242636   1.328   5.104  15.735 -0.1429  0.6855  0.3300
 7074TIP3    H142637   1.350   5.043  15.806 -0.1218 -1.6861 -1.6324
 7074TIP3    H242638   1.412   5.131  15.699 -0.1556 -1.7109 -1.6719
 7075TIP3   OH242639   6.199   1.691  11.220  0.3759 -0.1107 -0.1246
 7075TIP3    H142640   6.231   1.725  11.136 -1.8062 -1.6117 -1.6283
 7075TIP3    H242641   6.197   1.596  11.208 -0.9200 -0.2767  1.2551
 7076TIP3   OH242642   3.646   6.555  17.096  0.0017  0.3310  0.6327
 7076TIP3    H142643   3.684   6.573  17.010  0.4776  2.6025  1.2942
 7076TIP3    H242644   3.600   6.635  17.119 -2.0350 -1.0636  1.5214
 7077TIP3   OH242645   1.909   6.482   3.871 -0.3609  0.2291  0.2158
 7077TIP3    H142646   1.824   6.514   3.902  0.4042  3.1881 -0.5233
 7077TIP3    H242647   1.971   6.549   3.899  1.7466 -1.8987  0.7395
 7078TIP3   OH242648   3.504   6.245   3.963  0.5439  0.4411  0.0866
 7078TIP3    H142649   3.558   6.173   3.997  2.1873  1.3367 -0.5775
 7078TIP3    H242650   3.418   6.230   4.002  0.4359 -2.7506 -1.2491
 7079TIP3   OH242651   4.728   4.967   0.246  0.0181  0.0922 -0.2474
 7079TIP3    H142652   4.648   4.916   0.237 -0.3184  0.9348 -2.3483
 7079TIP3    H242653   4.799   4.904   0.233 -0.2055 -1.0173  3.4392
 7080TIP3   OH242654   5.958   6.510  12.069  0.2032 -0.3144 -0.4167
 7080TIP3    H142655   6.024   6.579  12.062 -1.5037  1.3461 -0.5137
 7080TIP3    H242656   5.923   6.519  12.158 -0.1079 -1.0008 -0.4617
 7081TIP3   OH242657   2.827   1.884   1.134  0.5131  0.3828 -0.7189
 7081TIP3    H142658   2.817   1.832   1.213 -0.6777  0.2984 -0.9098
 7081TIP3    H242659   2.749   1.863   1.082 -0.9847  3.7652  0.0177
 7082TIP3   OH242660   6.533   3.952   1.392 -0.8068 -0.2409  0.1975
 7082TIP3    H142661   6.573   4.033   1.423 -0.5220 -0.4329  0.3362
 7082TIP3    H242662   6.544   3.956   1.296 -0.0699 -0.4855  0.2633
 7083TIP3   OH242663   3.299   5.869   4.252  0.5110 -0.2924 -0.3183
 7083TIP3    H142664   3.383   5.860   4.297  0.7003 -1.1746 -0.8187
 7083TIP3    H242665   3.236   5.886   4.321  1.2736  1.5735 -0.0531
 7084TIP3   OH242666   5.511   4.396  12.674  0.8952 -0.3161  0.3341
 7084TIP3    H142667   5.417   4.406  12.657  0.8670 -0.1175  0.5998
 7084TIP3    H242668   5.551   4.472  12.632  0.8689 -0.0547  0.7780
 7085TIP3   OH242669   4.995   4.724  13.994  0.1526 -0.1666 -0.5354
 7085TIP3    H142670   5.025   4.663  13.926 -3.4149 -1.8447 -0.7294
 7085TIP3    H242671   5.063   4.720  14.061  2.6974 -0.1013 -2.9837
 7086TIP3   OH242672   2.597   4.256  17.162 -0.1819  0.1856 -0.2547
 7086TIP3    H142673   2.507   4.222  17.157  0.9760 -2.8122 -1.4772
 7086TIP3    H242674   2.590   4.346  17.130 -2.6621 -0.1786 -0.8467
 7087TIP3   OH242675   2.033   3.806   4.681 -0.2059  0.0449 -0.3867
 7087TIP3    H142676   1.975   3.851   4.620  0.1806  0.2295 -0.6261
 7087TIP3    H242677   2.107   3.777   4.627 -0.9269 -1.7918 -0.4321
 7088TIP3   OH242678   2.014   4.067  16.406  0.2104  0.2316  0.6791
 7088TIP3    H142679   1.959   3.998  16.441 -0.2385 -0.1983 -0.8479
 7088TIP3    H242680   2.011   4.136  16.473 -2.3414  0.3043  0.5608
 7089TIP3   OH242681   4.403   5.627   6.320  0.3864  0.7882 -0.5601
 7089TIP3    H142682   4.472   5.605   6.382 -1.0166  1.7593  1.4027
 7089TIP3    H242683   4.334   5.564   6.337  1.1516 -0.8623 -3.2521
 7090TIP3   OH242684   0.628   4.059   4.025 -0.2547 -0.1522  0.0109
 7090TIP3    H142685   0.719   4.031   4.024  0.0128  0.6506  0.6784
 7090TIP3    H242686   0.603   4.065   3.933  1.2340  2.3403 -0.2733
 7091TIP3   OH242687   4.396   0.172   2.546  0.1915  0.1922 -0.1580
 7091TIP3    H142688   4.445   0.090   2.539 -1.3588 -0.7236 -0.4817
 7091TIP3    H242689   4.369   0.175   2.638 -1.1854 -0.5110 -0.5309
 7092TIP3   OH242690   4.092   1.805  14.667 -0.0168 -0.1841 -0.2453
 7092TIP3    H142691   4.057   1.743  14.603 -1.0525  1.4630 -1.3133
 7092TIP3    H242692   4.069   1.891  14.633 -0.8287  0.7490  2.4660
 7093TIP3   OH242693   0.163   2.682   3.208 -0.3287 -0.2647 -0.0774
 7093TIP3    H142694   0.120   2.710   3.288 -1.5767 -0.3319 -0.7018
 7093TIP3    H242695   0.256   2.684   3.228 -0.6569 -1.0322  1.6113
 7094TIP3   OH242696   0.993   2.546  14.742  0.0402 -0.6407 -0.5283
 7094TIP3    H142697   0.936   2.620  14.723  2.7002  1.2438 -1.4182
 7094TIP3    H242698   1.001   2.545  14.838 -2.4804 -1.7597 -0.2843
 7095TIP3   OH242699   2.612   1.829  16.892  0.0404 -0.7805  0.1740
 7095TIP3    H142700   2.522   1.858  16.910 -0.5337 -1.8591 -0.9295
 7095TIP3    H242701   2.658   1.842  16.976 -1.2902 -0.7917  0.9186
 7096TIP3   OH242702   3.133   1.579  11.508  0.3791 -0.4266  0.3822
 7096TIP3    H142703   3.204   1.613  11.453 -0.2241  0.1756 -0.0296
 7096TIP3    H242704   3.177   1.548  11.587  0.9755  1.0265  0.6349
 7097TIP3   OH242705   0.141   3.986   2.396  0.3986  0.1734 -0.0948
 7097TIP3    H142706   0.202   3.914   2.377 -1.4606 -1.3798 -0.3247
 7097TIP3    H242707   0.197   4.064   2.399  2.5035 -1.2971  0.4186
 7098TIP3   OH242708   1.602   3.368   4.556  0.3469  0.3769  0.0014
 7098TIP3    H142709   1.696   3.374   4.571  0.1034  3.4554  0.8155
 7098TIP3    H242710   1.581   3.448   4.508 -1.7909 -0.4232 -0.4232
 7099TIP3   OH242711   5.441   6.325  16.098  0.0806 -0.4626 -0.4484
 7099TIP3    H142712   5.497   6.380  16.154  0.3531 -1.5788  0.3987
 7099TIP3    H242713   5.354   6.331  16.137 -0.7954  2.5074 -2.6528
 7100TIP3   OH242714   1.983   6.609   2.970 -0.6058  0.1272  0.1391
 7100TIP3    H142715   1.963   6.596   3.063  0.5944 -1.5900  0.1889
 7100TIP3    H242716   2.026   6.528   2.944 -1.2330  0.4617 -2.0139
 7101TIP3   OH242717   5.253   0.544   4.319  0.1394  0.3776 -0.3623
 7101TIP3    H142718   5.319   0.507   4.260  1.1081 -0.2873  1.1029
 7101TIP3    H242719   5.215   0.468   4.363  1.1789  1.0066  1.6844
 7102TIP3   OH242720   3.894   5.369  11.703 -0.3183  0.3363  0.3756
 7102TIP3    H142721   3.861   5.281  11.691 -1.3675  0.7812 -0.0666
 7102TIP3    H242722   3.871   5.415  11.623  0.9757  0.7887  0.2456
 7103TIP3   OH242723   2.607   1.064   5.599  0.5271  0.0968  0.5674
 7103TIP3    H142724   2.541   1.020   5.653  0.1011 -0.7502 -0.6173
 7103TIP3    H242725   2.609   1.154   5.633 -2.2536  0.5312 -0.2305
 7104TIP3   OH242726   0.882   0.712  12.635 -0.6554  0.0955 -0.1840
 7104TIP3    H142727   0.803   0.742  12.590 -0.1724 -1.0185 -1.8458
 7104TIP3    H242728   0.950   0.716  12.567  0.2011 -1.1707  0.5995
 7105TIP3   OH242729   0.405   5.248   5.142 -1.1671 -0.1110  0.0853
 7105TIP3    H142730   0.490   5.243   5.098 -2.1401  0.2480 -1.8718
 7105TIP3    H242731   0.397   5.165   5.188 -0.3663 -0.7242 -0.8633
 7106TIP3   OH242732   5.046   5.814  13.881 -0.1623  0.5839  0.7471
 7106TIP3    H142733   5.059   5.724  13.912 -1.2487  0.3509  0.5508
 7106TIP3    H242734   5.022   5.804  13.789  0.7634  1.1453  0.4341
 7107TIP3   OH242735   6.320   2.662  13.743  0.6955 -0.9531  0.7763
 7107TIP3    H142736   6.270   2.721  13.799 -0.4256 -0.9126 -0.2601
 7107TIP3    H242737   6.316   2.702  13.656  1.8982 -1.3401  0.5365
 7108TIP3   OH242738   0.906   4.022   5.268 -0.1527  0.3175  0.8521
 7108TIP3    H142739   0.952   3.956   5.321  1.3619  1.3769  0.8843
 7108TIP3    H242740   0.972   4.053   5.206 -1.2007  0.9353  0.0395
 7109TIP3   OH242741   0.966   4.683   2.002  0.4139  0.1189  0.0384
 7109TIP3    H142742   1.017   4.717   1.929 -0.1837 -0.2510 -0.5566
 7109TIP3    H242743   0.877   4.715   1.986 -0.0051 -1.1076 -0.1408
 7110TIP3   OH242744   2.564   3.049   5.591  0.3237  0.0544 -0.0047
 7110TIP3    H142745   2.625   3.103   5.541 -0.0516 -1.1475 -1.8151
 7110TIP3    H242746   2.477   3.080   5.565  0.0912 -1.7283 -1.4832
 7111TIP3   OH242747   4.243   6.071  15.919 -0.2035  0.7470 -0.6742
 7111TIP3    H142748   4.327   6.107  15.946 -0.3508  1.1536 -0.7472
 7111TIP3    H242749   4.196   6.055  16.001  0.7367 -1.4415 -0.5381
 7112TIP3   OH242750   3.883   0.827   0.032 -0.0675  0.0828 -0.2198
 7112TIP3    H142751   3.808   0.849   0.087  0.2697  0.6071  0.0407
 7112TIP3    H242752   3.910   0.741   0.062 -2.0036 -1.1503 -1.8973
 7113TIP3   OH242753   5.915   4.608  14.127  0.3935 -0.0094  0.0860
 7113TIP3    H142754   5.969   4.683  14.150  0.6985  0.5705 -2.4367
 7113TIP3    H242755   5.977   4.540  14.100 -0.0125 -0.1751 -0.4463
 7114TIP3   OH242756   3.577   0.408   4.297  1.2064  1.0201  0.0032
 7114TIP3    H142757   3.671   0.392   4.302  1.1198 -0.1522 -1.5489
 7114TIP3    H242758   3.563   0.437   4.206 -0.3565 -1.9998 -0.7787
 7115TIP3   OH242759   2.653   3.053   5.848  0.7617 -0.2017  0.2291
 7115TIP3    H142760   2.604   3.066   5.766  0.2610 -0.1568  0.5357
 7115TIP3    H242761   2.586   3.033   5.913  0.9918  1.6507  1.0440
 7116TIP3   OH242762   0.742   1.442   2.773 -0.1876 -0.0482 -0.3898
 7116TIP3    H142763   0.711   1.531   2.795 -1.0948 -0.8076  1.5811
 7116TIP3    H242764   0.668   1.401   2.729 -0.2417 -0.2348 -0.1307
 7117TIP3   OH242765   4.399   4.796  12.014  0.2940 -0.1749  0.4427
 7117TIP3    H142766   4.311   4.797  11.977  0.5049 -0.2961 -0.0787
 7117TIP3    H242767   4.456   4.776  11.939  0.6499 -1.3359  1.0109
 7118TIP3   OH242768   1.350   5.940   2.711  0.0783  0.4814  0.1581
 7118TIP3    H142769   1.316   5.884   2.641 -0.1324  1.8185 -0.8318
 7118TIP3    H242770   1.321   6.028   2.687 -0.2438  0.9272  2.0925
 7119TIP3   OH242771   1.795   4.393  14.022  0.0853 -0.2426  0.2102
 7119TIP3    H142772   1.883   4.427  14.005  0.4238 -0.0755  2.2310
 7119TIP3    H242773   1.740   4.437  13.957  1.2425  0.8043 -0.0931
 7120TIP3   OH242774   0.365   5.102  10.921 -0.3139 -0.3672 -0.2102
 7120TIP3    H142775   0.386   5.169  10.856 -1.1793 -1.9407 -2.1333
 7120TIP3    H242776   0.418   5.126  10.997  0.6274  1.5654 -1.4344
 7121TIP3   OH242777   2.892   2.921   4.799 -0.5581  0.4660 -0.0839
 7121TIP3    H142778   2.958   2.989   4.807 -0.5862  0.2956  1.6211
 7121TIP3    H242779   2.932   2.843   4.837 -0.3335 -0.6310 -2.4721
 7122TIP3   OH242780   0.677   4.264  11.434 -0.1924 -0.4730  0.3357
 7122TIP3    H142781   0.605   4.310  11.391  0.7424 -0.0556 -0.8092
 7122TIP3    H242782   0.668   4.287  11.526 -1.2487 -0.0516  0.1326
 7123TIP3   OH242783   5.183   5.744  14.579  0.5009  0.1168  0.0016
 7123TIP3    H142784   5.264   5.695  14.561  0.2218 -0.6934  0.9035
 7123TIP3    H242785   5.122   5.678  14.612 -0.3778  0.8130 -0.2302
 7124TIP3   OH242786   1.976   2.081   4.059 -0.2727  0.6743  0.6273
 7124TIP3    H142787   1.934   2.167   4.062  0.2095  0.9349  0.0454
 7124TIP3    H242788   1.993   2.060   4.151 -1.5693  0.6111  0.8540
 7125TIP3   OH242789   1.864   5.428   2.625 -0.2945  0.1602 -0.2210
 7125TIP3    H142790   1.906   5.393   2.547  0.9264 -1.5320  1.1704
 7125TIP3    H242791   1.784   5.376   2.634 -0.9633  1.0433 -0.8888
 7126TIP3   OH242792   3.629   3.718   1.118  0.7147  0.4515  0.0648
 7126TIP3    H142793   3.550   3.736   1.066 -0.9631  0.3404  2.5073
 7126TIP3    H242794   3.620   3.772   1.196  2.2154 -0.8675  1.1985
 7127TIP3   OH242795   0.164   1.785  11.998 -0.5937 -0.0745 -0.2915
 7127TIP3    H142796   0.085   1.733  12.017  0.1602 -1.1726 -0.1072
 7127TIP3    H242797   0.237   1.727  12.021  0.2817  1.7202  1.6619
 7128TIP3   OH242798   1.603   0.110   1.262  0.4726  0.5676  0.3625
 7128TIP3    H142799   1.575   0.174   1.196 -0.3748 -0.4744 -0.3105
 7128TIP3    H242800   1.537   0.040   1.257  1.7685 -0.6851  0.6222
 7129TIP3   OH242801   2.714   5.115   4.992 -1.3536 -0.1576  0.0491
 7129TIP3    H142802   2.683   5.203   5.014 -2.1227 -0.2213 -0.7491
 7129TIP3    H242803   2.634   5.063   4.986 -0.9636 -0.7105 -0.3869
 7130TIP3   OH242804   1.523   5.473   1.302 -0.3231  0.3339 -0.1826
 7130TIP3    H142805   1.512   5.531   1.377 -1.4998  0.8037 -0.7061
 7130TIP3    H242806   1.506   5.528   1.225 -0.1124 -0.3692 -0.7502
 7131TIP3   OH242807   0.076   5.859   4.805  0.2724 -0.1006  0.3421
 7131TIP3    H142808   0.150   5.807   4.836  0.6456 -0.9210 -1.8257
 7131TIP3    H242809   0.108   5.949   4.804  0.4568 -0.1425  1.6424
 7132TIP3   OH242810   2.882   2.024   4.239 -0.0802  0.1269  0.6032
 7132TIP3    H142811   2.857   1.949   4.293 -1.9030  1.5920  1.8442
 7132TIP3    H242812   2.865   1.995   4.149  1.4186 -1.7442  0.8825
 7133TIP3   OH242813   0.553   4.818   3.756 -0.3480 -0.4196  0.2725
 7133TIP3    H142814   0.541   4.908   3.725 -4.2554 -0.8615  0.1974
 7133TIP3    H242815   0.580   4.826   3.847 -2.7396  0.8594  0.8921
 7134TIP3   OH242816   0.852   2.054   2.168 -0.3873  0.0344 -0.9969
 7134TIP3    H142817   0.889   2.023   2.086  0.2950 -0.4075 -0.5294
 7134TIP3    H242818   0.890   1.997   2.235 -1.7232 -0.2568 -0.4757
 7135TIP3   OH242819   0.441   0.942  12.323 -0.0292  0.8267 -0.2135
 7135TIP3    H142820   0.409   0.930  12.413  0.6954 -1.5371 -0.2423
 7135TIP3    H242821   0.427   0.857  12.282  3.8763  0.4800 -1.0007
 7136TIP3   OH242822   6.767   3.803  10.755  0.2221 -0.2582 -0.3662
 7136TIP3    H142823   6.862   3.791  10.752  0.4114  1.5151 -2.1867
 7136TIP3    H242824   6.731   3.726  10.712  0.7673 -1.4463  1.2550
 7137TIP3   OH242825   0.118   2.807  16.220  0.8685  0.1253  0.6328
 7137TIP3    H142826   0.161   2.809  16.306 -1.1524  3.3353  1.6386
 7137TIP3    H242827   0.052   2.738  16.228  1.5519 -0.4832  1.1683
 7138TIP3   OH242828   4.482   6.028   2.899  0.8316 -0.7662  0.7606
 7138TIP3    H142829   4.495   5.940   2.862 -1.3499  0.2564 -2.6869
 7138TIP3    H242830   4.403   6.020   2.952  1.5326 -1.2242  1.7589
 7139TIP3   OH242831   1.311   0.311  16.760 -0.0369 -0.3973  0.1535
 7139TIP3    H142832   1.331   0.384  16.702 -0.9337  0.4086  0.8540
 7139TIP3    H242833   1.264   0.248  16.705  0.2444 -0.2014 -0.3083
 7140TIP3   OH242834   0.702   6.211   5.329 -0.1420 -0.4859  0.6922
 7140TIP3    H142835   0.779   6.199   5.385  1.2346  1.5881 -0.7059
 7140TIP3    H242836   0.736   6.205   5.240 -1.7566 -0.4411  0.0626
 7141TIP3   OH242837   3.870   6.527  12.413  0.4505  0.0039 -0.1996
 7141TIP3    H142838   3.895   6.618  12.433  0.5759 -0.3615  1.3609
 7141TIP3    H242839   3.951   6.487  12.380  0.6715  0.1721  0.1342
 7142TIP3   OH242840   2.413   5.215  14.749  0.0697 -0.4151 -0.2878
 7142TIP3    H142841   2.478   5.229  14.819  0.7892 -0.5834 -0.9194
 7142TIP3    H242842   2.389   5.304  14.722  2.1551 -0.3341 -1.9943
 7143TIP3   OH242843   4.376   1.355  14.682  0.4054  0.6022 -0.5955
 7143TIP3    H142844   4.345   1.269  14.653  0.3162  0.4604 -0.0828
 7143TIP3    H242845   4.438   1.382  14.614  0.4498  0.1278 -0.7486
 7144TIP3   OH242846   1.106   1.066   3.478 -0.1354  0.4617 -0.0920
 7144TIP3    H142847   1.078   0.998   3.417 -0.5938 -0.0059  0.6302
 7144TIP3    H242848   1.173   1.025   3.532  0.2806  0.8771 -0.2881
 7145TIP3   OH242849   1.145   1.494  16.263  1.0212  0.3841  0.6482
 7145TIP3    H142850   1.102   1.412  16.286  2.4051  0.2367  2.9215
 7145TIP3    H242851   1.074   1.553  16.238 -0.1649 -0.8855  0.9714
 7146TIP3   OH242852   1.749   2.831  15.625 -0.0304  0.3717 -0.9614
 7146TIP3    H142853   1.774   2.891  15.554  0.8115 -0.7628 -1.6379
 7146TIP3    H242854   1.825   2.828  15.682 -0.8254  1.5284  0.1896
 7147TIP3   OH242855   2.705   2.903  16.363 -0.3649  0.3141  0.2141
 7147TIP3    H142856   2.679   2.977  16.419  1.3273  1.4984 -0.5131
 7147TIP3    H242857   2.677   2.825  16.411 -1.4939  1.4086  1.3575
 7148TIP3   OH242858   5.996   3.703   5.172 -0.7401 -0.2630  0.2556
 7148TIP3    H142859   5.999   3.682   5.078  1.8001 -2.4997  0.7722
 7148TIP3    H242860   6.054   3.779   5.181 -1.7002  0.5226 -0.0945
 7149TIP3   OH242861   6.001   1.250   6.717 -0.1936  0.2712  0.1597
 7149TIP3    H142862   5.925   1.237   6.773  0.3925 -0.1680  0.8651
 7149TIP3    H242863   6.021   1.163   6.684 -0.9968  0.6477 -1.3496
 7150TIP3   OH242864   1.833   2.459  13.699 -0.8740  0.4885 -0.1903
 7150TIP3    H142865   1.849   2.549  13.726  0.2007 -0.2180  1.5920
 7150TIP3    H242866   1.762   2.429  13.757 -1.0496  0.1053 -0.6015
 7151TIP3   OH242867   2.682   4.782  16.881 -0.5981 -0.0248  0.3313
 7151TIP3    H142868   2.723   4.850  16.935 -1.2184 -2.3439  3.8400
 7151TIP3    H242869   2.731   4.785  16.799  1.0170  2.9624  1.3178
 7152TIP3   OH242870   0.529   0.761   1.736 -0.3157  0.0754 -0.5812
 7152TIP3    H142871   0.599   0.827   1.738 -0.3128  0.0460  1.3930
 7152TIP3    H242872   0.570   0.684   1.697  0.4734  0.3926 -0.3861
 7153TIP3   OH242873   3.366   2.766  14.431  0.0828 -0.2387  0.0966
 7153TIP3    H142874   3.370   2.672  14.452  0.2547 -0.4730 -0.9807
 7153TIP3    H242875   3.457   2.794  14.432  0.0056  0.0068  0.7782
 7154TIP3   OH242876   0.058   4.034   3.928 -0.1062 -0.7635  0.4878
 7154TIP3    H142877   0.030   4.042   3.837  0.4253  0.5512  0.4205
 7154TIP3    H242878   0.152   4.018   3.923  0.3238  1.4192  0.8096
 7155TIP3   OH242879   0.528   1.438   2.587 -0.3420 -0.5747 -0.1609
 7155TIP3    H142880   0.503   1.352   2.552 -2.1980 -0.9538  1.9472
 7155TIP3    H242881   0.447   1.489   2.584  0.2616  0.4259  0.4565
 7156TIP3   OH242882   5.035   6.178  12.802 -0.2281  0.3009  0.3748
 7156TIP3    H142883   5.064   6.114  12.868  0.0948  0.3082  0.2402
 7156TIP3    H242884   5.034   6.129  12.720  0.7451  0.6594  0.1409
 7157TIP3   OH242885   4.966   3.254   5.047  0.1303 -0.2049  0.7984
 7157TIP3    H142886   4.916   3.180   5.011  1.8957 -1.4184  0.7586
 7157TIP3    H242887   4.984   3.310   4.971 -3.5657  1.7541  1.2553
 7158TIP3   OH242888   5.900   6.780  12.617  0.0704  0.1240 -0.0436
 7158TIP3    H142889   5.818   6.733  12.600  0.4926  0.0161 -1.8824
 7158TIP3    H242890   5.934   6.739  12.697 -1.8056  0.3840  0.9315
 7159TIP3   OH242891   1.295   3.011   2.007  0.1682 -0.3898 -0.1693
 7159TIP3    H142892   1.389   3.025   2.015  0.0784 -0.2712  0.7094
 7159TIP3    H242893   1.286   2.944   1.939  0.7793  1.0281 -1.6743
 7160TIP3   OH242894   1.186   4.456  10.744  0.0577 -0.0337  0.0078
 7160TIP3    H142895   1.166   4.519  10.812  0.0150 -1.0173  0.9238
 7160TIP3    H242896   1.259   4.495  10.696 -0.3518  0.9665  0.1916
 7161TIP3   OH242897   4.033   6.386   2.837 -0.4955 -0.2715  0.3861
 7161TIP3    H142898   4.045   6.461   2.779 -3.3696  0.8144  1.1099
 7161TIP3    H242899   4.018   6.312   2.778  0.4724  0.0816 -0.3011
 7162TIP3   OH242900   0.526   4.812   2.671 -0.3263 -0.1776  0.0524
 7162TIP3    H142901   0.576   4.730   2.679  1.1797  0.6993 -0.2708
 7162TIP3    H242902   0.552   4.863   2.748 -1.0744  0.1081  0.1162
 7163TIP3   OH242903   5.987   0.668   1.191  0.2048  0.1687 -0.7091
 7163TIP3    H142904   5.949   0.701   1.272  1.3441 -2.4996  0.9743
 7163TIP3    H242905   5.914   0.666   1.130 -0.9949  0.8691  0.6669
 7164TIP3   OH242906   1.052   0.369  12.035  0.1349  0.1258  0.4659
 7164TIP3    H142907   0.970   0.319  12.040  1.0771 -1.3836  0.8913
 7164TIP3    H242908   1.095   0.353  12.118  2.3332 -1.6536 -0.9705
 7165TIP3   OH242909   2.881   6.740   1.268  0.1663  0.3206  0.1930
 7165TIP3    H142910   2.852   6.697   1.187  0.2898 -0.4810  0.5644
 7165TIP3    H242911   2.820   6.811   1.281 -0.9888 -0.6982  0.3951
 7166TIP3   OH242912   2.147   0.350   5.647 -0.0791 -0.3527  0.3091
 7166TIP3    H142913   2.112   0.306   5.724 -0.0810 -1.3565 -0.2486
 7166TIP3    H242914   2.198   0.423   5.681 -0.1961 -0.7086  1.2510
 7167TIP3   OH242915   6.768   5.537   2.925  0.1918  0.4344 -0.3458
 7167TIP3    H142916   6.823   5.598   2.973 -1.2032  1.2983  0.1923
 7167TIP3    H242917   6.727   5.591   2.857  0.9196 -0.4449 -1.5110
 7168TIP3   OH242918   1.849   6.365  12.542 -0.5555 -0.4217 -0.2820
 7168TIP3    H142919   1.792   6.358  12.619 -1.3408  1.6435 -0.6579
 7168TIP3    H242920   1.898   6.446  12.556  2.2656 -2.0904 -0.0255
 7169TIP3   OH242921   6.335   2.230  15.244  0.5527 -0.2122  0.3264
 7169TIP3    H142922   6.371   2.302  15.192 -0.4258 -0.4739 -0.7202
 7169TIP3    H242923   6.243   2.228  15.221  0.1842 -0.5889  1.7913
 7170TIP3   OH242924   4.655   5.838   1.998 -0.1057  0.0641  0.4374
 7170TIP3    H142925   4.660   5.798   2.085  1.3514 -0.1240  0.2848
 7170TIP3    H242926   4.638   5.930   2.015  2.0481  0.3687  1.0040
 7171TIP3   OH242927   5.038   4.934  13.382  0.4005  0.2294 -0.3790
 7171TIP3    H142928   5.115   4.896  13.423  0.4043  0.1999 -0.4138
 7171TIP3    H242929   4.964   4.894  13.427  0.4011 -0.0775 -0.6504
 7172TIP3   OH242930   1.752   2.732  13.475 -0.4272 -0.4545  1.3230
 7172TIP3    H142931   1.738   2.665  13.408 -0.8123 -0.8865  1.8354
 7172TIP3    H242932   1.771   2.812  13.425 -2.0343 -0.4688  0.6650
 7173TIP3   OH242933   0.893   4.009   0.543  0.7067  0.5856  0.1859
 7173TIP3    H142934   0.859   4.030   0.630  1.7577  2.0389  0.2660
 7173TIP3    H242935   0.985   3.986   0.558  0.2091 -1.7766 -0.2225
 7174TIP3   OH242936   3.840   0.591  14.178  0.0666  0.8530 -0.1006
 7174TIP3    H142937   3.873   0.653  14.113 -0.4651 -1.5236 -2.6989
 7174TIP3    H242938   3.918   0.551  14.215  0.3173  0.5109 -0.9905
 7175TIP3   OH242939   0.109   1.763  12.897 -0.1961  0.5715 -0.1020
 7175TIP3    H142940   0.131   1.834  12.957  1.9601 -1.9046  2.1495
 7175TIP3    H242941   0.184   1.758  12.837 -0.7018  0.6706 -0.7547
 7176TIP3   OH242942   6.642   4.123   1.884  0.7515  0.0590 -0.1992
 7176TIP3    H142943   6.663   4.200   1.831 -0.7860  1.2961  0.9305
 7176TIP3    H242944   6.557   4.094   1.851  0.4968 -0.0799  0.5792
 7177TIP3   OH242945   2.112   6.391  14.237  0.4091  0.1489 -0.0547
 7177TIP3    H142946   2.101   6.416  14.329 -0.7606 -0.3563 -0.0456
 7177TIP3    H242947   2.090   6.298  14.235  1.5089 -0.1136 -0.6604
 7178TIP3   OH242948   5.161   1.518  15.263  0.3348 -0.5607  0.1555
 7178TIP3    H142949   5.244   1.532  15.218  0.7519 -0.3591  0.9823
 7178TIP3    H242950   5.109   1.596  15.243  0.8430 -0.0693  0.7433
 7179TIP3   OH242951   2.803   0.356  14.446  0.0795 -0.3560  0.6003
 7179TIP3    H142952   2.866   0.289  14.421  0.1834  0.3812 -1.1783
 7179TIP3    H242953   2.779   0.398  14.364 -1.5410  0.4191  1.4489
 7180TIP3   OH242954   4.078   3.273  16.868  0.0414  0.0010  0.1480
 7180TIP3    H142955   4.030   3.336  16.921  0.6957  1.2488 -0.7290
 7180TIP3    H242956   4.169   3.301  16.874 -0.0420  1.0477 -2.8330
 7181TIP3   OH242957   3.283   4.743  14.049  0.1480  0.1266  0.2835
 7181TIP3    H142958   3.376   4.765  14.052  0.2324  0.2923 -2.0325
 7181TIP3    H242959   3.280   4.655  14.011 -0.5612 -0.8094  2.4195
 7182TIP3   OH242960   6.705   2.996   4.405  0.1690  0.0495 -0.2726
 7182TIP3    H142961   6.729   2.911   4.443  1.3368  0.4103 -0.1608
 7182TIP3    H242962   6.655   2.974   4.327  1.0102 -0.7700 -0.5991
 7183TIP3   OH242963   5.713   3.261  15.054  0.5803 -0.2302  0.0065
 7183TIP3    H142964   5.648   3.274  14.984 -0.0437 -1.4716  0.3286
 7183TIP3    H242965   5.681   3.315  15.126 -0.6792 -1.5675  0.5071
 7184TIP3   OH242966   4.161   3.507   6.260 -0.6894  0.0664  0.5689
 7184TIP3    H142967   4.168   3.481   6.352  1.0843 -1.2602  0.0804
 7184TIP3    H242968   4.078   3.556   6.256 -2.2642 -2.3161  2.2711
 7185TIP3   OH242969   5.413   3.721  11.499 -0.2348  0.2719  0.0429
 7185TIP3    H142970   5.408   3.741  11.593 -0.4044 -0.7562  0.2603
 7185TIP3    H242971   5.423   3.806  11.457  2.3776  0.5968  1.1694
 7186TIP3   OH242972   5.334   2.491   1.602 -0.1395 -0.1820 -0.1749
 7186TIP3    H142973   5.352   2.562   1.663 -1.5218  0.0232  0.0125
 7186TIP3    H242974   5.298   2.535   1.525  1.6145 -0.4348 -1.1667
 7187TIP3   OH242975   1.360   1.952   3.010  0.0673  0.3308 -0.4807
 7187TIP3    H142976   1.332   1.978   3.098  0.5388 -1.0229  0.0927
 7187TIP3    H242977   1.372   1.857   3.017 -0.3937  0.1441 -2.1523
 7188TIP3   OH242978   0.747   6.381   0.566 -1.0928  0.5554  0.4491
 7188TIP3    H142979   0.693   6.309   0.534 -0.5958  0.5961 -0.5118
 7188TIP3    H242980   0.764   6.434   0.488  1.3477 -0.1320  0.4849
 7189TIP3   OH242981   2.774   6.172  11.084 -0.0946 -0.0192  0.3153
 7189TIP3    H142982   2.866   6.198  11.089  0.2653 -0.6822 -2.0609
 7189TIP3    H242983   2.725   6.252  11.104  1.0064  0.6850  0.2011
 7190TIP3   OH242984   0.222   6.034  14.260  0.3034  0.7369 -0.2391
 7190TIP3    H142985   0.301   5.982  14.270 -0.2682  0.0454  0.7608
 7190TIP3    H242986   0.167   6.010  14.335 -1.5124  0.0270 -1.7491
 7191TIP3   OH242987   5.224   2.989  13.631 -0.5826  0.4030 -0.3645
 7191TIP3    H142988   5.171   3.031  13.563  0.4628 -1.0700 -2.1424
 7191TIP3    H242989   5.302   3.044  13.639 -0.7170  0.5894 -0.3516
 7192TIP3   OH242990   0.519   1.381   6.157 -0.3043  0.2826 -0.2249
 7192TIP3    H142991   0.444   1.380   6.216 -0.1420 -0.1558 -0.0231
 7192TIP3    H242992   0.521   1.470   6.122  0.5351  0.9878  1.6109
 7193TIP3   OH242993   5.992   3.012   5.237 -0.9799 -0.1507 -0.0625
 7193TIP3    H142994   5.941   2.964   5.172 -1.9104 -0.3706  0.8148
 7193TIP3    H242995   5.931   3.078   5.271 -1.4341 -1.8924  2.6570
 7194TIP3   OH242996   5.327   5.320   2.617  0.8203  0.3580  0.0793
 7194TIP3    H142997   5.310   5.338   2.709  1.9953  1.6786  0.0693
 7194TIP3    H242998   5.316   5.226   2.608 -1.3182  0.4784  1.1240
 7195TIP3   OH242999   3.964   6.035   3.174 -0.0167 -0.6017  0.8241
 7195TIP3    H143000   4.024   6.101   3.209  0.3024 -0.3744 -0.1356
 7195TIP3    H243001   4.013   5.953   3.179 -0.0793 -0.6193  1.1721
 7196TIP3   OH243002   5.244   5.779   3.940 -0.0863  0.4685 -0.0732
 7196TIP3    H143003   5.316   5.786   3.878 -1.0624 -0.6109 -1.3556
 7196TIP3    H243004   5.247   5.861   3.990  1.1089  1.0558 -1.0930
 7197TIP3   OH243005   1.126   1.828   1.307  0.2100 -0.3283 -0.7808
 7197TIP3    H143006   1.115   1.746   1.354  0.5527 -0.0661 -0.2300
 7197TIP3    H243007   1.124   1.804   1.214 -2.6899 -0.5836 -0.7115
 7198TIP3   OH243008   1.025   0.590  17.171 -0.3515 -0.0065 -0.0637
 7198TIP3    H143009   1.087   0.586  17.244  0.6658  2.2134 -0.7554
 7198TIP3    H243010   1.079   0.575  17.093 -1.0001  0.0798 -0.5396
 7199TIP3   OH243011   2.417   6.459  15.366  0.1494  0.6279  0.3258
 7199TIP3    H143012   2.408   6.414  15.282  0.7396  1.9568 -0.4719
 7199TIP3    H243013   2.393   6.394  15.431 -0.9529 -0.2391 -0.9089
 7200TIP3   OH243014   0.247   1.483  14.467  0.6251 -0.2695  0.1965
 7200TIP3    H143015   0.195   1.461  14.390 -0.4462  0.6828  0.6333
 7200TIP3    H243016   0.182   1.496  14.537  1.4972  0.2527  0.9175
 7201TIP3   OH243017   1.015   5.044   2.957 -0.4412  0.0837  0.3886
 7201TIP3    H143018   0.989   5.082   2.873  1.2978  0.3269 -0.0501
 7201TIP3    H243019   1.007   5.116   3.019 -1.9292 -0.1491  0.4931
 7202TIP3   OH243020   6.147   2.394   5.128  0.5181  0.2263  0.1992
 7202TIP3    H143021   6.069   2.340   5.118  1.4630 -1.1910  0.2723
 7202TIP3    H243022   6.206   2.364   5.059  1.7847 -0.1282  1.4127
 7203TIP3   OH243023   3.462   5.116  11.932 -0.0131  0.0123 -0.1431
 7203TIP3    H143024   3.449   5.165  11.851  0.3391 -0.5917 -0.5805
 7203TIP3    H243025   3.557   5.103  11.936 -0.0741 -0.3617  0.1186
 7204TIP3   OH243026   1.512   5.968  13.633  0.0879  0.1509 -0.3475
 7204TIP3    H143027   1.500   5.876  13.609  0.2225  0.1323 -0.3413
 7204TIP3    H243028   1.518   6.014  13.550 -0.1276  0.1744 -0.3521
 7205TIP3   OH243029   1.401   3.552   2.196  0.5301 -0.0838 -0.0432
 7205TIP3    H143030   1.396   3.550   2.292  0.0659 -1.1004 -0.0760
 7205TIP3    H243031   1.494   3.546   2.177  0.5507 -0.9963  0.3303
 7206TIP3   OH243032   5.694   3.749   3.369  0.0275 -0.4270 -0.1675
 7206TIP3    H143033   5.714   3.655   3.376 -1.4081 -0.8602 -1.5778
 7206TIP3    H243034   5.776   3.789   3.342  0.7599 -1.2258  0.8401
 7207TIP3   OH243035   2.367   2.335  13.919 -0.0481  0.0724 -0.0986
 7207TIP3    H143036   2.356   2.373  14.006  2.4770  1.8111 -0.4837
 7207TIP3    H243037   2.352   2.407  13.859 -0.6565 -0.8528 -1.0798
 7208TIP3   OH243038   4.170   5.741   4.640  0.0738  0.4201 -0.0103
 7208TIP3    H143039   4.111   5.674   4.675  1.0459 -0.6864 -0.4370
 7208TIP3    H243040   4.170   5.810   4.706  2.5593 -2.0049  2.6515
 7209TIP3   OH243041   5.090   3.858   4.703  0.3872 -0.7027  0.1261
 7209TIP3    H143042   5.123   3.934   4.751  1.0774 -2.2817  2.2438
 7209TIP3    H243043   4.995   3.867   4.708  0.4485 -0.7226  1.6329
 7210TIP3   OH243044   1.523   4.346  14.392 -0.0852 -0.6623  0.2663
 7210TIP3    H143045   1.554   4.283  14.457 -2.7700 -1.3123  0.9875
 7210TIP3    H243046   1.438   4.312  14.364 -1.4091  2.4060  0.3902
 7211TIP3   OH243047   2.920   0.662  10.450  0.2110  0.0868 -0.2473
 7211TIP3    H143048   2.986   0.728  10.472 -0.3910  1.4409 -2.3647
 7211TIP3    H243049   2.948   0.629  10.364 -2.0106  0.8938 -1.3081
 7212TIP3   OH243050   2.114   1.260  15.475 -0.2948 -0.1947  0.5039
 7212TIP3    H143051   2.046   1.275  15.409 -0.1347  0.9798  0.5873
 7212TIP3    H243052   2.196   1.260  15.425 -0.0755  1.7997  0.8143
 7213TIP3   OH243053   1.406   2.578  12.911 -0.1879  0.4092 -0.2159
 7213TIP3    H143054   1.321   2.568  12.866 -0.9594  1.9383  0.8383
 7213TIP3    H243055   1.382   2.601  13.001  1.3504  1.3884 -0.0469
 7214TIP3   OH243056   5.882   4.523   0.375  0.1704  0.1396  0.4192
 7214TIP3    H143057   5.881   4.461   0.301  1.8368  1.5917 -0.8749
 7214TIP3    H243058   5.812   4.585   0.356 -0.8093 -0.7098  1.1824
 7215TIP3   OH243059   5.129   4.330  12.170 -0.2270  0.3671 -0.3941
 7215TIP3    H143060   5.065   4.373  12.113 -0.3331  1.2923  0.4118
 7215TIP3    H243061   5.080   4.257  12.209 -0.3248  0.0994 -0.9996
 7216TIP3   OH243062   3.355   0.080  12.797 -0.1030 -0.4145 -0.3526
 7216TIP3    H143063   3.275   0.078  12.745 -0.5201 -0.5712  0.2939
 7216TIP3    H243064   3.395  -0.006  12.782 -0.3368 -0.5446 -0.2306
 7217TIP3   OH243065   6.248   3.734   4.241 -0.0407  0.1225  0.6329
 7217TIP3    H143066   6.180   3.776   4.189  0.2643 -0.3835 -0.1868
 7217TIP3    H243067   6.208   3.722   4.328 -0.2662  1.7207  0.7728
 7218TIP3   OH243068   0.761   5.648  11.964 -0.7939 -0.2622 -0.5729
 7218TIP3    H143069   0.700   5.716  11.935 -1.1908 -0.1628  0.4413
 7218TIP3    H243070   0.843   5.694  11.976 -1.1604  0.1380  0.4907
 7219TIP3   OH243071   0.605   1.576  13.355  0.2625  0.0634  0.2391
 7219TIP3    H143072   0.659   1.525  13.295  0.4799  0.1832  0.3317
 7219TIP3    H243073   0.626   1.667  13.334  1.9737  0.1065  1.9554
 7220TIP3   OH243074   0.985   3.212   3.712 -0.4734 -0.2292  0.1467
 7220TIP3    H143075   1.041   3.279   3.752  1.1429 -1.6030  0.2150
 7220TIP3    H243076   1.010   3.211   3.619 -0.3979 -0.8460  0.1725
 7221TIP3   OH243077   4.805   3.006  13.353  0.1139 -0.0163  0.1214
 7221TIP3    H143078   4.802   2.957  13.435  0.0097 -1.3409 -0.6630
 7221TIP3    H243079   4.898   3.019  13.335  0.1518 -0.1787  0.1990
 7222TIP3   OH243080   0.850   4.302  17.117 -0.2600  0.0835 -0.0796
 7222TIP3    H143081   0.804   4.219  17.107  0.8414 -1.0143  3.1688
 7222TIP3    H243082   0.781   4.367  17.128 -1.1093 -0.7896 -0.1751
 7223TIP3   OH243083   0.085   6.283   1.207 -0.2395 -0.0175  0.2808
 7223TIP3    H143084   0.064   6.212   1.147  2.5871  0.1597 -0.9889
 7223TIP3    H243085   0.001   6.307   1.246 -1.5637 -2.5528 -0.9093
 7224TIP3   OH243086   2.477   1.281  10.907 -0.1708  0.5347 -0.0940
 7224TIP3    H143087   2.495   1.204  10.961 -1.1655 -0.5973 -1.3257
 7224TIP3    H243088   2.510   1.257  10.820 -0.9534  1.2935 -0.6064
 7225TIP3   OH243089   2.814   1.713   3.101 -0.2503 -0.0683  0.3257
 7225TIP3    H143090   2.843   1.637   3.152 -0.9506  0.3755  1.3925
 7225TIP3    H243091   2.882   1.779   3.117  0.5019 -0.5529 -0.8214
 7226TIP3   OH243092   5.935   3.272   3.337 -0.6770 -0.4615 -0.0560
 7226TIP3    H143093   5.931   3.196   3.279  2.8217 -1.8617  1.4335
 7226TIP3    H243094   5.933   3.235   3.425 -0.8380  1.3044  0.7010
 7227TIP3   OH243095   1.816   0.975   5.461 -0.1369  0.0614 -0.2225
 7227TIP3    H143096   1.789   0.886   5.439  1.1310 -0.4033  0.0592
 7227TIP3    H243097   1.874   0.964   5.537 -0.0327  1.1355 -0.1386
 7228TIP3   OH243098   0.446   1.113  12.776  0.6332  0.5106  0.2331
 7228TIP3    H143099   0.463   1.193  12.725  3.0458  0.4547  0.8949
 7228TIP3    H243100   0.358   1.086  12.749 -0.5287  3.7616  0.5128
 7229TIP3   OH243101   4.316   3.820  11.975  0.2279  0.0802  0.2881
 7229TIP3    H143102   4.265   3.825  12.056  0.4317  1.7344  0.3342
 7229TIP3    H243103   4.404   3.850  12.001  0.9853 -1.8316  0.0062
 7230TIP3   OH243104   1.008   4.671  17.191  0.2352  0.7403  0.2700
 7230TIP3    H143105   0.984   4.698  17.102  1.0488  1.4510  0.2607
 7230TIP3    H243106   1.065   4.595  17.179 -0.8398 -0.0657  0.2405
 7231TIP3   OH243107   2.211   1.841   1.961 -0.2172  0.1985  0.2983
 7231TIP3    H143108   2.277   1.801   2.018  0.2145  1.7789  0.9172
 7231TIP3    H243109   2.146   1.878   2.021 -2.9302 -3.3093 -0.3021
 7232TIP3   OH243110   1.323   4.332  11.271  0.2000  0.2592  0.7480
 7232TIP3    H143111   1.263   4.377  11.211 -1.5455 -0.2251  2.1010
 7232TIP3    H243112   1.352   4.255  11.223 -1.5029 -0.3385  0.6225
 7233TIP3   OH243113   5.322   0.168   4.213 -0.1792  0.0841 -0.6688
 7233TIP3    H143114   5.228   0.183   4.210 -0.2193 -0.0117  0.1828
 7233TIP3    H243115   5.348   0.194   4.301  0.7651  1.1252 -1.2426
 7234TIP3   OH243116   2.631   4.511  11.419  0.1270 -0.2029  0.3955
 7234TIP3    H143117   2.547   4.530  11.378  2.5939  0.9905 -4.5165
 7234TIP3    H243118   2.653   4.591  11.465 -1.4385 -0.5565  1.7953
 7235TIP3   OH243119   3.824   0.195   4.514 -0.2496 -0.2519 -0.8638
 7235TIP3    H143120   3.853   0.248   4.588 -1.8013 -0.5009 -0.0661
 7235TIP3    H243121   3.730   0.183   4.528 -0.5573 -0.3188 -2.8581
 7236TIP3   OH243122   5.885   4.723  14.608  0.4759 -0.0718  0.2284
 7236TIP3    H143123   5.900   4.629  14.602  1.6186  0.2007 -1.3070
 7236TIP3    H243124   5.908   4.745  14.699  1.2176 -1.0912  0.2927
 7237TIP3   OH243125   4.126   1.815  13.410  0.5805  0.5080  1.0379
 7237TIP3    H143126   4.119   1.725  13.379 -3.2392  0.9962  0.1853
 7237TIP3    H243127   4.156   1.808  13.500 -0.0248 -1.6601  1.0822
 7238TIP3   OH243128   6.495   4.894   1.789 -0.0486  0.2994  0.2094
 7238TIP3    H143129   6.564   4.904   1.724  0.5371  0.4574  0.8441
 7238TIP3    H243130   6.541   4.862   1.867 -1.0424 -1.8441 -0.0666
 7239TIP3   OH243131   2.389   1.156  11.883  0.5877  0.1480  0.0884
 7239TIP3    H143132   2.458   1.099  11.847  0.3641 -0.7145  0.9811
 7239TIP3    H243133   2.315   1.097  11.896  0.6400  0.4478  1.8579
 7240TIP3   OH243134   2.165   3.247   3.316  0.4788 -0.0313  0.1420
 7240TIP3    H143135   2.256   3.275   3.317  0.9981 -1.7204  0.4742
 7240TIP3    H243136   2.115   3.329   3.318  1.9626  0.8565  1.4283
 7241TIP3   OH243137   3.966   1.957   4.540  0.8331 -0.0725 -0.2423
 7241TIP3    H143138   3.959   1.957   4.635  2.0101 -0.3922 -0.1465
 7241TIP3    H243139   4.037   1.896   4.520  0.7345  0.1359 -1.3107
 7242TIP3   OH243140   4.511   2.315  14.360 -0.7168 -0.4470  0.9390
 7242TIP3    H143141   4.515   2.373  14.283  0.3056 -1.5564  0.1555
 7242TIP3    H243142   4.500   2.375  14.434 -1.4271  0.6524 -0.0353
 7243TIP3   OH243143   5.708   1.162   2.194  0.3384 -0.0155 -0.2365
 7243TIP3    H143144   5.724   1.085   2.249 -0.0479  0.0615 -0.0158
 7243TIP3    H243145   5.729   1.236   2.250  2.0959  0.0078 -0.9062
 7244TIP3   OH243146   5.209   3.789  11.982 -0.0345 -0.0416 -0.1432
 7244TIP3    H143147   5.138   3.840  11.943  0.2680  0.9822  0.6298
 7244TIP3    H243148   5.239   3.842  12.056  0.5422 -1.1591  0.4395
 7245TIP3   OH243149   5.554   6.025   4.107  0.1117 -0.5747  0.0343
 7245TIP3    H143150   5.554   6.016   4.012 -0.7137 -1.7544  0.1445
 7245TIP3    H243151   5.645   6.047   4.128  0.3369 -0.4599 -1.0019
 7246TIP3   OH243152   2.188   6.250  12.462  0.0412 -0.3756 -0.5775
 7246TIP3    H143153   2.260   6.302  12.427 -1.0706  0.4781 -1.6590
 7246TIP3    H243154   2.168   6.289  12.547  1.3818 -1.1369  0.0940
 7247TIP3   OH243155   5.799   4.553   3.655 -0.0281 -0.4558  0.4803
 7247TIP3    H143156   5.767   4.488   3.717  0.9327 -0.8735  0.5607
 7247TIP3    H243157   5.894   4.552   3.667  0.2236 -0.8964 -1.3312
 7248TIP3   OH243158   2.611   4.743   4.099  0.0866  0.4628  1.0311
 7248TIP3    H143159   2.622   4.744   4.194  0.9264  0.0801  0.9439
 7248TIP3    H243160   2.517   4.734   4.085  0.1460 -1.6304  1.8376
 7249TIP3   OH243161   0.651   2.717   1.129  0.0000  0.0081 -0.5115
 7249TIP3    H143162   0.661   2.699   1.036  0.0891 -1.1000 -0.2944
 7249TIP3    H243163   0.690   2.641   1.173 -0.6160  0.2146  0.4225
 7250TIP3   OH243164   6.680   0.207   0.356 -0.0701  0.6289  0.0392
 7250TIP3    H143165   6.706   0.238   0.269 -2.6706  1.4051 -0.5163
 7250TIP3    H243166   6.749   0.147   0.383  0.8789  0.5735 -2.4670
 7251TIP3   OH243167   0.869   3.435  11.224 -0.2506 -0.6738 -0.5134
 7251TIP3    H143168   0.906   3.520  11.248 -2.5242  0.2704 -0.2949
 7251TIP3    H243169   0.827   3.403  11.304  0.7656 -2.1446 -0.5256
 7252TIP3   OH243170   1.634   4.882   5.531  0.3261  0.5294  0.4224
 7252TIP3    H143171   1.558   4.836   5.565 -0.6534 -0.0299 -2.4288
 7252TIP3    H243172   1.618   4.974   5.552 -1.3604  0.4695 -0.5641
 7253TIP3   OH243173   6.138   1.861  17.100 -0.0676 -0.1412  0.1749
 7253TIP3    H143174   6.135   1.940  17.047 -0.5589 -0.9290 -0.9796
 7253TIP3    H243175   6.213   1.812  17.065  0.1024 -0.2894  0.7385
 7254TIP3   OH243176   5.657   6.124  11.713 -0.6188  0.0926  0.0828
 7254TIP3    H143177   5.708   6.198  11.680 -1.8838  1.2627  0.6725
 7254TIP3    H243178   5.709   6.047  11.691  0.2460  1.0826 -1.4480
 7255TIP3   OH243179   2.569   1.749  15.769  0.2091  0.1120 -0.0554
 7255TIP3    H143180   2.474   1.759  15.774  0.2625  1.0956 -0.8219
 7255TIP3    H243181   2.591   1.692  15.843 -1.1916 -1.6536 -0.9516
 7256TIP3   OH243182   5.192   2.743  11.599  0.3348  0.7466 -0.3886
 7256TIP3    H143183   5.121   2.706  11.651  0.6904  1.3987  0.5746
 7256TIP3    H243184   5.158   2.745  11.510 -0.6919  0.6355 -0.0016
 7257TIP3   OH243185   2.695   2.800  12.624 -0.1567  0.2125  0.6493
 7257TIP3    H143186   2.677   2.808  12.530  0.0893 -2.2904  0.3531
 7257TIP3    H243187   2.772   2.855  12.639  0.4854 -0.2542 -0.8379
 7258TIP3   OH243188   1.257   4.109  11.561  0.3363 -0.4064 -0.7936
 7258TIP3    H143189   1.328   4.170  11.543 -1.5748  1.8319 -0.9757
 7258TIP3    H243190   1.299   4.036  11.607  2.6433  1.0910 -0.4474
 7259TIP3   OH243191   3.620   4.492   5.879  0.6918  0.1390 -0.6257
 7259TIP3    H143192   3.619   4.443   5.962 -1.1049  0.9189 -0.1592
 7259TIP3    H243193   3.662   4.576   5.901  1.3213 -0.1283 -0.7971
 7260TIP3   OH243194   2.011   4.371  17.190  0.0802  0.3598  0.3342
 7260TIP3    H143195   2.092   4.419  17.173  0.7832 -0.4266  1.3358
 7260TIP3    H243196   2.036   4.307  17.257 -0.8292 -1.3535 -0.9301
 7261TIP3   OH243197   3.919   1.461  15.366  0.3231  0.0705  0.9453
 7261TIP3    H143198   3.884   1.378  15.334  1.7181 -0.2134  0.1244
 7261TIP3    H243199   4.014   1.449  15.367  0.5583  1.7602  0.4686
 7262TIP3   OH243200   3.394   5.336  14.715  0.2126 -0.3952 -0.1095
 7262TIP3    H143201   3.423   5.257  14.669  3.1086  0.1251  0.6908
 7262TIP3    H243202   3.466   5.355  14.776 -1.8215  1.1064  1.8958
 7263TIP3   OH243203   4.387   0.107  12.683  0.1605 -0.2346 -0.2539
 7263TIP3    H143204   4.298   0.118  12.714  0.8066  0.1265  1.5138
 7263TIP3    H243205   4.433   0.186  12.711  1.0401 -0.4072 -1.1576
 7264TIP3   OH243206   1.003   3.837   4.523  0.1228  0.1956 -0.8694
 7264TIP3    H143207   0.955   3.808   4.600 -0.4491 -1.9685 -1.9958
 7264TIP3    H243208   1.083   3.877   4.558 -0.1927 -0.6255  0.8492
 7265TIP3   OH243209   0.743   2.254  16.187  0.1529 -0.4200 -0.4433
 7265TIP3    H143210   0.710   2.217  16.269 -0.1268 -0.8586 -0.7587
 7265TIP3    H243211   0.670   2.305  16.152  0.3820  0.0479 -0.2542
 7266TIP3   OH243212   6.138   6.435   1.310  0.3116 -0.7834  0.2610
 7266TIP3    H143213   6.204   6.495   1.276 -0.4883 -1.4871 -2.6193
 7266TIP3    H243214   6.067   6.491   1.340  0.9644 -0.1714  0.6767
 7267TIP3   OH243215   4.584   0.617   0.539 -0.1969  0.3768  0.0603
 7267TIP3    H143216   4.679   0.630   0.530 -0.1460 -0.5774 -0.9578
 7267TIP3    H243217   4.546   0.657   0.461 -0.6730  1.1514  0.6887
 7268TIP3   OH243218   3.684   1.144   2.050  0.2616  0.9041  0.4261
 7268TIP3    H143219   3.603   1.130   2.002 -1.1020  2.6811  2.1111
 7268TIP3    H243220   3.751   1.155   1.983 -0.8331 -0.8146 -0.9824
 7269TIP3   OH243221   2.820   0.715  14.201  0.0821 -0.3390  0.1677
 7269TIP3    H143222   2.727   0.735  14.184 -0.2660  0.5719  2.8810
 7269TIP3    H243223   2.821   0.621  14.220 -0.1081 -0.5655 -0.8929
 7270TIP3   OH243224   0.333   3.979  15.880  0.3106  0.4005 -0.2617
 7270TIP3    H143225   0.362   3.953  15.967  0.5538  1.6475  0.0439
 7270TIP3    H243226   0.358   3.906  15.823  0.0989 -0.4485  0.7155
 7271TIP3   OH243227   2.046   3.232   0.078 -0.6180 -0.5332  0.3066
 7271TIP3    H143228   1.964   3.225   0.029  0.0226 -0.4958 -0.7833
 7271TIP3    H243229   2.110   3.188   0.023  0.5350  1.2976  0.1616
 7272TIP3   OH243230   3.021   3.750  11.904 -0.1075 -0.5001 -0.1282
 7272TIP3    H143231   2.960   3.773  11.834 -0.5023 -2.5063 -0.4782
 7272TIP3    H243232   2.965   3.743  11.982  0.3657  1.9744  0.4924
 7273TIP3   OH243233   0.885   5.298  16.737 -0.1462  0.1250 -0.0896
 7273TIP3    H143234   0.928   5.246  16.669 -1.5181  0.2657 -1.0947
 7273TIP3    H243235   0.949   5.303  16.807 -0.0973 -3.2404  0.2100
 7274TIP3   OH243236   2.765   1.563   1.855 -0.0548 -0.6264  0.5035
 7274TIP3    H143237   2.766   1.581   1.761  1.5059 -1.0772  0.4269
 7274TIP3    H243238   2.686   1.511   1.869  0.4355 -1.7283 -0.7789
 7275TIP3   OH243239   1.912   1.252   1.249  1.0792 -0.4794  0.2776
 7275TIP3    H143240   1.994   1.244   1.298  0.5271 -1.3044  1.0856
 7275TIP3    H243241   1.897   1.163   1.215  0.9505 -0.1363 -0.5604
 7276TIP3   OH243242   0.679   0.190  16.619 -0.1529  0.3287  0.2566
 7276TIP3    H143243   0.647   0.209  16.707  1.4451 -0.9617  1.1347
 7276TIP3    H243244   0.763   0.234  16.614  0.5233 -0.9700 -0.0341
 7277TIP3   OH243245   4.537   2.021  15.859  0.5681  0.2695 -0.0096
 7277TIP3    H143246   4.604   2.057  15.801  0.1071  0.9677 -0.1218
 7277TIP3    H243247   4.537   2.079  15.935  0.5983 -0.1587  0.3181
 7278TIP3   OH243248   1.420   4.801   4.195  0.7388  0.1573 -0.6576
 7278TIP3    H143249   1.342   4.854   4.208  0.2942 -0.6343 -0.0950
 7278TIP3    H243250   1.486   4.863   4.162  0.0804  0.9514 -0.4874
 7279TIP3   OH243251   5.584   4.910  11.955  0.1165  0.2819  0.2357
 7279TIP3    H143252   5.512   4.863  11.912 -1.5599  0.2843  2.9028
 7279TIP3    H243253   5.615   4.851  12.023  0.8159  1.3722  0.8834
 7280TIP3   OH243254   1.870   2.275  15.842 -0.2240 -0.2815  0.0262
 7280TIP3    H143255   1.877   2.245  15.933  0.1076 -0.2016  0.0278
 7280TIP3    H243256   1.852   2.368  15.848 -0.1380 -0.2640  0.0086
 7281TIP3   OH243257   1.029   6.058   2.955 -0.4263 -0.1971 -0.0876
 7281TIP3    H143258   0.934   6.070   2.946 -0.5623 -1.4456 -0.3807
 7281TIP3    H243259   1.067   6.131   2.907 -1.2199 -1.3538 -2.5560
 7282TIP3   OH243260   1.665   4.212  13.260  0.5013 -0.1059  0.0607
 7282TIP3    H143261   1.692   4.154  13.330 -0.5502 -0.6364  0.0377
 7282TIP3    H243262   1.614   4.281  13.303 -0.3202 -0.5452 -0.1956
 7283TIP3   OH243263   0.971   0.874   2.326 -0.1852 -0.1697 -0.2412
 7283TIP3    H143264   1.029   0.918   2.263 -1.3529 -1.1632 -2.0603
 7283TIP3    H243265   0.901   0.938   2.342 -1.2512 -0.8826 -1.9639
 7284TIP3   OH243266   3.622   0.916  15.849 -0.3666 -0.0230 -0.9402
 7284TIP3    H143267   3.595   0.836  15.805 -2.8208  1.0356 -1.4368
 7284TIP3    H243268   3.648   0.888  15.937  0.0147 -1.5001 -1.5055
 7285TIP3   OH243269   1.599   6.673   1.781  0.4124 -0.2027 -0.0505
 7285TIP3    H143270   1.605   6.667   1.686 -0.4127  2.5721 -0.2944
 7285TIP3    H243271   1.512   6.707   1.798  0.6084 -0.5260  1.7108
 7286TIP3   OH243272   6.309   2.645   3.789  0.1398 -0.2639 -0.4855
 7286TIP3    H143273   6.322   2.557   3.754  1.9924 -0.5499  0.8070
 7286TIP3    H243274   6.397   2.674   3.813 -0.5367  1.6764 -0.2610
 7287TIP3   OH243275   4.063   3.645   4.087  0.3847  0.5058  0.1127
 7287TIP3    H143276   4.103   3.561   4.107 -0.2519  0.5138  1.5033
 7287TIP3    H243277   3.974   3.624   4.060  0.3938  0.6888 -0.0613
 7288TIP3   OH243278   0.584   0.052  17.106  0.3215  0.5177 -0.0069
 7288TIP3    H143279   0.521   0.061  17.178 -1.6326 -1.0996 -1.4695
 7288TIP3    H243280   0.603  -0.041  17.101 -0.0791  0.5067 -1.9805
 7289TIP3   OH243281   6.180   0.641   1.947 -0.0810 -0.0282  0.2811
 7289TIP3    H143282   6.147   0.594   1.870 -1.8945  2.7330 -0.6910
 7289TIP3    H243283   6.270   0.663   1.924  0.8967 -3.1195  0.8488
 7290TIP3   OH243284   2.020   0.589   0.735 -0.2474  0.1886 -0.1653
 7290TIP3    H143285   2.028   0.645   0.658  1.0218 -0.1950 -0.3230
 7290TIP3    H243286   1.934   0.548   0.725  0.3944 -0.7794 -2.0237
 7291TIP3   OH243287   4.423   4.084   5.215 -0.1337 -0.2560  0.0814
 7291TIP3    H143288   4.344   4.116   5.171  0.3185  0.4617 -0.2083
 7291TIP3    H243289   4.487   4.073   5.144 -0.1622 -1.4613  0.2199
 7292TIP3   OH243290   0.918   5.979   2.589 -0.0738 -0.5959  0.2790
 7292TIP3    H143291   1.007   5.975   2.553 -0.8038 -0.7142 -1.5696
 7292TIP3    H243292   0.903   5.891   2.624  0.4151 -0.6641  0.3276
 7293TIP3   OH243293   1.133   5.562   5.815  0.1964  0.0275  0.3547
 7293TIP3    H143294   1.128   5.652   5.785 -0.1828  0.1803  0.8750
 7293TIP3    H243295   1.062   5.517   5.769  1.3996 -0.3772 -1.1588
 7294TIP3   OH243296   0.407   6.039   2.944 -0.0248 -0.6221 -0.4939
 7294TIP3    H143297   0.495   6.068   2.920  0.9815 -3.0039  0.1043
 7294TIP3    H243298   0.397   5.954   2.901 -1.5616 -0.9258  0.4185
 7295TIP3   OH243299   1.779   5.036   1.965  0.4517  0.3965 -0.2698
 7295TIP3    H143300   1.825   5.116   1.993 -0.4890  0.9980 -0.4305
 7295TIP3    H243301   1.734   5.006   2.043  1.3342 -0.3533 -0.0412
 7296TIP3   OH243302   5.682   4.888  15.618  0.6240  0.2682 -0.1217
 7296TIP3    H143303   5.700   4.918  15.707 -1.3956  2.0329 -0.2399
 7296TIP3    H243304   5.640   4.963  15.576 -2.3218 -1.9144 -1.2565
 7297TIP3   OH243305   1.147   3.263  14.038 -0.3283  0.3999 -0.0549
 7297TIP3    H143306   1.171   3.173  14.018  0.3241  0.4796  0.3711
 7297TIP3    H243307   1.167   3.312  13.958  2.5337  0.7657  0.8268
 7298TIP3   OH243308   5.361   0.628   5.553  0.0032  0.2936  0.0505
 7298TIP3    H143309   5.354   0.598   5.462  1.5732  0.7782 -0.2505
 7298TIP3    H243310   5.421   0.703   5.549 -0.2285  0.5664  1.4299
 7299TIP3   OH243311   3.341   5.503   3.375  0.1096 -0.3138 -0.1744
 7299TIP3    H143312   3.298   5.584   3.403 -0.2323 -0.6656  0.3464
 7299TIP3    H243313   3.356   5.455   3.456  0.3346 -0.7605 -0.4788
 7300TIP3   OH243314   5.858   1.372   5.524 -0.1671 -0.0579  0.1974
 7300TIP3    H143315   5.850   1.305   5.456 -0.8297 -0.8008  0.9920
 7300TIP3    H243316   5.803   1.444   5.494 -0.7992 -0.5589  0.1403
 7301TIP3   OH243317   2.272   1.491   1.303 -0.5485 -0.0841  1.1271
 7301TIP3    H143318   2.302   1.401   1.319  1.1018  0.4465  1.0523
 7301TIP3    H243319   2.177   1.483   1.294 -0.0469 -2.5212 -3.4237
 7302TIP3   OH243320   5.277   3.981   4.327 -0.0938 -0.8516  0.3232
 7302TIP3    H143321   5.305   4.008   4.415  0.4616 -0.0364 -0.0920
 7302TIP3    H243322   5.187   3.953   4.338  0.1857 -1.4193  1.2876
 7303TIP3   OH243323   5.234   6.310   1.991  0.4683  0.7623  0.4243
 7303TIP3    H143324   5.220   6.318   1.897  1.1656 -0.9632  0.1483
 7303TIP3    H243325   5.182   6.380   2.029 -1.1706  0.4422 -1.1534
 7304TIP3   OH243326   1.874   5.613  16.744 -0.2778 -0.0714  0.1702
 7304TIP3    H143327   1.798   5.621  16.685 -1.7249 -2.3218  1.6446
 7304TIP3    H243328   1.869   5.524  16.777  3.3548 -0.4073 -0.0715
 7305TIP3   OH243329   5.808   0.623  11.911 -0.0008  0.1243  0.7720
 7305TIP3    H143330   5.748   0.551  11.930  0.3808 -0.2015  0.7621
 7305TIP3    H243331   5.813   0.672  11.993 -1.4315  1.0148  0.3310
 7306TIP3   OH243332   5.271   2.381   3.897  0.4481  0.0739  0.4606
 7306TIP3    H143333   5.199   2.338   3.943  2.2439 -0.0412  3.2896
 7306TIP3    H243334   5.293   2.320   3.826 -0.6204 -1.0385  1.0506
 7307TIP3   OH243335   1.549   1.483   0.375 -0.1877 -0.3467  0.4376
 7307TIP3    H143336   1.598   1.506   0.453  0.5759  0.0734 -0.1622
 7307TIP3    H243337   1.554   1.560   0.319 -0.8986 -0.5708  0.0567
 7308TIP3   OH243338   2.542   5.320   4.726 -0.1506 -0.2210 -0.0036
 7308TIP3    H143339   2.515   5.246   4.673  0.8480 -1.2519  0.8859
 7308TIP3    H243340   2.476   5.327   4.795  0.0510 -0.6413  0.2338
 7309TIP3   OH243341   3.666   5.323  13.913  0.2287  0.2104 -0.0233
 7309TIP3    H143342   3.746   5.292  13.955  1.1790  2.5282 -0.0228
 7309TIP3    H243343   3.650   5.261  13.842  0.2127 -2.1090  1.9529
 7310TIP3   OH243344   1.628   3.807   6.835 -0.0969  0.0519 -0.2612
 7310TIP3    H143345   1.723   3.795   6.842  0.0575  0.1272 -2.0835
 7310TIP3    H243346   1.591   3.744   6.897  1.1161 -0.6149 -0.2071
 7311TIP3   OH243347   1.991   1.494   0.156  0.3094 -0.1395  0.3802
 7311TIP3    H143348   1.903   1.497   0.193  0.0754 -2.5483  0.1335
 7311TIP3    H243349   2.030   1.579   0.178 -2.5772  1.5684 -0.8898
 7312TIP3   OH243350   0.944   3.499  14.854  0.3911  0.2342  0.9379
 7312TIP3    H143351   0.978   3.589  14.851  1.1392 -0.0902 -0.7057
 7312TIP3    H243352   0.904   3.492  14.941  0.7221  2.0098  1.2635
 7313TIP3   OH243353   0.263   0.191  13.870  0.1428  0.1569  0.2367
 7313TIP3    H143354   0.204   0.182  13.795  0.7006 -1.4436 -0.0420
 7313TIP3    H243355   0.305   0.276  13.857 -0.8973  0.5729 -0.4439
 7314TIP3   OH243356   6.694   0.422  12.102 -0.3941  0.1425  0.1715
 7314TIP3    H143357   6.599   0.433  12.093 -0.3072 -0.9597 -2.3630
 7314TIP3    H243358   6.715   0.346  12.048  2.1740  1.3341 -0.5867
 7315TIP3   OH243359   4.568   2.147  12.752 -0.2426 -0.4163 -0.3662
 7315TIP3    H143360   4.572   2.086  12.826 -2.2157 -0.6196 -0.3975
 7315TIP3    H243361   4.596   2.231  12.788 -0.1502 -0.7482  0.3385
 7316TIP3   OH243362   1.814   4.431  16.174 -0.0218  0.0522 -0.0629
 7316TIP3    H143363   1.867   4.498  16.131 -0.2261 -0.1049 -0.5647
 7316TIP3    H243364   1.860   4.349  16.156 -1.1215 -0.2405 -1.6029
 7317TIP3   OH243365   5.936   5.239   3.800 -0.0074 -0.6203 -0.4717
 7317TIP3    H143366   5.954   5.312   3.860 -1.2548 -0.8829  0.2367
 7317TIP3    H243367   5.842   5.223   3.809  0.3530 -2.6682 -0.2024
 7318TIP3   OH243368   1.588   5.669  16.605 -0.4462 -0.0639  0.2902
 7318TIP3    H143369   1.560   5.578  16.605 -1.1706  0.1634  1.1184
 7318TIP3    H243370   1.533   5.712  16.670  2.6087  0.1353  2.8440
 7319TIP3   OH243371   6.142   1.895  14.503 -0.3444 -0.0430  0.2110
 7319TIP3    H143372   6.093   1.959  14.555 -0.6380 -0.1409  0.0579
 7319TIP3    H243373   6.075   1.850  14.451  0.0846  1.1425 -1.4286
 7320TIP3   OH243374   4.219   1.500  16.528 -0.1756  0.0805 -0.2925
 7320TIP3    H143375   4.189   1.503  16.619  1.6953  1.2844  0.3281
 7320TIP3    H243376   4.310   1.470  16.535  0.1361  0.6841 -1.7132
 7321TIP3   OH243377   5.218   1.054   0.549  1.2388 -0.0277  0.1956
 7321TIP3    H143378   5.235   1.118   0.480  0.6505 -2.4607 -2.3139
 7321TIP3    H243379   5.301   1.009   0.561  1.1450 -0.1121  0.5238
 7322TIP3   OH243380   3.302   5.540  13.369 -0.7955  1.1084 -0.1910
 7322TIP3    H143381   3.232   5.605  13.380 -0.8618  0.8634  0.8277
 7322TIP3    H243382   3.340   5.531  13.456 -0.2012  0.4382 -0.5209
 7323TIP3   OH243383   0.559   3.240   4.480  0.1039 -0.1408 -0.0751
 7323TIP3    H143384   0.561   3.234   4.575 -1.6734  0.1678 -0.0072
 7323TIP3    H243385   0.628   3.179   4.451 -0.2428 -1.2400  1.3616
 7324TIP3   OH243386   4.685   6.331  11.368 -0.2719 -0.1596  0.0236
 7324TIP3    H143387   4.681   6.241  11.400 -0.4335  0.4719  1.8178
 7324TIP3    H243388   4.762   6.368  11.411 -0.2510  0.5893 -0.6506
 7325TIP3   OH243389   4.984   4.661  12.723  0.3576  0.4721  0.2972
 7325TIP3    H143390   5.035   4.656  12.804 -0.9790 -0.2017  1.1205
 7325TIP3    H243391   4.901   4.617  12.744  0.5059 -0.8896 -1.8330
 7326TIP3   OH243392   6.405   0.108  13.833  0.2691  0.6635 -0.1718
 7326TIP3    H143393   6.471   0.166  13.796  1.1382 -1.2927 -1.7777
 7326TIP3    H243394   6.378   0.053  13.760 -1.4093 -0.1568  1.0391
 7327TIP3   OH243395   2.924   3.936  15.545 -0.2247  0.4864  0.2939
 7327TIP3    H143396   2.988   3.983  15.598 -0.2579 -0.9822  1.6766
 7327TIP3    H243397   2.961   3.936  15.457  2.3781 -1.5435  1.3291
 7328TIP3   OH243398   3.957   1.917   2.064 -0.0005  0.2585 -0.1079
 7328TIP3    H143399   3.912   1.947   1.985 -1.1514  1.3247  0.9304
 7328TIP3    H243400   3.910   1.960   2.136  0.7808 -1.0015  1.1769
 7329TIP3   OH243401   6.068   1.934   6.279 -0.2707  0.2773  0.3052
 7329TIP3    H143402   6.107   1.906   6.196 -0.1826 -0.4729  0.5930
 7329TIP3    H243403   6.048   1.852   6.324 -0.8800  0.6744  0.7636
 7330TIP3   OH243404   6.689   2.389   3.146  0.0924  0.0396 -0.5131
 7330TIP3    H143405   6.716   2.350   3.229  1.4067  0.3837 -0.7586
 7330TIP3    H243406   6.767   2.383   3.091 -0.6055  0.3091 -1.5414
 7331TIP3   OH243407   1.292   3.400   3.083  0.0350  0.1919  0.2631
 7331TIP3    H143408   1.240   3.369   3.008 -2.2122 -0.4694  2.0273
 7331TIP3    H243409   1.376   3.355   3.074 -0.9140 -1.4400 -0.7618
 7332TIP3   OH243410   2.169   6.111   1.656  0.6394  0.5272  0.2288
 7332TIP3    H143411   2.096   6.093   1.597 -0.4412 -0.3027  1.8055
 7332TIP3    H243412   2.142   6.187   1.706  1.2865  0.8290  0.1341
 7333TIP3   OH243413   6.685   3.287   4.211  0.0472 -0.0789 -0.0867
 7333TIP3    H143414   6.597   3.250   4.222  0.0687 -0.3135 -0.7033
 7333TIP3    H243415   6.712   3.260   4.123  0.1279  1.2884 -0.4828
 7334TIP3   OH243416   6.337   5.404  13.972  0.3010 -0.4954 -0.0171
 7334TIP3    H143417   6.349   5.460  14.049  2.0109  2.2837 -2.1985
 7334TIP3    H243418   6.244   5.380  13.975  0.2508 -0.1599  2.6800
 7335TIP3   OH243419   3.191   2.204   2.716  0.3187  0.1893 -0.3922
 7335TIP3    H143420   3.211   2.139   2.783  0.1826 -0.0382 -0.5685
 7335TIP3    H243421   3.238   2.173   2.638  2.3028  1.6360  0.1761
 7336TIP3   OH243422   6.497   1.573  16.191 -0.2600  0.3938  0.0013
 7336TIP3    H143423   6.526   1.617  16.111  0.5638  0.4230  0.3111
 7336TIP3    H243424   6.578   1.545  16.234 -0.7603 -1.8435 -0.4156
 7337TIP3   OH243425   4.843   3.669   2.756  0.7867 -0.0622  0.0912
 7337TIP3    H143426   4.855   3.647   2.664 -0.2141 -0.6178  0.0824
 7337TIP3    H243427   4.772   3.612   2.785  0.9481  0.2639  1.1493
 7338TIP3   OH243428   3.542   3.077  12.760 -0.3276 -0.3087 -0.4677
 7338TIP3    H143429   3.552   3.165  12.723  0.0669 -0.8459 -1.6750
 7338TIP3    H243430   3.448   3.067  12.774 -0.3056  0.5858  0.4046
 7339TIP3   OH243431   1.138   0.702   1.807  0.2481  0.5580  0.5755
 7339TIP3    H143432   1.042   0.699   1.809  0.2197  0.5004 -0.5673
 7339TIP3    H243433   1.164   0.618   1.769  0.7807  0.2993  1.5015
 7340TIP3   OH243434   3.348   5.864   1.331  0.1174  0.0199  1.0413
 7340TIP3    H143435   3.272   5.830   1.283  0.0605  0.2048  0.9993
 7340TIP3    H243436   3.424   5.833   1.282  0.0679 -0.1488  1.0719
 7341TIP3   OH243437   3.682   2.316   4.078 -0.1436 -0.3224 -0.5298
 7341TIP3    H143438   3.727   2.250   4.025  1.4423  0.6369 -0.4174
 7341TIP3    H243439   3.640   2.374   4.015 -0.0260 -0.3995 -0.6785
 7342TIP3   OH243440   6.522   4.731  16.731 -0.0825  0.5283 -0.8019
 7342TIP3    H143441   6.532   4.703  16.640  0.9427  2.7450 -1.4124
 7342TIP3    H243442   6.584   4.804  16.740  0.4095 -0.1752  1.9063
 7343TIP3   OH243443   1.717   6.152   2.079  0.2486 -0.3706  0.5002
 7343TIP3    H143444   1.787   6.209   2.047 -0.9313  1.7499  1.6082
 7343TIP3    H243445   1.646   6.165   2.017  0.3296 -1.4623  0.1651
 7344TIP3   OH243446   3.806   0.695   4.214  0.2842 -0.3826  0.0885
 7344TIP3    H143447   3.847   0.639   4.280 -1.9366 -1.8102  0.2792
 7344TIP3    H243448   3.794   0.779   4.258  4.2756  0.5781 -0.4223
 7345TIP3   OH243449   5.221   2.999  16.459  0.1163  0.3938 -0.1392
 7345TIP3    H143450   5.208   3.046  16.377  2.1152  1.3169  0.0453
 7345TIP3    H243451   5.282   2.928  16.438  0.6054  0.6047  0.5305
 7346TIP3   OH243452   4.880   5.671  16.143  0.5049  0.1011 -0.1748
 7346TIP3    H143453   4.838   5.757  16.144  1.4746  0.5937 -0.6490
 7346TIP3    H243454   4.935   5.672  16.064  0.3374 -1.0433 -0.3074
 7347TIP3   OH243455   1.444   6.316  13.102 -0.0430 -0.0429  0.4487
 7347TIP3    H143456   1.531   6.284  13.128 -0.2862  0.0322  1.3555
 7347TIP3    H243457   1.402   6.240  13.061  0.3306 -0.1634  0.2830
 7348TIP3   OH243458   2.283   2.342   0.112 -0.4645 -0.2695 -0.6336
 7348TIP3    H143459   2.229   2.420   0.097  0.0492  0.2035 -0.0431
 7348TIP3    H243460   2.220   2.276   0.143 -0.3131  1.1514  2.9430
 7349TIP3   OH243461   1.233   3.390  11.596 -0.4425 -0.3696 -0.3537
 7349TIP3    H143462   1.197   3.349  11.518 -1.2449 -0.3592  0.0046
 7349TIP3    H243463   1.251   3.317  11.655  1.8825 -0.5396 -1.2348
 7350TIP3   OH243464   2.166   4.621  16.647 -0.1342  0.3334  0.1315
 7350TIP3    H143465   2.195   4.532  16.625 -1.3715  0.0756 -0.4931
 7350TIP3    H243466   2.142   4.616  16.740  0.8155  0.2870  0.3771
 7351TIP3   OH243467   0.760   3.537  15.070 -0.4521  0.0755 -0.0970
 7351TIP3    H143468   0.815   3.613  15.090 -0.9642  0.3715  0.1983
 7351TIP3    H243469   0.697   3.533  15.142  1.0067 -2.0185  1.1296
 7352TIP3   OH243470   5.230   0.759   3.077 -0.9199  0.0665  0.1917
 7352TIP3    H143471   5.308   0.810   3.097 -1.0205  0.9641 -1.5477
 7352TIP3    H243472   5.264   0.679   3.037 -0.8893  0.6461 -0.9621
 7353TIP3   OH243473   6.660   2.335  11.692  0.0732 -0.1192  0.2647
 7353TIP3    H143474   6.670   2.308  11.783  2.7343 -0.1780  0.0041
 7353TIP3    H243475   6.628   2.425  11.696 -2.3776 -0.9915  1.1966
 7354TIP3   OH243476   1.666   2.871  16.924 -0.4931 -0.1351  0.1007
 7354TIP3    H143477   1.612   2.805  16.880 -0.7781  1.0122 -1.3099
 7354TIP3    H243478   1.609   2.947  16.933  0.1825  0.3163  0.6973
 7355TIP3   OH243479   0.201   0.437  16.963  0.2036  0.2650 -0.6673
 7355TIP3    H143480   0.278   0.416  16.909  0.5816  0.5920 -0.2574
 7355TIP3    H243481   0.177   0.526  16.937 -0.3780 -0.0425 -1.1938
 7356TIP3   OH243482   0.572   1.420  13.068 -0.0816  0.0141 -1.1458
 7356TIP3    H143483   0.625   1.392  13.143 -0.6975  0.1378 -0.6554
 7356TIP3    H243484   0.512   1.347  13.053 -0.8624  0.5448 -0.6549
 7357TIP3   OH243485   3.112   2.393   1.008 -0.3765 -0.6097 -0.2406
 7357TIP3    H143486   3.132   2.481   0.975  1.0261 -0.2666  1.4537
 7357TIP3    H243487   3.073   2.348   0.933 -0.5775  1.2676 -1.3038
 7358TIP3   OH243488   5.782   2.773  16.752 -0.0953  0.1524 -0.0983
 7358TIP3    H143489   5.741   2.757  16.666  0.0698 -0.4020 -0.0748
 7358TIP3    H243490   5.746   2.704  16.808  1.4739 -0.8430 -0.2762
 7359TIP3   OH243491   2.058   3.657  11.171 -0.1885 -0.3706  0.4812
 7359TIP3    H143492   2.071   3.752  11.168  1.8633 -0.6090  0.8444
 7359TIP3    H243493   2.022   3.636  11.085 -2.1175  0.9096  0.9357
 7360TIP3   OH243494   4.472   3.523  14.679 -0.1853  0.0718 -0.6304
 7360TIP3    H143495   4.479   3.541  14.773  0.8060 -0.6792 -0.5446
 7360TIP3    H243496   4.455   3.608  14.639 -0.6221  0.3948  0.2384
 7361TIP3   OH243497   2.313   4.222  17.156 -0.2859 -0.4762 -0.1215
 7361TIP3    H143498   2.282   4.218  17.246  0.9696 -0.8867  0.2940
 7361TIP3    H243499   2.271   4.148  17.112  0.7486 -1.5419  0.6529
 7362TIP3   OH243500   3.086   1.042  14.668 -0.6100 -0.2618 -0.0629
 7362TIP3    H143501   3.118   1.123  14.708 -2.7820  0.7342 -0.2831
 7362TIP3    H243502   3.130   1.038  14.583  0.1650  0.2172  0.3088
 7363TIP3   OH243503   4.877   6.700  15.969  0.7642  0.0062  0.0834
 7363TIP3    H143504   4.793   6.663  15.995  1.6263 -1.1656  1.2743
 7363TIP3    H243505   4.863   6.732  15.880 -0.2854 -2.3307 -0.6300
 7364TIP3   OH243506   5.248   0.363  11.579 -0.3314  0.3649 -0.2062
 7364TIP3    H143507   5.157   0.363  11.549 -0.2081 -2.3989 -0.6435
 7364TIP3    H243508   5.242   0.373  11.674 -1.1182 -0.1538 -0.1965
 7365TIP3   OH243509   2.556   2.275  12.120 -0.2499 -0.2509 -0.2552
 7365TIP3    H143510   2.479   2.261  12.175  0.4635 -2.1500  0.2994
 7365TIP3    H243511   2.595   2.188  12.110  2.0851  0.7455 -0.1429
 7366TIP3   OH243512   1.897   3.980   6.040 -0.4410  0.3229  0.8797
 7366TIP3    H143513   1.945   3.897   6.033 -2.5918 -1.0669  1.8817
 7366TIP3    H243514   1.817   3.965   5.989 -0.5427  2.0332  0.5222
 7367TIP3   OH243515   5.366   3.641   0.062  0.3374  0.2219  0.4601
 7367TIP3    H143516   5.417   3.716   0.093 -0.8851  1.4567 -0.4738
 7367TIP3    H243517   5.401   3.624  -0.026 -0.1459  0.4002  0.2345
 7368TIP3   OH243518   0.360   5.241   0.992 -0.4061 -0.1031  0.3734
 7368TIP3    H143519   0.441   5.233   1.042  0.4968 -0.1800 -1.0729
 7368TIP3    H243520   0.358   5.331   0.961 -1.8341  0.4428  1.9775
 7369TIP3   OH243521   1.200   5.068   6.352 -0.1730 -0.6782  0.4429
 7369TIP3    H143522   1.288   5.096   6.324 -0.4949  1.1735  1.2542
 7369TIP3    H243523   1.191   5.100   6.441 -1.9455 -0.2735  0.1361
 7370TIP3   OH243524   2.957   0.926  11.346 -0.0377 -0.2679 -0.3274
 7370TIP3    H143525   2.934   1.019  11.352 -0.5108 -0.3919 -0.1549
 7370TIP3    H243526   2.917   0.897  11.263 -1.6241 -0.7889  0.5985
 7371TIP3   OH243527   5.095   3.595  14.173  0.0901  0.5825  0.0094
 7371TIP3    H143528   5.051   3.633  14.097 -1.1127 -1.2393 -0.2408
 7371TIP3    H243529   5.076   3.654  14.245 -0.8497  1.0172 -0.5932
 7372TIP3   OH243530   0.330   5.834   1.658 -0.1774  0.5703 -0.3198
 7372TIP3    H143531   0.383   5.820   1.736 -1.0121 -0.1526  0.1301
 7372TIP3    H243532   0.390   5.873   1.594  0.8454 -0.0829  0.2323
 7373TIP3   OH243533   6.034   6.613  16.428  0.1838 -0.0573  0.2185
 7373TIP3    H143534   6.026   6.585  16.520 -1.8599 -0.8968 -0.1916
 7373TIP3    H243535   6.005   6.537  16.378  0.4408  0.7081 -1.0994
 7374TIP3   OH243536   3.062   5.951  15.785  0.4545 -0.3192  0.8166
 7374TIP3    H143537   3.153   5.923  15.778  0.7440  0.6075  0.7790
 7374TIP3    H243538   3.034   5.964  15.694 -0.9018 -4.2511  0.5894
 7375TIP3   OH243539   0.592   6.290  12.828  0.1928  0.1035  0.8021
 7375TIP3    H143540   0.569   6.326  12.914  1.1283 -0.0354  1.1159
 7375TIP3    H243541   0.671   6.237  12.844  0.6679  0.4850 -0.2286
 7376TIP3   OH243542   5.428   5.272   1.520  0.3148 -0.0696 -0.1365
 7376TIP3    H143543   5.355   5.222   1.483  0.3131 -0.0404 -0.1722
 7376TIP3    H243544   5.422   5.255   1.614 -1.7504  2.5576  0.2715
 7377TIP3   OH243545   5.454   2.968  15.297  0.1241 -0.2364 -0.0506
 7377TIP3    H143546   5.549   2.968  15.292  0.2080 -0.0478  1.3182
 7377TIP3    H243547   5.430   3.061  15.301 -0.1071 -0.2878 -0.2387
 7378TIP3   OH243548   4.387   1.413   0.161 -0.0886  0.1138  0.6933
 7378TIP3    H143549   4.451   1.458   0.107 -2.5379  0.2555 -2.2262
 7378TIP3    H243550   4.375   1.471   0.237  0.8261  1.6794 -0.3239
 7379TIP3   OH243551   2.831   3.849   5.875  0.2002 -0.3673  0.4016
 7379TIP3    H143552   2.753   3.849   5.821  0.6532  1.4462 -0.2867
 7379TIP3    H243553   2.799   3.835   5.964 -1.1156  2.2020  0.3759
 7380TIP3   OH243554   6.373   4.187   4.725  0.1406  0.2808  0.0217
 7380TIP3    H143555   6.350   4.256   4.663  0.5168 -0.0466 -0.4827
 7380TIP3    H243556   6.385   4.234   4.808 -0.7486  0.6618 -0.0594
 7381TIP3   OH243557   4.070   6.032   5.296  0.1345  0.1534 -1.0733
 7381TIP3    H143558   4.040   6.120   5.319  1.6642  1.0482 -2.3242
 7381TIP3    H243559   4.157   6.026   5.336 -0.4252 -1.2334 -0.0452
 7382TIP3   OH243560   4.207   4.801  13.107 -0.3238  0.2998  0.2109
 7382TIP3    H143561   4.159   4.723  13.135 -1.8516  1.5458  1.1688
 7382TIP3    H243562   4.205   4.797  13.011  0.0603 -1.0969  0.2533
 7383TIP3   OH243563   4.768   3.579  11.523  0.7182 -0.1167 -0.2031
 7383TIP3    H143564   4.809   3.493  11.514  0.5878 -0.3999  1.6832
 7383TIP3    H243565   4.736   3.599  11.436 -0.8376 -2.8024 -0.3083
 7384TIP3   OH243566   1.917   3.088   4.628  0.8246  0.0138 -0.0517
 7384TIP3    H143567   1.914   3.166   4.684  0.8266 -1.3988  1.9639
 7384TIP3    H243568   1.827   3.055   4.627  1.2054 -1.0868  0.7651
 7385TIP3   OH243569   5.444   5.291  17.120 -0.2530  0.2501 -0.2599
 7385TIP3    H143570   5.444   5.347  17.042  0.2926  1.6486  0.7243
 7385TIP3    H243571   5.429   5.352  17.193 -2.5242 -1.2752  0.5885
 7386TIP3   OH243572   3.845   5.885   0.063 -0.7454 -0.0972  0.5581
 7386TIP3    H143573   3.851   5.885  -0.033 -0.0278  1.1583  0.5826
 7386TIP3    H243574   3.927   5.926   0.091  0.0895 -2.5498  1.7999
 7387TIP3   OH243575   3.126   5.495  16.100 -0.4758 -0.2432 -0.0027
 7387TIP3    H143576   3.165   5.409  16.119 -1.5367 -0.9182 -0.7697
 7387TIP3    H243577   3.073   5.480  16.022 -0.2275  1.2620 -0.4750
 7388TIP3   OH243578   4.111   1.081   4.547 -0.2090 -0.6976  0.1354
 7388TIP3    H143579   4.152   1.030   4.617  0.0065 -1.1258 -0.3107
 7388TIP3    H243580   4.019   1.086   4.573  0.1897  0.6709  1.3891
 7389TIP3   OH243581   5.897   3.583   4.528  0.2366 -0.3230 -0.0126
 7389TIP3    H143582   5.979   3.558   4.485  0.6425  0.8249  0.0752
 7389TIP3    H243583   5.862   3.501   4.563  1.1649 -0.8769 -0.3718
 7390TIP3   OH243584   1.776   2.224  17.200 -0.0744  0.1778  0.1980
 7390TIP3    H143585   1.713   2.290  17.231  0.6945 -0.0826  2.4207
 7390TIP3    H243586   1.861   2.266  17.209  0.2173 -0.1020 -1.1490
 7391TIP3   OH243587   5.550   2.668  13.676 -0.2923  0.0157  0.5104
 7391TIP3    H143588   5.551   2.586  13.724  0.9101  0.2257  0.8593
 7391TIP3    H243589   5.591   2.731  13.736 -1.2313  0.8719  0.2631
 7392TIP3   OH243590   0.968   5.308   6.246 -0.2593  0.3475 -0.5538
 7392TIP3    H143591   0.943   5.252   6.173 -2.9981 -0.0231  0.6238
 7392TIP3    H243592   0.992   5.247   6.316 -0.1150  0.6739 -0.3161
 7393TIP3   OH243593   1.313   6.624  16.224  0.3697 -0.4817 -1.5029
 7393TIP3    H143594   1.297   6.533  16.247  0.1214  0.0692  0.6201
 7393TIP3    H243595   1.356   6.661  16.301  1.0146  1.0562 -2.5608
 7394TIP3   OH243596   4.697   4.178  17.199 -0.3695  0.0784 -0.2846
 7394TIP3    H143597   4.637   4.162  17.126  0.6462  0.0337 -1.1213
 7394TIP3    H243598   4.685   4.103  17.258  0.1328 -0.8239 -1.3179
 7395TIP3   OH243599   5.606   3.626  16.755  0.3016 -0.7802 -0.1325
 7395TIP3    H143600   5.676   3.586  16.807 -0.4000 -1.4448  0.3155
 7395TIP3    H243601   5.651   3.689  16.699  1.1021 -0.1586  1.1744
 7396TIP3   OH243602   0.382   2.822  12.636 -0.1036 -0.2287 -0.4368
 7396TIP3    H143603   0.371   2.917  12.626 -1.3184 -0.3780 -0.5943
 7396TIP3    H243604   0.426   2.811  12.720  0.2760  0.4866 -0.5383
 7397TIP3   OH243605   6.458   2.727   5.102 -0.2947 -0.2823 -0.1514
 7397TIP3    H143606   6.422   2.768   5.023 -1.7765 -0.8980  0.1746
 7397TIP3    H243607   6.382   2.715   5.159  0.6250 -0.6260  1.0238
 7398TIP3   OH243608   4.907   2.038  11.453 -0.2796 -0.2176 -0.0394
 7398TIP3    H143609   4.910   2.060  11.546 -1.4660 -1.3177  0.2670
 7398TIP3    H243610   4.972   2.096  11.413  0.6232 -0.1148  1.5386
 7399TIP3   OH243611   2.083   6.409  13.439 -0.2855  0.3691  0.7697
 7399TIP3    H143612   2.117   6.378  13.355  1.8740  2.0418  0.9722
 7399TIP3    H243613   1.990   6.424  13.424 -0.6908 -2.7676 -0.2864
 7400TIP3   OH243614   3.047   1.011  10.291  0.2444  0.3138 -0.3586
 7400TIP3    H143615   2.957   1.017  10.259  0.4983  1.5703 -0.8575
 7400TIP3    H243616   3.068   0.918  10.288 -0.7013  0.1258 -1.1955
 7401TIP3   OH243617   6.361   6.141   0.878 -0.1679  0.1186  0.4191
 7401TIP3    H143618   6.308   6.193   0.938 -1.6440  1.2477 -1.7938
 7401TIP3    H243619   6.298   6.108   0.813  1.7767  1.4814 -2.2670
 7402TIP3   OH243620   6.438   3.792  14.151  0.1432 -0.5262  0.4842
 7402TIP3    H143621   6.393   3.871  14.183  0.8579  0.3653 -0.6894
 7402TIP3    H243622   6.382   3.759  14.082  1.4277  0.7839 -1.2208
 7403TIP3   OH243623   6.564   5.610  15.821  0.3382 -0.3079 -0.1091
 7403TIP3    H143624   6.578   5.609  15.727  0.0320  0.2263 -0.1641
 7403TIP3    H243625   6.609   5.532  15.853 -0.1108 -0.8434 -0.7761
 7404TIP3   OH243626   5.039   3.043  16.166  0.3012 -0.1265  0.0372
 7404TIP3    H143627   4.999   2.970  16.119 -0.4575 -1.2616  2.3490
 7404TIP3    H243628   5.097   3.085  16.102  1.7045 -3.5038 -1.0004
 7405TIP3   OH243629   2.314   4.425   2.656  0.5533 -0.1646 -0.4297
 7405TIP3    H143630   2.235   4.376   2.679  1.2358 -0.7152  0.7515
 7405TIP3    H243631   2.386   4.376   2.696  1.5120  0.2782 -1.5741
 7406TIP3   OH243632   4.205   6.631  14.090 -0.9817  0.8345 -0.0372
 7406TIP3    H143633   4.237   6.676  14.012  0.3017  1.8240  1.0485
 7406TIP3    H243634   4.129   6.582  14.059 -0.0749  0.6584 -2.0519
 7407TIP3   OH243635   5.020   2.729  14.843 -0.3825  0.3892  0.1801
 7407TIP3    H143636   5.060   2.785  14.776  1.0893  0.3312  0.9728
 7407TIP3    H243637   5.041   2.773  14.926 -1.7216  0.1872  0.6327
 7408TIP3   OH243638   6.517   4.394   4.535  0.0327 -0.0815  0.5321
 7408TIP3    H143639   6.480   4.366   4.451 -0.2655  0.0369  0.6208
 7408TIP3    H243640   6.496   4.488   4.540  1.2816  0.2254  0.1015
 7409TIP3   OH243641   6.657   2.674   0.835  0.1795 -1.0221 -0.3783
 7409TIP3    H143642   6.718   2.631   0.775 -0.4685 -2.7498  0.1629
 7409TIP3    H243643   6.602   2.602   0.869 -1.5182  0.3678 -0.1326
 7410TIP3   OH243644   5.356   4.888   2.117  0.2778 -0.0674 -0.0506
 7410TIP3    H143645   5.300   4.950   2.070 -0.7236 -1.2356 -0.4275
 7410TIP3    H243646   5.317   4.803   2.099  0.9082 -0.6900  1.4934
 7411TIP3   OH243647   0.679   6.578  12.710 -0.5329 -0.3589 -0.2021
 7411TIP3    H143648   0.589   6.610  12.708 -0.2645  1.0262  4.2042
 7411TIP3    H243649   0.671   6.484  12.720 -1.4930 -0.2280  0.2879
 7412TIP3   OH243650   2.990   0.322   2.826  0.6934 -0.0623 -0.0477
 7412TIP3    H143651   2.997   0.298   2.919  0.0307  0.1248  0.0565
 7412TIP3    H243652   2.956   0.243   2.784  0.6227 -0.0209 -0.0680
 7413TIP3   OH243653   4.190   3.146   4.273 -0.1578  0.4361  0.4420
 7413TIP3    H143654   4.134   3.185   4.206  0.5378 -0.5452 -0.7146
 7413TIP3    H243655   4.262   3.106   4.225  0.3182 -0.3353  1.7655
 7414TIP3   OH243656   0.441   0.537  15.827  0.2358 -0.6237  0.0853
 7414TIP3    H143657   0.514   0.592  15.800  0.8430 -1.2135  0.5255
 7414TIP3    H243658   0.376   0.547  15.758 -0.2696  1.8093  0.8556
 7415TIP3   OH243659   1.590   3.377  13.774  0.2715  0.2978 -0.4756
 7415TIP3    H143660   1.566   3.292  13.738 -0.1248 -0.2548  1.0761
 7415TIP3    H243661   1.657   3.358  13.840 -0.4307  1.0820  0.4902
 7416TIP3   OH243662   0.424   4.897  10.749 -0.4284 -0.3095  0.1301
 7416TIP3    H143663   0.432   4.954  10.825  2.1350 -0.4176 -0.0030
 7416TIP3    H243664   0.350   4.839  10.769 -0.8291  0.7532  1.7904
 7417TIP3   OH243665   0.832   3.619  13.589  0.1682  0.3472  0.1081
 7417TIP3    H143666   0.740   3.595  13.577  0.8326 -2.7150  0.6541
 7417TIP3    H243667   0.847   3.609  13.683  1.4305 -0.7190 -0.1955
 7418TIP3   OH243668   1.049   5.014   1.141  0.6472 -0.1245 -0.7649
 7418TIP3    H143669   1.097   5.090   1.108 -0.2474  1.6835  1.9708
 7418TIP3    H243670   0.957   5.038   1.135  0.3429 -1.0550 -0.0240
 7419TIP3   OH243671   5.650   1.233  14.235 -0.4153  0.4541 -0.2402
 7419TIP3    H143672   5.606   1.151  14.258 -0.8405 -0.0620 -2.7640
 7419TIP3    H243673   5.645   1.285  14.315  1.0104 -2.4499  1.8643
 7420TIP3   OH243674   0.429   3.795   3.024  0.1252  0.0588 -0.0606
 7420TIP3    H143675   0.443   3.850   2.947  0.4981 -0.0455 -0.0688
 7420TIP3    H243676   0.335   3.778   3.025  0.1778 -0.2924 -0.7320
 7421TIP3   OH243677   4.945   5.967  14.360 -0.3831  0.0472  0.0169
 7421TIP3    H143678   4.953   5.887  14.412 -0.4344 -0.8310 -1.3034
 7421TIP3    H243679   4.853   5.990  14.366 -0.9779 -1.6482 -1.9709
 7422TIP3   OH243680   6.421   2.006   0.859 -0.6090 -0.4381 -0.2653
 7422TIP3    H143681   6.511   2.001   0.828 -1.5068 -0.7618 -2.8829
 7422TIP3    H243682   6.429   2.044   0.947  2.0107  0.0245 -0.6517
 7423TIP3   OH243683   3.640   0.711   5.803  0.2946  0.0034  0.4044
 7423TIP3    H143684   3.695   0.649   5.851 -0.7092 -1.5053 -0.3432
 7423TIP3    H243685   3.580   0.746   5.870  0.1917 -0.6042  0.6352
 7424TIP3   OH243686   4.943   0.246  15.541 -0.0491  0.1962 -0.1825
 7424TIP3    H143687   4.876   0.287  15.487 -1.2848 -1.3475  0.1225
 7424TIP3    H243688   4.981   0.318  15.591 -1.9574  1.0275  0.1402
 7425TIP3   OH243689   1.480   1.921  14.835  0.4161 -0.1432 -0.2232
 7425TIP3    H143690   1.545   1.975  14.879  0.6370 -0.8511  0.3465
 7425TIP3    H243691   1.399   1.970  14.842  0.2794 -0.5864  1.6947
 7426TIP3   OH243692   5.039   3.126   2.870 -0.5097 -0.4506  0.0437
 7426TIP3    H143693   4.984   3.121   2.792 -1.4560  1.1794  0.5845
 7426TIP3    H243694   5.128   3.110   2.837 -0.6736  1.9272 -1.6906
 7427TIP3   OH243695   4.419   5.846   4.846  0.0699  0.2237 -0.0475
 7427TIP3    H143696   4.371   5.775   4.888  1.3810 -0.6214  0.0207
 7427TIP3    H243697   4.389   5.925   4.891  1.0043 -0.5950  2.0519
 7428TIP3   OH243698   1.947   0.348   0.398  0.2339  0.1135  0.6629
 7428TIP3    H143699   1.889   0.341   0.475  2.9451  0.9790  2.8641
 7428TIP3    H243700   1.967   0.442   0.392  1.6952 -0.2181  0.2038
 7429TIP3   OH243701   4.814   5.528  17.185  0.4297  0.5965 -0.3534
 7429TIP3    H143702   4.766   5.544  17.104  0.3296  1.3436 -0.1571
 7429TIP3    H243703   4.825   5.433  17.189 -2.5048  0.2247  0.4169
 7430TIP3   OH243704   5.772   2.363   3.455  0.0208 -0.6057  0.0029
 7430TIP3    H143705   5.739   2.282   3.415  1.0362  0.6338 -3.5313
 7430TIP3    H243706   5.694   2.412   3.478 -0.6251 -0.7680 -1.7794
 7431TIP3   OH243707   3.138   1.152  13.411 -0.0525 -0.0653 -0.2023
 7431TIP3    H143708   3.084   1.199  13.347 -0.9571  1.0880  1.3583
 7431TIP3    H243709   3.110   1.188  13.495  0.5654 -2.1149  0.8967
 7432TIP3   OH243710   2.580   5.953   4.306 -0.3949  0.3898  0.5782
 7432TIP3    H143711   2.618   5.889   4.245 -0.1118 -0.1626  1.3269
 7432TIP3    H243712   2.507   5.991   4.257  0.6032  0.8804 -0.5812
 7433TIP3   OH243713   4.784   4.364  16.228 -0.4853 -0.1118  0.0961
 7433TIP3    H143714   4.837   4.287  16.208 -1.4406 -1.5149  2.7355
 7433TIP3    H243715   4.847   4.434  16.245  0.4060 -0.5529 -1.2852
 7434TIP3   OH243716   2.261   4.042   5.978 -0.2801 -0.0985  0.6225
 7434TIP3    H143717   2.351   4.067   5.999  0.6117 -1.8162 -1.0149
 7434TIP3    H243718   2.223   4.122   5.941  1.1451  0.1547 -0.3637
 7435TIP3   OH243719   5.269   3.986   3.604  0.0434  0.1760 -0.6209
 7435TIP3    H143720   5.200   4.004   3.540 -1.7527 -0.3492  1.0925
 7435TIP3    H243721   5.347   3.968   3.551 -1.5901 -1.1203 -2.6884
 7436TIP3   OH243722   1.690   5.792  14.545  0.5045  0.3461  0.0168
 7436TIP3    H143723   1.674   5.874  14.497 -0.2679  1.5320  2.2157
 7436TIP3    H243724   1.694   5.818  14.637  0.1025 -2.1224  0.7813
 7437TIP3   OH243725   6.391   5.547   2.915 -0.7449 -0.3883  0.5551
 7437TIP3    H143726   6.396   5.587   2.828 -0.8126 -1.4739  0.0404
 7437TIP3    H243727   6.321   5.594   2.959  1.9633  2.9452  1.4986
 7438TIP3   OH243728   1.526   4.387   2.132  0.3740  0.1710  0.1149
 7438TIP3    H143729   1.532   4.481   2.150 -1.3029  0.1965  0.6082
 7438TIP3    H243730   1.507   4.381   2.039  3.2598  0.2184 -0.5082
 7439TIP3   OH243731   5.825   1.437   5.823  0.6021 -0.2420 -0.2163
 7439TIP3    H143732   5.808   1.420   5.730  2.7853 -2.2561 -0.2712
 7439TIP3    H243733   5.860   1.355   5.857  0.3456  0.6420  2.2893
 7440TIP3   OH243734   5.175   0.655  17.129  0.3662  0.2132  0.5073
 7440TIP3    H143735   5.129   0.626  17.208  1.1152 -0.6657  0.6358
 7440TIP3    H243736   5.266   0.631  17.144  0.7392  1.2278 -0.0775
 7441TIP3   OH243737   2.041   3.506   0.246  0.2090 -0.0856  0.3934
 7441TIP3    H143738   2.089   3.573   0.198 -0.1600 -0.3208 -0.2990
 7441TIP3    H243739   2.060   3.424   0.200  1.4458 -0.6186  1.8094
 7442TIP3   OH243740   1.620   5.710   5.235  0.2245  0.5423 -0.1714
 7442TIP3    H143741   1.666   5.693   5.317  1.2446  1.1797 -0.5972
 7442TIP3    H243742   1.534   5.669   5.246  0.9306 -0.7497  0.6041
 7443TIP3   OH243743   3.291   0.673  13.783 -0.0957  0.5013 -0.0260
 7443TIP3    H143744   3.313   0.581  13.769 -2.3582 -0.0314 -0.3215
 7443TIP3    H243745   3.339   0.720  13.715 -1.4848 -0.8119 -1.9675
 7444TIP3   OH243746   1.900   6.089   2.461 -0.1245 -0.3246  0.4801
 7444TIP3    H143747   1.873   6.158   2.400  0.1438  0.3061  1.0660
 7444TIP3    H243748   1.993   6.105   2.476 -0.0093 -0.9589  0.4311
 7445TIP3   OH243749   3.253   5.643  10.967  0.1379 -0.3865  0.0232
 7445TIP3    H143750   3.245   5.736  10.986  0.4531 -0.4252  0.3381
 7445TIP3    H243751   3.346   5.624  10.977  0.1028 -0.7002 -0.2117
 7446TIP3   OH243752   0.816   0.533   1.911  0.8333  0.1386 -0.4276
 7446TIP3    H143753   0.776   0.475   1.976  2.2490 -0.4552 -0.0502
 7446TIP3    H243754   0.846   0.474   1.841  2.4081  0.3724  0.0210
 7447TIP3   OH243755   5.432   2.575  12.154 -0.8436 -0.0730 -0.6219
 7447TIP3    H143756   5.372   2.504  12.178  0.9084 -1.7857 -1.2071
 7447TIP3    H243757   5.458   2.556  12.064  1.8469 -0.3112  0.1616
 7448TIP3   OH243758   1.739   1.596  13.205  0.0337 -0.2921  0.1452
 7448TIP3    H143759   1.748   1.575  13.112 -0.0866 -0.6394  0.2110
 7448TIP3    H243760   1.790   1.529  13.250  1.3644  0.7853  0.2648
 7449TIP3   OH243761   2.673   5.696  12.692  0.0816 -0.0054  0.0654
 7449TIP3    H143762   2.692   5.677  12.601 -0.6571 -0.7013  0.0567
 7449TIP3    H243763   2.678   5.612  12.737 -0.2200  0.2290  0.5499
 7450TIP3   OH243764   3.359   1.711   2.253 -0.7864 -0.0610 -0.3773
 7450TIP3    H143765   3.380   1.803   2.237 -0.7775  0.1363  0.7493
 7450TIP3    H243766   3.362   1.701   2.348 -2.4308 -0.8301 -0.3791
 7451TIP3   OH243767   4.508   4.507  14.301 -0.0545 -0.1760 -0.0032
 7451TIP3    H143768   4.588   4.465  14.332  1.2918  1.4213 -1.2582
 7451TIP3    H243769   4.473   4.552  14.378  1.1983  0.5614  0.1474
 7452TIP3   OH243770   6.294   0.737  16.441 -0.3414 -0.3490  0.1128
 7452TIP3    H143771   6.310   0.831  16.443 -1.3787 -0.1688  0.8671
 7452TIP3    H243772   6.318   0.709  16.353  1.3780  0.3582  0.3553
 7453TIP3   OH243773   5.279   3.708   3.484  0.1759 -0.6311 -0.2878
 7453TIP3    H143774   5.187   3.688   3.468 -0.3443  0.5749  1.0983
 7453TIP3    H243775   5.313   3.633   3.532 -0.4220 -0.5202  0.3135
 7454TIP3   OH243776   0.627   6.446   1.811 -0.3688  0.4368  0.0030
 7454TIP3    H143777   0.652   6.477   1.724 -0.0883  0.8776  0.2446
 7454TIP3    H243778   0.624   6.350   1.802  0.5857  0.4278 -0.2472
 7455TIP3   OH243779   5.591   2.318   3.815 -0.2628  0.2200  0.3400
 7455TIP3    H143780   5.574   2.226   3.795  0.5271 -0.2078  1.5838
 7455TIP3    H243781   5.624   2.317   3.905 -1.6709  1.8769  0.8857
 7456TIP3   OH243782   1.318   6.714  11.807 -0.4514  0.0494 -0.5978
 7456TIP3    H143783   1.375   6.675  11.740  0.2888  0.0552  0.0204
 7456TIP3    H243784   1.281   6.639  11.852 -2.2945  0.0195 -2.1143
 7457TIP3   OH243785   3.655   5.541   5.630  0.4485  0.5267 -0.2790
 7457TIP3    H143786   3.640   5.458   5.675  1.6249  0.2597 -0.3892
 7457TIP3    H243787   3.749   5.543   5.613  0.1704  1.0837 -1.8198
 7458TIP3   OH243788   4.196   1.242  12.753 -0.0325 -0.2371  0.7120
 7458TIP3    H143789   4.256   1.315  12.739  1.0525 -1.0435  1.1003
 7458TIP3    H243790   4.228   1.172  12.695 -0.7673 -0.5774  0.7022
 7459TIP3   OH243791   2.407   1.763  15.419 -0.1495 -0.0734 -0.8634
 7459TIP3    H143792   2.494   1.733  15.443 -0.0235  0.7524 -0.2563
 7459TIP3    H243793   2.348   1.717  15.479  0.0578  0.9979  0.1901
 7460TIP3   OH243794   3.502   5.363  10.691  0.2006  0.5519  0.1993
 7460TIP3    H143795   3.510   5.425  10.619  0.3780  0.6470  0.2985
 7460TIP3    H243796   3.558   5.399  10.760 -0.0211  0.4997  0.4092
 7461TIP3   OH243797   4.141   0.375  16.827  0.0047 -0.2639 -0.5251
 7461TIP3    H143798   4.110   0.442  16.767  0.6093  1.0484  0.5868
 7461TIP3    H243799   4.125   0.292  16.782 -0.4096  0.6442 -2.0773
 7462TIP3   OH243800   0.694   4.858  11.229 -0.3776 -0.6358 -0.5297
 7462TIP3    H143801   0.708   4.951  11.211 -1.0687 -0.7522 -1.7186
 7462TIP3    H243802   0.706   4.850  11.324 -1.5750  0.8985 -0.2216
 7463TIP3   OH243803   1.222   2.059   2.417 -0.2615 -0.0447 -0.2299
 7463TIP3    H143804   1.149   2.040   2.475 -1.8558  1.2809 -1.7530
 7463TIP3    H243805   1.271   2.127   2.462 -0.6187 -0.1193  0.2733
 7464TIP3   OH243806   0.885   2.959  14.299  0.9541 -0.4126 -0.1009
 7464TIP3    H143807   0.962   3.013  14.311 -0.3019  0.8832  2.3681
 7464TIP3    H243808   0.828   3.010  14.241  0.3489  0.3426  1.1388
 7465TIP3   OH243809   0.037   1.437   5.492 -0.1354 -0.0244 -0.0661
 7465TIP3    H143810   0.039   1.500   5.564 -0.9743 -0.9721  0.8089
 7465TIP3    H243811   0.020   1.353   5.535 -0.2843 -0.6530 -1.3415
 7466TIP3   OH243812   0.334   3.790   4.695 -0.1619  0.2930 -0.5014
 7466TIP3    H143813   0.242   3.769   4.678 -0.3118 -0.5515  1.2610
 7466TIP3    H243814   0.360   3.846   4.621 -2.0958  0.5952 -0.9755
 7467TIP3   OH243815   4.646   0.339   1.595  0.3754 -0.2470  0.3127
 7467TIP3    H143816   4.729   0.386   1.595  0.8840 -1.1216 -0.3743
 7467TIP3    H243817   4.657   0.269   1.660  0.0283 -0.1130  0.5181
 7468TIP3   OH243818   6.567   2.775   3.830  0.3297  0.1788  0.3464
 7468TIP3    H143819   6.550   2.838   3.901  1.2624 -0.1871  0.9005
 7468TIP3    H243820   6.608   2.827   3.761  2.4041 -0.0827  1.3638
 7469TIP3   OH243821   4.536   1.271  13.832 -0.7612  0.5026 -0.9018
 7469TIP3    H143822   4.448   1.275  13.795 -0.9913 -2.2022 -0.7389
 7469TIP3    H243823   4.587   1.333  13.779 -2.4091  1.0066 -1.9492
 7470TIP3   OH243824   4.346   5.518  14.256 -0.0229  0.1296 -0.0764
 7470TIP3    H143825   4.255   5.500  14.232 -0.1607  0.7857 -0.0498
 7470TIP3    H243826   4.340   5.589  14.319  0.3420 -1.4669  1.8006
 7471TIP3   OH243827   6.623   1.050  13.618 -0.7535 -1.4252  0.2344
 7471TIP3    H143828   6.623   1.085  13.529  1.1096 -2.5522 -0.2324
 7471TIP3    H243829   6.614   1.128  13.674  0.7429 -0.4535 -0.8464
 7472TIP3   OH243830   1.840   6.595  16.495 -0.3727 -0.0708  0.4628
 7472TIP3    H143831   1.822   6.689  16.491  1.5715  0.2873 -0.2651
 7472TIP3    H243832   1.896   6.585  16.572 -1.7598 -0.8577  1.3937
 7473TIP3   OH243833   4.789   2.847   2.142 -0.0456  0.5235 -0.2446
 7473TIP3    H143834   4.828   2.765   2.115 -1.3743 -0.5309  0.9554
 7473TIP3    H243835   4.695   2.829   2.145 -0.2294  1.6045  1.5678
 7474TIP3   OH243836   4.063   1.922  12.469  0.0363  0.1466 -0.4203
 7474TIP3    H143837   4.054   2.016  12.488 -2.2765  0.1249 -1.2432
 7474TIP3    H243838   4.117   1.919  12.390 -1.5300  0.9080 -1.5457
 7475TIP3   OH243839   5.711   4.979   2.462 -0.6243  0.2452  0.1780
 7475TIP3    H143840   5.685   5.032   2.537 -1.2813  0.4744 -0.2097
 7475TIP3    H243841   5.629   4.951   2.423 -0.3302 -2.1741  1.1428
 7476TIP3   OH243842   5.138   4.460   4.951 -0.0088 -0.0039 -0.0385
 7476TIP3    H143843   5.177   4.481   4.867 -1.1152  1.6803 -0.1428
 7476TIP3    H243844   5.044   4.472   4.938 -0.3834 -1.6792  0.8835
 7477TIP3   OH243845   3.458   3.161   1.077  0.6647 -0.0926 -0.2766
 7477TIP3    H143846   3.428   3.247   1.105 -0.4400 -0.6303  0.2457
 7477TIP3    H243847   3.384   3.125   1.028  1.5615 -0.2700 -1.5316
 7478TIP3   OH243848   3.989   5.043   5.088 -0.2062 -0.9130  0.4987
 7478TIP3    H143849   3.902   5.041   5.048  0.7558 -1.1816 -1.6395
 7478TIP3    H243850   3.993   5.129   5.130 -1.0742 -0.4287 -0.3807
 7479TIP3   OH243851   1.847   6.334   4.177  0.2633  0.5122  0.6198
 7479TIP3    H143852   1.904   6.258   4.194  0.4605  0.1184 -1.6048
 7479TIP3    H243853   1.810   6.317   4.090  0.1405  2.8650  0.1821
 7480TIP3   OH243854   4.096   0.785  12.567  0.6470 -0.5286  0.3753
 7480TIP3    H143855   4.063   0.874  12.551  0.3152 -0.4288  1.5654
 7480TIP3    H243856   4.102   0.746  12.480  0.2326  0.4657 -0.1126
 7481TIP3   OH243857   3.594   0.119  11.999 -0.1214  0.1937 -0.3597
 7481TIP3    H143858   3.546   0.116  12.082  0.4143  1.4919  0.0052
 7481TIP3    H243859   3.680   0.080  12.019 -0.1880 -0.0009 -0.4475
 7482TIP3   OH243860   5.322   1.632  12.012  0.4502 -0.1241  0.1982
 7482TIP3    H143861   5.321   1.538  12.029 -1.4413 -0.5350 -1.9496
 7482TIP3    H243862   5.298   1.672  12.095  0.9106 -1.5506  1.0314
 7483TIP3   OH243863   4.040   4.184  17.054  0.8146  0.3900 -0.1733
 7483TIP3    H143864   4.092   4.191  17.134  0.5552  0.0705  0.0205
 7483TIP3    H243865   4.089   4.235  16.989  1.2906  0.2184  0.0497
 7484TIP3   OH243866   0.203   1.476   0.621  0.0186 -0.8533  0.1734
 7484TIP3    H143867   0.258   1.453   0.546 -0.0050 -1.8537  0.4532
 7484TIP3    H243868   0.116   1.492   0.584  0.3910  0.3379 -0.2200
 7485TIP3   OH243869   0.302   2.535   4.615  0.3263 -0.1979  0.0409
 7485TIP3    H143870   0.355   2.562   4.690  0.1303  1.9634 -0.5633
 7485TIP3    H243871   0.358   2.473   4.568  1.9613  1.3281 -0.0790
 7486TIP3   OH243872   5.755   3.009   4.769 -0.0356  0.4049  0.3707
 7486TIP3    H143873   5.706   3.079   4.812 -2.1443 -0.9391  0.2479
 7486TIP3    H243874   5.710   2.995   4.686  1.4630  0.1409 -0.3994
 7487TIP3   OH243875   0.796   5.407   1.331 -0.5181  0.3586  0.8396
 7487TIP3    H143876   0.754   5.452   1.258 -0.8808 -0.5421  0.4794
 7487TIP3    H243877   0.889   5.427   1.322 -0.1411 -2.3525 -1.7633
 7488TIP3   OH243878   5.611   4.234   0.128 -0.0827 -0.0580 -0.4374
 7488TIP3    H143879   5.698   4.247   0.165  0.3262  3.3313 -2.3359
 7488TIP3    H243880   5.552   4.278   0.189 -0.0676  0.4636 -0.7924
 7489TIP3   OH243881   3.674   4.195   1.897 -0.7341 -0.3755 -0.2519
 7489TIP3    H143882   3.645   4.252   1.969  1.0213 -2.7526  2.4569
 7489TIP3    H243883   3.716   4.255   1.835 -1.5998  1.6535  1.0516
 7490TIP3   OH243884   5.383   2.057   0.618 -0.1028  0.6230 -0.9040
 7490TIP3    H143885   5.451   2.071   0.552 -0.5418 -2.0730 -2.0001
 7490TIP3    H243886   5.327   1.989   0.580 -0.7096 -0.5539  1.9771
 7491TIP3   OH243887   6.301   3.895   2.096  0.3915 -1.1032  0.0648
 7491TIP3    H143888   6.330   3.980   2.063 -0.3482 -1.0712 -0.4960
 7491TIP3    H243889   6.268   3.848   2.019 -1.2541 -1.0574  0.7359
 7492TIP3   OH243890   1.065   2.003  16.971 -0.0490 -0.2848 -0.3702
 7492TIP3    H143891   1.013   1.952  17.034  0.9033 -0.4664  0.2755
 7492TIP3    H243892   1.125   2.054  17.025 -0.0540  0.4847 -1.0842
 7493TIP3   OH243893   4.011   3.732   5.517 -0.1623 -0.0872 -0.7316
 7493TIP3    H143894   3.933   3.687   5.550 -0.4846  1.3781  0.5783
 7493TIP3    H243895   4.000   3.823   5.545  2.1271  0.1056 -0.3348
 7494TIP3   OH243896   6.663   2.297  13.233 -0.5714  0.2430 -0.4949
 7494TIP3    H143897   6.732   2.325  13.293 -0.8554  2.1131 -1.0086
 7494TIP3    H243898   6.667   2.360  13.161 -0.2475 -1.9617 -2.4286
 7495TIP3   OH243899   1.423   2.616  10.905  0.1456 -0.0348 -0.1787
 7495TIP3    H143900   1.329   2.603  10.890  0.0688  0.9583 -0.5544
 7495TIP3    H243901   1.465   2.572  10.831 -0.0352 -0.0706 -0.2599
 7496TIP3   OH243902   5.112   4.284   4.414  0.0363 -0.9341  0.5496
 7496TIP3    H143903   5.117   4.237   4.498 -2.3570 -2.7323 -0.2409
 7496TIP3    H243904   5.069   4.367   4.436  0.6193 -0.8265  1.3087
 7497TIP3   OH243905   6.038   5.030  16.475 -0.1254 -0.8993  0.2855
 7497TIP3    H143906   6.043   5.060  16.385 -1.4393 -2.0779 -0.2085
 7497TIP3    H243907   6.025   5.109  16.527 -0.7371 -0.3399 -0.7031
 7498TIP3   OH243908   5.328   0.235   1.483  0.2062 -0.0575  0.1299
 7498TIP3    H143909   5.301   0.175   1.413  1.1822 -0.1909 -0.1420
 7498TIP3    H243910   5.248   0.249   1.534  0.0661 -2.0046  0.5002
 7499TIP3   OH243911   5.478   2.000  15.275  1.1656 -0.3234  0.6325
 7499TIP3    H143912   5.490   2.070  15.340 -0.2460  0.2564  0.2963
 7499TIP3    H243913   5.424   1.935  15.319  0.1847  0.0816  0.0558
 7500TIP3   OH243914   1.332   4.585  14.298  0.1010 -0.1858 -0.0044
 7500TIP3    H143915   1.258   4.550  14.248 -0.3611 -0.0291  0.5664
 7500TIP3    H243916   1.409   4.547  14.255 -0.2737  0.1242 -0.9721
 7501TIP3   OH243917   3.315   2.007   2.552 -0.3256 -0.0584  0.6524
 7501TIP3    H143918   3.378   1.955   2.602 -0.1320 -0.1971  0.2678
 7501TIP3    H243919   3.330   1.982   2.461  1.8696  2.8792  0.1205
 7502TIP3   OH243920   4.089   4.554   5.161 -0.2444  0.2319  0.2998
 7502TIP3    H143921   4.004   4.512   5.151  0.0570 -0.0317 -1.3388
 7502TIP3    H243922   4.069   4.642   5.194 -1.2238  0.4712 -0.8981
 7503TIP3   OH243923   6.571   1.048  16.667  0.3632  0.0282  0.4897
 7503TIP3    H143924   6.617   1.110  16.723  1.9666 -1.6073  1.0448
 7503TIP3    H243925   6.639   0.987  16.637 -1.2483 -1.8428  0.5014
 7504TIP3   OH243926   3.318   4.538   3.071  0.2831 -0.2893 -0.2884
 7504TIP3    H143927   3.303   4.538   3.166 -0.1176  2.8740 -0.3056
 7504TIP3    H243928   3.396   4.593   3.059  0.0214 -0.2368 -1.8511
 7505TIP3   OH243929   4.833   4.149  12.831  0.2180  0.7466 -0.0044
 7505TIP3    H143930   4.749   4.194  12.816  0.2004  1.1154  1.1648
 7505TIP3    H243931   4.898   4.207  12.791 -0.1164  0.2668 -1.2672
 7506TIP3   OH243932   1.857   1.000   3.642  0.3788  0.2508  0.1497
 7506TIP3    H143933   1.798   0.968   3.574  1.1344  0.8544 -0.8022
 7506TIP3    H243934   1.856   0.931   3.708  1.0544 -1.1949 -1.3089
 7507TIP3   OH243935   4.157   6.303  14.421  0.1365 -0.2931  0.0536
 7507TIP3    H143936   4.171   6.395  14.396 -1.0607  0.0296  0.5535
 7507TIP3    H243937   4.211   6.291  14.499 -1.3500  0.5991  1.2406
 7508TIP3   OH243938   0.369   3.271   2.539 -0.0470  0.0637  0.0066
 7508TIP3    H143939   0.370   3.237   2.449  2.3590  3.4262 -1.3478
 7508TIP3    H243940   0.392   3.195   2.592 -1.3977 -1.9829 -2.1986
 7509TIP3   OH243941   4.488   0.863   5.316  0.6826  0.6591 -0.1174
 7509TIP3    H143942   4.397   0.881   5.337  0.6897 -2.3691  2.9729
 7509TIP3    H243943   4.489   0.852   5.220 -2.0583  1.3117 -0.2430
 7510TIP3   OH243944   1.246   1.268  14.624  0.1197  0.3370 -0.3156
 7510TIP3    H143945   1.232   1.360  14.645  1.3752  0.3171  0.7144
 7510TIP3    H243946   1.337   1.263  14.596  0.6090 -0.8724  1.3889
 7511TIP3   OH243947   2.480   0.184  16.744  0.3405  0.2002 -0.7162
 7511TIP3    H143948   2.435   0.115  16.696 -1.9287  0.9228  0.2658
 7511TIP3    H243949   2.517   0.140  16.821 -0.5540 -0.0486 -0.4214
 7512TIP3   OH243950   6.664   2.311   6.132  0.3075  0.4004  0.0375
 7512TIP3    H143951   6.584   2.362   6.148 -0.4188 -0.2884 -1.3232
 7512TIP3    H243952   6.689   2.335   6.042  0.3815 -1.0704 -0.3377
 7513TIP3   OH243953   5.867   0.656  12.361  0.3126  0.3059  0.4224
 7513TIP3    H143954   5.928   0.728  12.375  1.6494 -0.6145 -0.6148
 7513TIP3    H243955   5.922   0.578  12.355 -0.8925 -0.4445 -1.2442
 7514TIP3   OH243956   4.078   2.443   4.006  0.2278 -0.0396 -0.0097
 7514TIP3    H143957   4.007   2.415   3.947  1.0206 -1.4798 -0.2892
 7514TIP3    H243958   4.033   2.496   4.072 -0.5640  2.3350 -2.3577
 7515TIP3   OH243959   0.674   1.344  11.769 -0.6493 -0.1026 -0.3601
 7515TIP3    H143960   0.694   1.252  11.788  2.5860  0.3261 -1.4611
 7515TIP3    H243961   0.738   1.394  11.820 -1.7249  1.5231 -0.5570
 7516TIP3   OH243962   2.760   1.861   6.719 -0.0233 -0.4643  0.2220
 7516TIP3    H143963   2.837   1.817   6.683 -0.1361 -0.5893  0.1282
 7516TIP3    H243964   2.687   1.822   6.671 -0.1431 -0.3395  0.3041
 7517TIP3   OH243965   4.290   2.259   4.044  0.0763 -0.0271  0.1387
 7517TIP3    H143966   4.286   2.255   4.139 -2.0208 -1.3787  0.0443
 7517TIP3    H243967   4.222   2.322   4.020 -1.3492 -1.7680 -0.5415
 7518TIP3   OH243968   0.960   0.630   2.764  0.2253  0.0246  0.2222
 7518TIP3    H143969   1.004   0.699   2.713  0.0773  0.8142  1.1635
 7518TIP3    H243970   0.877   0.617   2.719 -0.2667  1.3172  0.7532
 7519TIP3   OH243971   4.060   2.475  15.538  0.5306  0.0125  0.0304
 7519TIP3    H143972   4.124   2.405  15.548  0.4847 -0.0318  0.0144
 7519TIP3    H243973   3.975   2.430  15.532  0.4597  0.0909  0.4236
 7520TIP3   OH243974   3.163   0.292  11.560 -0.3229  0.5043 -0.0294
 7520TIP3    H143975   3.160   0.199  11.584 -1.7054  0.7623  0.8423
 7520TIP3    H243976   3.094   0.301  11.494 -0.5097  1.0152  0.2416
 7521TIP3   OH243977   5.735   5.268  10.443 -0.1349 -0.2858  0.1811
 7521TIP3    H143978   5.655   5.293  10.397 -0.1803  0.3774  0.6161
 7521TIP3    H243979   5.719   5.293  10.534  0.2271 -0.9526  0.4328
 7522TIP3   OH243980   2.469   4.570  11.227 -0.3066  0.7007  0.4290
 7522TIP3    H143981   2.543   4.567  11.166 -0.6448  1.8940 -0.0547
 7522TIP3    H243982   2.410   4.502  11.195  0.7121 -0.4778  1.0062
 7523TIP3   OH243983   0.961   3.060  12.888  0.3468  0.2922  0.1553
 7523TIP3    H143984   0.991   3.055  12.979  1.1373 -0.4609 -0.1508
 7523TIP3    H243985   1.016   3.127  12.848  1.2050 -0.6350 -0.2354
 7524TIP3   OH243986   2.521   4.162   4.063  0.0257  0.1043  0.2892
 7524TIP3    H143987   2.501   4.115   3.982  0.8244 -0.7744  0.5889
 7524TIP3    H243988   2.611   4.136   4.084 -0.5258 -0.4990  2.0249
 7525TIP3   OH243989   5.923   4.099  14.334 -0.1356  0.2741  0.0545
 7525TIP3    H143990   5.856   4.105  14.402 -1.1846 -0.8983 -0.8434
 7525TIP3    H243991   6.005   4.119  14.379 -1.1219  2.1731  1.0763
 7526TIP3   OH243992   6.604   2.881  16.500 -0.0071 -0.2223 -0.2464
 7526TIP3    H143993   6.581   2.963  16.455  0.3104 -0.5300 -0.9866
 7526TIP3    H243994   6.697   2.889  16.517 -0.0623 -0.2478  0.0578
 7527TIP3   OH243995   6.127   0.224  14.845 -0.6970  0.3008  0.0413
 7527TIP3    H143996   6.088   0.264  14.767 -0.1547 -0.1384 -0.4492
 7527TIP3    H243997   6.149   0.299  14.901 -1.7495  0.5811  0.0958
 7528TIP3   OH243998   4.933   4.803   1.290  0.4331 -0.1631 -0.2947
 7528TIP3    H143999   4.972   4.860   1.356  2.0481  0.0655 -1.4385
 7528TIP3    H244000   4.997   4.734   1.276 -0.7887 -1.3555 -0.1401
 7529TIP3   OH244001   3.510   4.754   5.349 -0.3132  0.1254 -0.2476
 7529TIP3    H144002   3.577   4.821   5.364 -1.2095  0.7466  1.0450
 7529TIP3    H244003   3.436   4.801   5.312 -0.1906 -0.5057 -1.3192
 7530TIP3   OH244004   3.438   1.779  16.231 -0.0106 -0.0271  0.1363
 7530TIP3    H144005   3.396   1.865  16.237 -0.6282 -0.2350 -0.9622
 7530TIP3    H244006   3.372   1.717  16.263  0.2910 -0.1335  0.5599
 7531TIP3   OH244007   0.871   4.209   5.782  0.5455  0.0828 -0.3243
 7531TIP3    H144008   0.857   4.303   5.775  2.4216  0.3315 -1.0383
 7531TIP3    H244009   0.866   4.177   5.691  0.3255 -0.4490 -0.1278
 7532TIP3   OH244010   3.330   6.584   1.385  0.3752 -0.7812 -0.6315
 7532TIP3    H144011   3.423   6.598   1.373  0.4416 -0.8042 -0.1466
 7532TIP3    H244012   3.289   6.634   1.313  0.8117 -1.9296 -1.6982
 7533TIP3   OH244013   6.627   1.577  15.884 -0.4401 -0.1890  0.1838
 7533TIP3    H144014   6.598   1.513  15.819 -0.5819 -1.0435  1.0814
 7533TIP3    H244015   6.717   1.551  15.904  0.3540  1.3280 -1.1964
 7534TIP3   OH244016   4.408   0.362  13.318 -0.8781  0.3752  0.3498
 7534TIP3    H144017   4.372   0.337  13.233 -0.6276  0.9449  0.0779
 7534TIP3    H244018   4.492   0.404  13.298 -0.2891 -0.4780  0.9444
 7535TIP3   OH244019   5.964   2.659   1.617  0.3284 -0.6037  0.1190
 7535TIP3    H144020   5.948   2.697   1.530  0.3800 -1.4805 -0.2834
 7535TIP3    H244021   6.059   2.669   1.630 -0.0693  2.0560  1.2962
 7536TIP3   OH244022   3.765   0.429  14.734  1.0074 -0.0178  0.5487
 7536TIP3    H144023   3.741   0.362  14.798  0.5036  0.2114  0.6052
 7536TIP3    H244024   3.809   0.381  14.664  1.1808 -0.3272  0.8664
 7537TIP3   OH244025   2.757   5.639   0.986 -0.3517 -0.2435 -0.1854
 7537TIP3    H144026   2.689   5.576   1.007 -1.0722  0.9541  1.1312
 7537TIP3    H244027   2.799   5.659   1.069 -0.1639  1.0424 -0.5733
 7538TIP3   OH244028   1.369   5.354  16.303  0.4328  0.1590 -0.2969
 7538TIP3    H144029   1.335   5.402  16.378  0.3942  1.5780 -1.2131
 7538TIP3    H244030   1.427   5.287  16.342  0.4819  0.9258  0.9848
 7539TIP3   OH244031   5.307   6.587  11.700 -0.1233  0.0931  0.4035
 7539TIP3    H144032   5.315   6.668  11.751 -0.1370  0.0253  0.5126
 7539TIP3    H244033   5.339   6.519  11.759  0.5499  0.1063  0.0552
 7540TIP3   OH244034   1.005   1.589   2.598 -0.2992  0.3543 -0.5025
 7540TIP3    H144035   0.950   1.568   2.674  0.1944  1.1347  0.0869
 7540TIP3    H244036   1.089   1.616   2.637  0.2419 -0.0803 -1.3573
 7541TIP3   OH244037   3.012   3.873  10.810  0.4521  0.5176 -0.0145
 7541TIP3    H144038   2.979   3.787  10.838 -0.7201 -0.2268 -3.4238
 7541TIP3    H244039   3.104   3.858  10.789  0.1508  0.0019 -0.9722
 7542TIP3   OH244040   1.138   5.753  12.441  0.2472 -0.5914  0.4645
 7542TIP3    H144041   1.233   5.746  12.456 -0.1800  0.8865  4.3432
 7542TIP3    H244042   1.129   5.835  12.391  0.9175  0.1299  1.4904
 7543TIP3   OH244043   0.580   3.600  11.709 -0.4161 -0.3249  0.6421
 7543TIP3    H144044   0.528   3.624  11.632 -2.7049 -0.3906  2.1212
 7543TIP3    H244045   0.567   3.673  11.770  1.2307 -0.3617  1.0392
 7544TIP3   OH244046   0.302   4.526  13.967 -0.4474 -0.1520  0.2936
 7544TIP3    H144047   0.238   4.455  13.961 -0.1873 -0.4047  0.4912
 7544TIP3    H244048   0.345   4.512  14.051  1.4926 -1.3752 -0.8609
 7545TIP3   OH244049   2.325   1.566  13.543 -0.2872 -0.5519  0.6182
 7545TIP3    H144050   2.316   1.560  13.638 -1.0179 -1.9947  0.4715
 7545TIP3    H244051   2.384   1.495  13.519 -0.1875 -0.2615 -0.0167
 7546TIP3   OH244052   2.925   2.180   2.708 -0.0668 -0.4111 -0.2985
 7546TIP3    H144053   2.924   2.134   2.791 -1.6055  0.5518  0.2494
 7546TIP3    H244054   3.017   2.186   2.684  0.2907 -1.8647  0.6707
 7547TIP3   OH244055   0.730   3.920   5.067  0.4443 -0.2959  0.7634
 7547TIP3    H144056   0.771   3.936   5.152  1.6835  1.1118 -0.0648
 7547TIP3    H244057   0.674   3.996   5.052 -1.1101 -1.3707  1.0882
 7548TIP3   OH244058   5.947   6.582   1.914  0.1175  0.3496 -0.1324
 7548TIP3    H144059   5.935   6.657   1.973  0.3102 -0.0038  0.3516
 7548TIP3    H244060   5.881   6.596   1.845 -0.8885  0.1458  0.7866
 7549TIP3   OH244061   3.595   6.029  15.807 -0.1501  0.5332 -0.0845
 7549TIP3    H144062   3.575   6.086  15.880 -2.4459 -0.6599  0.2552
 7549TIP3    H244063   3.535   6.056  15.738  1.0146  0.6914 -1.0632
 7550TIP3   OH244064   5.490   6.308  15.339 -0.5625 -0.6753 -0.2901
 7550TIP3    H144065   5.480   6.225  15.385 -1.4122 -0.8832 -0.8301
 7550TIP3    H244066   5.402   6.345  15.337  0.0399  0.8721  1.0960
 7551TIP3   OH244067   1.477   0.223   2.033 -0.1521 -0.2324  0.6122
 7551TIP3    H144068   1.488   0.252   2.124  0.4666 -2.1587  1.1854
 7551TIP3    H244069   1.403   0.162   2.036  1.6150 -2.4481  0.3606
 7552TIP3   OH244070   6.546   1.142   6.190  0.3496  0.2424  0.2071
 7552TIP3    H144071   6.562   1.206   6.120 -1.6969 -1.5878 -2.0077
 7552TIP3    H244072   6.451   1.136   6.195  0.5043 -0.9576  1.9976
 7553TIP3   OH244073   2.686   1.296   1.592  0.3798 -0.6387 -0.2463
 7553TIP3    H144074   2.633   1.361   1.546  0.2818 -0.7401 -0.2781
 7553TIP3    H244075   2.773   1.303   1.553 -0.0977 -1.8314 -1.5651
 7554TIP3   OH244076   6.662   1.524  16.620  0.3667  0.4516  0.9149
 7554TIP3    H144077   6.627   1.510  16.708  2.2414  0.0264  1.6162
 7554TIP3    H244078   6.614   1.600  16.587 -1.9591 -0.7703  1.4189
 7555TIP3   OH244079   2.843   3.766  12.109  0.0804 -0.2632  0.2685
 7555TIP3    H144080   2.813   3.697  12.168 -0.2915 -0.4433 -0.1345
 7555TIP3    H244081   2.833   3.846  12.160 -0.3295 -0.4090  0.4166
 7556TIP3   OH244082   3.085   4.154   5.595  0.1110  0.4677 -0.2282
 7556TIP3    H144083   3.139   4.145   5.517  1.5632  0.4125  0.7714
 7556TIP3    H244084   3.098   4.072   5.643  0.5816  1.1855  0.9049
 7557TIP3   OH244085   6.020   5.623  13.845  0.5180 -0.3764 -0.0973
 7557TIP3    H144086   6.095   5.666  13.885  2.3516 -2.2078 -1.4463
 7557TIP3    H244087   5.977   5.690  13.793 -0.1773  1.2786  2.4940
 7558TIP3   OH244088   2.002   6.378   5.162 -0.0160  0.1167  0.5904
 7558TIP3    H144089   2.096   6.371   5.143  0.3543  0.6019  2.1577
 7558TIP3    H244090   1.998   6.432   5.241 -1.5915 -0.3087  0.8079
 7559TIP3   OH244091   1.987   2.920   0.265  0.4293 -0.3526 -0.4761
 7559TIP3    H144092   1.992   3.013   0.285  0.0348 -0.8752  2.3135
 7559TIP3    H244093   2.077   2.888   0.272  0.4252 -0.3588 -0.4521
 7560TIP3   OH244094   4.797   1.481  12.971  0.4196 -0.6501 -0.1491
 7560TIP3    H144095   4.737   1.546  12.934  0.7393 -0.5162 -0.4386
 7560TIP3    H244096   4.792   1.496  13.066 -0.7795 -1.3322 -0.0968
 7561TIP3   OH244097   3.713   0.913  12.632 -0.3818 -0.2225 -0.0232
 7561TIP3    H144098   3.713   0.889  12.725 -1.6367 -1.0896 -0.2333
 7561TIP3    H244099   3.625   0.892  12.602  0.3611 -1.0410 -1.6818
 7562TIP3   OH244100   3.440   4.270   0.651 -0.5503 -0.5673  0.5873
 7562TIP3    H144101   3.523   4.298   0.688 -2.4198  1.3793  3.5899
 7562TIP3    H244102   3.425   4.183   0.687  0.0674 -0.8336  0.2058
 7563TIP3   OH244103   5.834   0.645  15.117  0.0301 -0.1084  0.0477
 7563TIP3    H144104   5.757   0.664  15.063 -0.7023 -3.4251 -0.1578
 7563TIP3    H244105   5.849   0.726  15.166 -1.1936  1.9167 -2.7641
 7564TIP3   OH244106   4.441   1.749  16.322  0.2068  0.4146 -0.4147
 7564TIP3    H144107   4.521   1.784  16.362  0.6582 -0.3180 -0.6602
 7564TIP3    H244108   4.370   1.790  16.371  0.7438  0.2546  0.5068
 7565TIP3   OH244109   1.839   4.536  12.648  0.0743 -0.3799 -0.7391
 7565TIP3    H144110   1.916   4.536  12.705 -0.8956  0.8239  0.6175
 7565TIP3    H244111   1.797   4.452  12.665  0.2500 -0.3827 -0.3152
 7566TIP3   OH244112   2.557   0.874   2.403  0.7065  0.1770  0.5017
 7566TIP3    H144113   2.611   0.859   2.325 -1.9373  1.2629 -1.6267
 7566TIP3    H244114   2.530   0.965   2.396 -3.0112 -0.8462  0.3924
 7567TIP3   OH244115   5.554   4.783   3.174  0.2947  0.0849 -0.3908
 7567TIP3    H144116   5.637   4.737   3.177  0.6603  0.7096 -0.9063
 7567TIP3    H244117   5.559   4.846   3.246  1.7476  2.6031 -2.5852
 7568TIP3   OH244118   0.136   3.856  16.030 -0.1133 -0.2122  0.3652
 7568TIP3    H144119   0.156   3.838  16.122 -0.9100 -2.0858  0.1915
 7568TIP3    H244120   0.203   3.919  16.002  0.1233  0.3750  2.2144
 7569TIP3   OH244121   0.701   5.079   2.092 -0.0714  0.5805  0.3076
 7569TIP3    H144122   0.739   5.140   2.155 -0.1209  0.6015  0.3172
 7569TIP3    H244123   0.742   5.102   2.008  0.0871  0.4747  0.3549
 7570TIP3   OH244124   5.358   4.909  14.864  0.7339 -0.2408 -0.3958
 7570TIP3    H144125   5.317   4.929  14.780  0.6463  1.7072  0.0896
 7570TIP3    H244126   5.285   4.901  14.925  0.9663  2.3129  0.2784
 7571TIP3   OH244127   4.181   3.342   0.531  0.6242 -0.6667 -0.0036
 7571TIP3    H144128   4.103   3.286   0.521  0.1464  0.0146 -0.0897
 7571TIP3    H244129   4.246   3.303   0.473 -0.5099  0.3270 -1.9867
 7572TIP3   OH244130   3.223   4.867  14.595  0.1681 -0.7445 -0.2227
 7572TIP3    H144131   3.150   4.924  14.573  0.8128  0.6884  1.2082
 7572TIP3    H244132   3.188   4.804  14.658  0.1850  0.0441  0.5861
 7573TIP3   OH244133   1.762   1.710  12.603  0.0125 -0.0619 -0.4893
 7573TIP3    H144134   1.780   1.766  12.527 -0.7239  1.6111  0.5369
 7573TIP3    H244135   1.840   1.720  12.658 -0.8006  1.2724  0.4539
 7574TIP3   OH244136   2.510   3.978   4.995  0.8446  0.1473  0.0901
 7574TIP3    H144137   2.536   4.050   5.052 -0.0866 -0.2852  1.0903
 7574TIP3    H244138   2.465   4.020   4.922 -0.0896  0.5677  0.8914
 7575TIP3   OH244139   5.084   6.534   2.115  0.0293 -0.2909  0.7676
 7575TIP3    H144140   5.022   6.600   2.084  1.6671  0.8340 -0.2031
 7575TIP3    H244141   5.037   6.486   2.184 -1.8417  0.6199  0.1418
 7576TIP3   OH244142   2.288   6.407   5.102  0.4637 -0.1308 -0.4438
 7576TIP3    H144143   2.320   6.475   5.162 -1.9038  0.2268  0.4551
 7576TIP3    H244144   2.347   6.413   5.027  1.2230  1.9084  0.2607
 7577TIP3   OH244145   4.661   4.742  16.864  0.1370  0.3068 -0.0917
 7577TIP3    H144146   4.657   4.661  16.915  0.7535  0.1300 -0.3185
 7577TIP3    H244147   4.605   4.803  16.912 -1.3123 -0.6119 -0.5860
 7578TIP3   OH244148   3.583   5.045  17.077 -0.3260 -0.3164 -0.6622
 7578TIP3    H144149   3.519   5.060  17.147 -1.3306  0.6079 -1.7577
 7578TIP3    H244150   3.625   4.962  17.100 -0.5353  0.0404  1.1102
 7579TIP3   OH244151   3.482   1.833   0.009  0.3402  0.1168  0.1638
 7579TIP3    H144152   3.566   1.807   0.047  1.1074  2.0308 -0.1432
 7579TIP3    H244153   3.471   1.776  -0.067  1.6636  0.2520 -0.1366
 7580TIP3   OH244154   1.885   5.670  13.972 -0.5548 -0.3782 -0.1030
 7580TIP3    H144155   1.835   5.727  13.915 -0.6184 -1.1020 -0.7739
 7580TIP3    H244156   1.859   5.582  13.948 -0.2167 -0.7101  0.7084
 7581TIP3   OH244157   2.865   0.721  14.796 -0.2037 -0.7352  0.0277
 7581TIP3    H144158   2.954   0.689  14.788  0.3897  1.3338 -2.4518
 7581TIP3    H244159   2.843   0.709  14.888  2.5161 -1.5648  0.6064
 7582TIP3   OH244160   2.462   3.125  12.931  0.5931 -0.2703 -0.2778
 7582TIP3    H144161   2.487   3.033  12.928  0.0842 -0.4330  0.2491
 7582TIP3    H244162   2.476   3.158  12.843  0.9667 -0.8058 -0.4138
 7583TIP3   OH244163   4.123   5.907  15.113  0.2036  0.5677  0.0577
 7583TIP3    H144164   4.191   5.974  15.109  1.4590 -0.6508  0.7790
 7583TIP3    H244165   4.124   5.867  15.026  0.2296  0.7061 -0.0059
 7584TIP3   OH244166   2.584   0.775  12.807 -0.4378 -0.2995 -0.0794
 7584TIP3    H144167   2.669   0.802  12.773 -0.6959 -1.8185 -2.0036
 7584TIP3    H244168   2.580   0.814  12.894  1.1657  1.8780 -0.9280
 7585TIP3   OH244169   1.419   0.765  15.603  0.3079  0.3937  0.1459
 7585TIP3    H144170   1.388   0.758  15.513  0.6291 -2.2086  0.1951
 7585TIP3    H244171   1.473   0.687  15.616  1.2264  1.3402  2.2197
 7586TIP3   OH244172   5.888   4.022  17.170  0.2916 -0.1449  0.2309
 7586TIP3    H144173   5.939   4.024  17.089 -0.5434  0.0671 -0.2970
 7586TIP3    H244174   5.890   4.112  17.202 -2.4930  0.6254 -1.5489
 7587TIP3   OH244175   0.317   6.220  15.581 -0.0167  0.2680  0.1187
 7587TIP3    H144176   0.363   6.297  15.547  1.5405  0.4905  2.6198
 7587TIP3    H244177   0.230   6.252  15.603  0.3309  1.1043  0.2977
 7588TIP3   OH244178   4.473   1.424  11.614 -0.2319 -0.1963  0.0450
 7588TIP3    H144179   4.425   1.418  11.696  0.9048  1.6658  0.8638
 7588TIP3    H244180   4.455   1.341  11.570 -0.4888 -1.4087  2.3678
 7589TIP3   OH244181   5.026   1.332   5.326 -0.3806  0.3403 -0.2774
 7589TIP3    H144182   5.014   1.354   5.418  0.6742 -0.5930  0.1016
 7589TIP3    H244183   4.985   1.246   5.317 -1.1006  0.7420 -0.8442
 7590TIP3   OH244184   5.056   5.307  13.169  0.1055  0.3353 -0.4814
 7590TIP3    H144185   5.140   5.293  13.125 -0.5034  0.0921 -1.6085
 7590TIP3    H244186   5.011   5.223  13.161  0.8602 -0.4012  2.6253
 7591TIP3   OH244187   0.645   1.364  15.836  0.2987  0.2085 -0.3021
 7591TIP3    H144188   0.734   1.373  15.871  0.0605  2.4531 -0.2393
 7591TIP3    H244189   0.594   1.329  15.909  1.3436 -2.2825 -0.7002
 7592TIP3   OH244190   2.466   1.971   0.478 -0.3161 -0.3469  0.2905
 7592TIP3    H144191   2.560   1.955   0.471 -0.2336 -0.1032  0.8377
 7592TIP3    H244192   2.457   2.066   0.478 -0.4761 -0.3658  1.3758
 7593TIP3   OH244193   6.559   3.305  10.935  0.5156  0.7376  0.2540
 7593TIP3    H144194   6.594   3.315  10.847  2.6679 -0.8604  0.8877
 7593TIP3    H244195   6.466   3.288  10.922  0.9779 -0.4234 -1.7605
 7594TIP3   OH244196   0.575   6.104   5.693 -0.2793 -0.5096  0.2219
 7594TIP3    H144197   0.483   6.099   5.669  0.3121  1.6839 -2.6945
 7594TIP3    H244198   0.586   6.193   5.727  0.5332 -1.1379  1.6486
 7595TIP3   OH244199   2.676   3.083   6.254  0.2952  0.0162  0.3056
 7595TIP3    H144200   2.659   3.146   6.184  1.2010  0.0761  0.1344
 7595TIP3    H244201   2.595   3.033   6.261 -0.1392  0.6461 -0.1285
 7596TIP3   OH244202   1.044   2.724   0.164 -0.1844  0.3326 -0.1443
 7596TIP3    H144203   1.011   2.638   0.138  0.4457 -0.3716  1.3462
 7596TIP3    H244204   0.965   2.777   0.178 -0.5623  0.3346 -2.0744
 7597TIP3   OH244205   2.755   2.627   4.708  0.1498  0.1567 -0.3931
 7597TIP3    H144206   2.794   2.693   4.766  1.8643 -1.4434  0.3247
 7597TIP3    H244207   2.768   2.544   4.754  0.2597 -0.9753 -2.4193
 7598TIP3   OH244208   6.418   5.943   1.318  0.2898 -0.1620  0.2242
 7598TIP3    H144209   6.387   5.944   1.408 -1.0185  0.7180 -0.2130
 7598TIP3    H244210   6.513   5.943   1.324  0.1997 -0.2200  1.5959
 7599TIP3   OH244211   4.790   1.389  11.177 -0.3823 -0.1523 -0.1355
 7599TIP3    H144212   4.819   1.456  11.115 -0.1000  0.3269  0.5122
 7599TIP3    H244213   4.871   1.357  11.217 -0.7392  1.2159  1.7065
 7600TIP3   OH244214   2.677   1.650   3.989 -0.4579  0.3666  0.1905
 7600TIP3    H144215   2.608   1.607   3.938 -0.7007 -2.1863  2.5639
 7600TIP3    H244216   2.642   1.737   4.007 -2.5715 -0.4668  0.2977
 7601TIP3   OH244217   3.843   0.472  12.891 -0.3617  0.0125 -0.0626
 7601TIP3    H144218   3.913   0.421  12.851  1.3506  1.1298  1.4660
 7601TIP3    H244219   3.824   0.541  12.828 -0.4818 -0.6130 -0.7189
 7602TIP3   OH244220   0.218   5.518   3.893  0.4511 -0.8210  0.3319
 7602TIP3    H144221   0.126   5.540   3.902  0.9020  2.2132 -1.9493
 7602TIP3    H244222   0.238   5.532   3.801  3.2364 -1.2734  0.8118
 7603TIP3   OH244223   3.030   3.042  11.224  0.1074  0.0061 -0.2013
 7603TIP3    H144224   2.983   2.981  11.281  0.9320 -1.7678 -1.3866
 7603TIP3    H244225   2.970   3.056  11.150 -0.6892  1.7901  0.7695
 7604TIP3   OH244226   3.626   2.777  13.200  0.0586 -0.0166  0.3630
 7604TIP3    H144227   3.713   2.798  13.233  0.7577 -0.1525 -1.3436
 7604TIP3    H244228   3.602   2.695  13.243  1.2607 -0.5683 -0.0102
 7605TIP3   OH244229   0.141   1.367   1.571  0.7648  0.3336 -0.2608
 7605TIP3    H144230   0.071   1.333   1.515  2.2455 -0.4971 -1.6604
 7605TIP3    H244231   0.097   1.393   1.651 -0.9659 -1.5308 -0.5560
 7606TIP3   OH244232   4.349   1.588  11.284  0.2533 -0.2822 -0.3944
 7606TIP3    H144233   4.264   1.623  11.310 -0.5764 -2.2849 -0.3025
 7606TIP3    H244234   4.408   1.611  11.356 -0.5570 -0.1753  0.2393
 7607TIP3   OH244235   6.104   4.394   5.942  0.0036 -0.3865 -0.1761
 7607TIP3    H144236   6.161   4.415   5.868 -1.8912 -0.1021 -1.5977
 7607TIP3    H244237   6.116   4.467   6.003  3.1424 -1.6216  0.8265
 7608TIP3   OH244238   1.283   5.188   6.027  0.7658  0.0404 -0.1671
 7608TIP3    H144239   1.341   5.150   5.960  0.1272 -0.8574 -0.2083
 7608TIP3    H244240   1.331   5.179   6.109  1.0934  0.1798 -0.3411
 7609TIP3   OH244241   2.293   6.550  13.243  0.2875  0.1959  0.0691
 7609TIP3    H144242   2.350   6.603  13.187 -0.7336  1.5037  0.2437
 7609TIP3    H244243   2.248   6.614  13.298 -0.0541 -0.9572  1.1356
 7610TIP3   OH244244   2.358   4.755  15.564  0.0062 -0.2282 -0.1582
 7610TIP3    H144245   2.450   4.747  15.537 -0.4069 -1.8831 -1.0925
 7610TIP3    H244246   2.319   4.814  15.499  0.2968  0.1486  0.0036
 7611TIP3   OH244247   5.121   2.562  13.268  0.3559  0.3438 -0.4545
 7611TIP3    H144248   5.132   2.657  13.269  0.3467  0.3649 -1.7135
 7611TIP3    H244249   5.208   2.528  13.286  0.4257  0.5899 -0.3226
 7612TIP3   OH244250   3.882   1.148  14.979  0.4505 -0.4215  0.3224
 7612TIP3    H144251   3.937   1.220  15.011  1.4614  0.0063 -2.2252
 7612TIP3    H244252   3.944   1.083  14.947 -0.4763 -0.6580 -1.0578
 7613TIP3   OH244253   5.307   6.682  15.941  0.1622  0.0460 -0.1347
 7613TIP3    H144254   5.393   6.682  15.982 -0.9018  0.4123  2.2257
 7613TIP3    H244255   5.297   6.769  15.904  0.7090  0.0942 -0.1567
 7614TIP3   OH244256   2.012   4.353  13.737  0.3442  0.6938 -0.4553
 7614TIP3    H144257   2.079   4.419  13.758 -0.0050  0.9649 -0.1886
 7614TIP3    H244258   1.930   4.402  13.734  0.1286  0.3275 -0.5963
 7615TIP3   OH244259   5.245   4.166   1.245 -0.1929  0.8112 -0.5235
 7615TIP3    H144260   5.237   4.237   1.181  1.0385  1.5023  0.0919
 7615TIP3    H244261   5.291   4.204   1.319  0.2731 -0.5646 -0.0818
 7616TIP3   OH244262   0.772   4.995  14.220  0.1716 -0.1696  0.0832
 7616TIP3    H144263   0.814   5.081  14.227 -0.8247  0.2124  1.4342
 7616TIP3    H244264   0.688   5.005  14.263  0.9760 -2.4402  2.2992
 7617TIP3   OH244265   5.461   1.098   1.453 -0.0041 -0.5329  0.9117
 7617TIP3    H144266   5.379   1.144   1.431  0.6379  0.5000  0.6458
 7617TIP3    H244267   5.496   1.148   1.527  1.6463  0.5573 -0.5755
 7618TIP3   OH244268   1.355   6.361  16.988 -0.0223  0.2606 -0.2117
 7618TIP3    H144269   1.290   6.396  17.048  0.2268 -0.6337  0.6011
 7618TIP3    H244270   1.359   6.424  16.917 -1.1498  0.7581  0.1552
 7619TIP3   OH244271   2.946   6.438  10.264 -0.0559  0.0947  0.3087
 7619TIP3    H144272   3.006   6.372  10.298 -0.1369 -0.8160 -1.2465
 7619TIP3    H244273   2.868   6.430  10.319 -0.0991 -1.1784  0.0775
 7620TIP3   OH244274   0.158   4.255   1.313 -0.7717  0.0389  0.6381
 7620TIP3    H144275   0.123   4.192   1.250  0.1197  1.2495 -1.1148
 7620TIP3    H244276   0.231   4.209   1.354 -0.5750 -0.3267 -0.1079
 7621TIP3   OH244277   5.196   4.225   5.156 -0.1471 -0.3738 -0.1130
 7621TIP3    H144278   5.155   4.311   5.167 -0.1085 -0.2970 -0.5590
 7621TIP3    H244279   5.289   4.244   5.142 -0.5039 -0.3257 -2.7079
 7622TIP3   OH244280   0.275   6.221  14.952 -0.0584  0.1110 -0.4860
 7622TIP3    H144281   0.243   6.229  14.862 -1.5397  0.1627  0.0249
 7622TIP3    H244282   0.197   6.232  15.006  0.3701 -2.6229  0.7413
 7623TIP3   OH244283   1.101   1.534  12.116  0.4964  0.0557 -0.1500
 7623TIP3    H144284   1.102   1.628  12.133  1.6142  0.2107 -0.9819
 7623TIP3    H244285   1.161   1.523  12.042  2.8757 -1.6882  1.9574
 7624TIP3   OH244286   4.473   6.319  16.653 -0.4083 -0.6231  0.7304
 7624TIP3    H144287   4.528   6.353  16.723  0.6704  0.1384 -0.4696
 7624TIP3    H244288   4.415   6.392  16.631  2.4574  0.8397 -2.4052
 7625TIP3   OH244289   2.758   4.991  12.116 -0.2275 -0.0751  0.1479
 7625TIP3    H144290   2.815   5.053  12.161 -1.3028  0.6263  0.5749
 7625TIP3    H244291   2.706   5.045  12.057 -1.9006 -0.4230  1.2694
 7626TIP3   OH244292   3.592   3.287   3.487  0.0266 -0.2333  0.0998
 7626TIP3    H144293   3.563   3.196   3.500 -1.6925  0.2519 -0.2207
 7626TIP3    H244294   3.524   3.340   3.530 -0.2920  0.9816 -1.8569
 7627TIP3   OH244295   0.440   1.308   1.347 -0.1791 -0.4017 -0.4151
 7627TIP3    H144296   0.479   1.230   1.387 -0.3941  0.1080  0.8170
 7627TIP3    H244297   0.495   1.326   1.271  0.4427 -1.1972 -0.1586
 7628TIP3   OH244298   5.208   3.061   5.047 -0.2468  0.3045 -0.4342
 7628TIP3    H144299   5.123   3.104   5.040  0.1837  1.3063  0.2908
 7628TIP3    H244300   5.265   3.128   5.086  0.2499 -1.1773  1.4758
 7629TIP3   OH244301   2.769   3.693  13.456 -0.3429 -0.3874  0.3811
 7629TIP3    H144302   2.864   3.691  13.453 -0.3236 -0.3326  1.0329
 7629TIP3    H244303   2.747   3.681  13.548 -0.9326  0.6505  0.3854
 7630TIP3   OH244304   6.203   1.348  11.496  0.1260 -0.1496  0.1583
 7630TIP3    H144305   6.249   1.423  11.533  2.4425 -1.6656  0.4314
 7630TIP3    H244306   6.126   1.337  11.552  1.1061  0.4969  1.6677
 7631TIP3   OH244307   3.989   4.081  16.079  0.1005  0.2775 -0.5678
 7631TIP3    H144308   3.952   3.993  16.084  0.8834 -0.0479 -0.3782
 7631TIP3    H244309   4.051   4.085  16.152  0.1559  0.9457 -0.6435
 7632TIP3   OH244310   1.154   2.000   2.041  0.0505 -0.7864  0.3268
 7632TIP3    H144311   1.076   2.040   2.004 -0.3019 -2.4618 -0.7705
 7632TIP3    H244312   1.174   2.054   2.118 -0.2666  1.6242 -1.2241
 7633TIP3   OH244313   4.224   5.946  17.218 -0.3044 -0.1059  0.6489
 7633TIP3    H144314   4.312   5.912  17.201  0.9952  2.1636  2.6315
 7633TIP3    H244315   4.192   5.893  17.291  0.3504  0.6075  1.4602
 7634TIP3   OH244316   0.852   6.249   5.079  0.4060  0.0989  0.7448
 7634TIP3    H144317   0.913   6.318   5.104  0.2200  0.3037  0.6355
 7634TIP3    H244318   0.781   6.294   5.034  1.2362 -0.3779 -1.0799
 7635TIP3   OH244319   6.412   4.286  16.441 -0.0037  0.3095 -0.0269
 7635TIP3    H144320   6.361   4.219  16.397 -0.5309  0.5180  0.2627
 7635TIP3    H244321   6.347   4.344  16.481  0.4582  0.1546  0.9729
 7636TIP3   OH244322   6.559   2.083   2.348  0.4752 -0.5659 -0.2083
 7636TIP3    H144323   6.550   2.082   2.253  1.8590 -1.7039 -0.3410
 7636TIP3    H244324   6.568   2.176   2.370 -1.0821 -0.1958 -1.0410
 7637TIP3   OH244325   0.474   0.638  13.792 -0.2080 -0.1609  0.5043
 7637TIP3    H144326   0.513   0.642  13.705 -2.0362  0.5019 -0.2994
 7637TIP3    H244327   0.477   0.728  13.824 -0.2484 -0.2650  0.8020
 7638TIP3   OH244328   1.108   2.179   5.502 -0.1637 -0.2710  0.0322
 7638TIP3    H144329   1.019   2.147   5.515  0.6683 -2.2873  0.8387
 7638TIP3    H244330   1.096   2.267   5.466 -2.4641 -1.3497 -1.9397
 7639TIP3   OH244331   0.775   2.195  13.722  0.5319  0.6168 -0.2752
 7639TIP3    H144332   0.773   2.272  13.778  0.8862  0.2095  0.3061
 7639TIP3    H244333   0.869   2.176  13.712  0.4555  0.4364 -0.6639
 7640TIP3   OH244334   3.946   2.842   0.131 -0.1232 -0.1065 -0.5478
 7640TIP3    H144335   3.870   2.792   0.162 -0.5210  0.7084 -0.1971
 7640TIP3    H244336   3.978   2.792   0.056 -0.3567 -1.0368 -0.0405
 7641TIP3   OH244337   3.872   1.851   0.526 -0.6162  0.0696 -0.0184
 7641TIP3    H144338   3.839   1.831   0.613  0.1035 -0.1879  0.1935
 7641TIP3    H244339   3.852   1.944   0.514  0.3514  0.4065  0.8993
 7642TIP3   OH244340   2.978   3.912   4.124  0.2033  0.0448  0.4199
 7642TIP3    H144341   3.047   3.901   4.190  0.6972 -0.0744 -0.1135
 7642TIP3    H244342   2.909   3.852   4.152  0.9060 -0.8817  0.1705
 7643TIP3   OH244343   6.779   4.432  13.406  0.1227  0.1316 -0.6121
 7643TIP3    H144344   6.794   4.344  13.371  1.9146 -0.0355  0.5150
 7643TIP3    H244345   6.799   4.424  13.499 -0.7328  1.4977 -0.3090
 7644TIP3   OH244346   2.868   1.204   0.225 -0.3206  0.2979  0.5778
 7644TIP3    H144347   2.857   1.293   0.260 -0.0676  0.2375  0.8070
 7644TIP3    H244348   2.782   1.182   0.188 -0.8367  0.0207  1.9351
 7645TIP3   OH244349   4.835   0.469  14.717  0.3332 -0.4384 -0.0767
 7645TIP3    H144350   4.817   0.442  14.807 -0.3775  0.9507  0.1994
 7645TIP3    H244351   4.925   0.502  14.720  0.1891 -0.0722  0.1869
 7646TIP3   OH244352   6.216   4.506   6.505  0.3037  0.4132  0.0193
 7646TIP3    H144353   6.157   4.451   6.454  0.5206  0.6767 -0.5150
 7646TIP3    H244354   6.275   4.444   6.548 -0.3648  0.1497  0.5693
 7647TIP3   OH244355   5.051   1.599   0.925  0.3313 -0.1998 -0.0791
 7647TIP3    H144356   4.972   1.620   0.975  1.0423  2.1521  0.1201
 7647TIP3    H244357   5.118   1.582   0.992  0.3413 -0.9067 -0.2558
 7648TIP3   OH244358   4.728   2.086   2.323  0.1675  0.3138 -0.7741
 7648TIP3    H144359   4.644   2.067   2.364 -0.3228 -1.8446 -2.6718
 7648TIP3    H244360   4.735   2.181   2.324 -2.2219  0.5031 -0.4618
 7649TIP3   OH244361   2.900   0.980  11.875  0.2200 -0.1383  0.2955
 7649TIP3    H144362   2.881   1.048  11.810  1.0925 -0.0681  0.1132
 7649TIP3    H244363   2.878   1.021  11.959  0.2643  0.1897  0.1456
 7650TIP3   OH244364   2.911   5.290   5.116 -0.9158  0.1933  0.2159
 7650TIP3    H144365   2.823   5.254   5.104 -0.4129 -1.2458  0.7290
 7650TIP3    H244366   2.939   5.256   5.200  0.6169 -0.3731 -0.5143
 7651TIP3   OH244367   1.574   2.001  13.205  0.4357 -0.6646  0.1054
 7651TIP3    H144368   1.573   1.974  13.113  3.4109  2.1896 -0.8968
 7651TIP3    H244369   1.647   1.953  13.244  0.6160 -0.1957  0.3586
 7652TIP3   OH244370   6.259   5.993   2.687  0.1323 -0.0946 -0.7870
 7652TIP3    H144371   6.230   5.934   2.617 -1.4379 -1.1975  0.7364
 7652TIP3    H244372   6.178   6.019   2.731  0.9665  1.8737 -0.3904
 7653TIP3   OH244373   5.826   5.292   6.238  0.2008 -0.2019 -0.2452
 7653TIP3    H144374   5.872   5.212   6.261  0.6670  0.2722  0.4908
 7653TIP3    H244375   5.751   5.294   6.298 -0.1493 -0.3995 -0.6770
 7654TIP3   OH244376   0.731   0.304  14.922 -0.7716  0.2031 -0.0704
 7654TIP3    H144377   0.731   0.218  14.879 -0.8695  0.2108 -0.0868
 7654TIP3    H244378   0.806   0.350  14.883 -1.2809  0.4661 -0.7617
 7655TIP3   OH244379   3.709   3.467   3.314  0.6613  0.3741  0.2672
 7655TIP3    H144380   3.641   3.415   3.359  0.3747 -0.2772 -0.8931
 7655TIP3    H244381   3.778   3.404   3.295  1.1340  0.8203  0.5029
 7656TIP3   OH244382   6.231   3.192   0.015 -0.1728  0.8609 -0.3429
 7656TIP3    H144383   6.290   3.117   0.028 -0.1378  1.4973  3.5147
 7656TIP3    H244384   6.274   3.244  -0.053  2.6446  0.1980  0.8543
 7657TIP3   OH244385   1.901   2.400  13.168 -0.6024  0.0446  0.3961
 7657TIP3    H144386   1.980   2.452  13.153 -0.6683 -0.1849 -0.8196
 7657TIP3    H244387   1.932   2.319  13.208 -0.0899 -0.5038 -1.0876
 7658TIP3   OH244388   0.490   5.859  15.191 -0.4170 -0.0702  0.4820
 7658TIP3    H144389   0.488   5.950  15.221 -0.6290  0.0959 -0.0281
 7658TIP3    H244390   0.449   5.862  15.104  1.5877 -0.2863 -0.4974
 7659TIP3   OH244391   1.680   2.313   3.279 -0.0588 -0.7695 -0.1995
 7659TIP3    H144392   1.646   2.274   3.359 -0.5863 -0.4034 -0.2433
 7659TIP3    H244393   1.605   2.316   3.220  0.0343  0.0776 -0.2797
 7660TIP3   OH244394   2.139   6.383   2.981 -0.6164 -0.7863 -0.8403
 7660TIP3    H144395   2.094   6.302   3.007 -0.1100 -0.2214  1.9804
 7660TIP3    H244396   2.171   6.420   3.063  0.9175  1.2620 -2.3049
 7661TIP3   OH244397   2.606   2.410   4.539 -0.0812 -0.2379  0.1796
 7661TIP3    H144398   2.670   2.341   4.522 -0.4461 -0.6643  0.5226
 7661TIP3    H244399   2.655   2.478   4.586 -0.2000 -1.1563  1.6394
 7662TIP3   OH244400   6.678   4.204   1.448 -0.3654 -0.1998 -0.6198
 7662TIP3    H144401   6.754   4.245   1.407 -0.7622  0.5709 -0.5917
 7662TIP3    H244402   6.625   4.277   1.478 -1.1723 -0.7331 -0.7385
 7663TIP3   OH244403   1.695   6.706   4.876  0.1642  0.2482  0.1666
 7663TIP3    H144404   1.606   6.674   4.859 -0.5305  1.8953  0.6119
 7663TIP3    H244405   1.712   6.680   4.967 -1.4187  3.3477  1.4178
 7664TIP3   OH244406   6.267   0.682   4.142 -0.2926 -0.9086  1.2245
 7664TIP3    H144407   6.341   0.738   4.116  0.4419 -2.1695  0.5209
 7664TIP3    H244408   6.307   0.611   4.192 -0.8730 -2.1810 -0.0551
 7665TIP3   OH244409   4.760   3.927  15.632 -0.1242 -0.2255  0.2575
 7665TIP3    H144410   4.791   3.893  15.716  1.9042  0.6661 -0.1037
 7665TIP3    H244411   4.824   3.897  15.568 -2.0095 -1.4639 -1.1061
 7666TIP3   OH244412   6.487   4.916  15.818 -0.0046  0.2329  0.3696
 7666TIP3    H144413   6.508   4.972  15.743 -0.5645  2.4554  1.8306
 7666TIP3    H244414   6.398   4.943  15.843  0.2364 -0.3949  1.9170
 7667TIP3   OH244415   2.600   1.255   3.698  0.1656 -0.4834 -0.0528
 7667TIP3    H144416   2.673   1.317   3.710 -1.8294  2.3235 -1.6818
 7667TIP3    H244417   2.583   1.257   3.604 -1.4760 -1.7612  0.1981
 7668TIP3   OH244418   1.165   3.916  12.054 -0.4679 -0.2908 -0.4311
 7668TIP3    H144419   1.087   3.970  12.065 -1.6364 -1.9128 -0.6058
 7668TIP3    H244420   1.147   3.863  11.976  0.5745 -1.0539 -0.1644
 7669TIP3   OH244421   6.632   4.102   5.019 -0.2662 -0.3424 -0.5397
 7669TIP3    H144422   6.728   4.101   5.024 -0.2162  1.1648 -0.7830
 7669TIP3    H244423   6.607   4.011   5.026  1.1938 -0.7564 -0.4054
 7670TIP3   OH244424   6.087   4.030  16.530 -0.6103  0.1607  0.4586
 7670TIP3    H144425   6.101   3.993  16.617  2.7781  0.7231  0.2112
 7670TIP3    H244426   6.049   4.116  16.546  1.2661  0.8292  1.4800
 7671TIP3   OH244427   3.322   3.858   2.434  0.1582 -0.2080  0.2527
 7671TIP3    H144428   3.344   3.819   2.350 -0.8000 -0.2875  0.0243
 7671TIP3    H244429   3.284   3.943   2.412 -2.0733 -1.1127  0.4473
 7672TIP3   OH244430   4.571   6.514   2.441  0.2007 -0.6387  0.2999
 7672TIP3    H144431   4.650   6.465   2.463 -0.4888 -1.3340  1.2914
 7672TIP3    H244432   4.587   6.602   2.476  0.4128 -0.8630  0.7698
 7673TIP3   OH244433   3.792   3.255   1.421  0.0269  0.3443  0.3490
 7673TIP3    H144434   3.728   3.244   1.491 -0.6291  2.0728  0.0639
 7673TIP3    H244435   3.745   3.303   1.353  0.8584 -0.7030 -0.9881
 7674TIP3   OH244436   0.486   4.480  13.083  0.1428 -0.4066 -0.5772
 7674TIP3    H144437   0.537   4.401  13.067 -0.9062 -0.4735 -3.9688
 7674TIP3    H244438   0.536   4.550  13.041 -0.9124  0.0578 -1.0766
 7675TIP3   OH244439   5.694   2.810   4.518 -0.3244  0.3351 -0.2577
 7675TIP3    H144440   5.724   2.815   4.427  1.5277  0.4751  0.3369
 7675TIP3    H244441   5.754   2.749   4.560 -2.2362 -1.0744  0.4909
 7676TIP3   OH244442   2.772   2.463   3.941 -0.0492 -0.5871  0.1010
 7676TIP3    H144443   2.723   2.423   4.013 -1.6101 -1.3720 -1.3725
 7676TIP3    H244444   2.786   2.553   3.970 -0.1545 -1.0392  1.6338
 7677TIP3   OH244445   2.556   2.339  11.565 -0.0331 -0.8622 -0.2118
 7677TIP3    H144446   2.528   2.249  11.549  0.5548 -0.8644 -1.3171
 7677TIP3    H244447   2.635   2.350  11.511  0.0117  0.2538  0.0543
 7678TIP3   OH244448   4.138   5.033  16.187 -0.5381  0.3387 -0.2538
 7678TIP3    H144449   4.106   4.985  16.263  0.3555  0.4193  0.1835
 7678TIP3    H244450   4.222   5.069  16.215 -1.1181  2.0257 -0.6273
 7679TIP3   OH244451   3.412   4.731  17.030  0.0995  0.3267  0.0700
 7679TIP3    H144452   3.481   4.728  16.964 -1.4788  0.2175 -1.6108
 7679TIP3    H244453   3.410   4.643  17.067  0.5285  0.1977 -0.2047
 7680TIP3   OH244454   1.734   4.123  11.423  0.4288 -0.3562 -0.0808
 7680TIP3    H144455   1.657   4.177  11.436 -1.0548 -2.5393  0.4865
 7680TIP3    H244456   1.701   4.042  11.383  2.3663 -1.4460  0.4246
 7681TIP3   OH244457   4.065   6.615  12.728  0.8528  0.1801 -0.1265
 7681TIP3    H144458   4.099   6.694  12.684  4.8454 -0.7715  0.9963
 7681TIP3    H244459   4.048   6.643  12.817 -1.0930  0.5764 -0.6081
 7682TIP3   OH244460   5.513   0.364   1.639 -0.4219 -0.4663 -0.2897
 7682TIP3    H144461   5.511   0.454   1.606 -0.8357 -0.0974  0.6991
 7682TIP3    H244462   5.450   0.317   1.584  0.5196 -0.3818 -1.4400
 7683TIP3   OH244463   2.032   2.706  12.148 -0.3795 -0.0494  0.0523
 7683TIP3    H144464   2.041   2.771  12.079 -1.6209  0.4165  0.3224
 7683TIP3    H244465   1.964   2.647  12.117  0.7780 -1.2591 -0.2126
 7684TIP3   OH244466   1.166   2.689  12.159 -0.6031 -0.1345  0.0093
 7684TIP3    H144467   1.082   2.735  12.155 -0.4090  0.2855  0.6466
 7684TIP3    H244468   1.166   2.647  12.246  0.1171  0.4009  0.2713
 7685TIP3   OH244469   5.282   1.865  12.706  0.3792  0.1445  0.7423
 7685TIP3    H144470   5.204   1.820  12.740  0.7543 -1.2246 -0.1860
 7685TIP3    H244471   5.353   1.803  12.719  0.8487  0.3252 -0.8365
 7686TIP3   OH244472   5.927   5.586   5.988 -0.0718  0.6010  0.1888
 7686TIP3    H144473   5.834   5.583   6.012 -0.2249  0.0337 -0.4605
 7686TIP3    H244474   5.973   5.589   6.072 -0.6854  1.3641  0.5071
 7687TIP3   OH244475   4.919   6.120  11.112  0.5007  0.2089 -0.1970
 7687TIP3    H144476   4.930   6.060  11.186  2.4756  0.3352 -0.3642
 7687TIP3    H244477   4.836   6.095  11.073  0.6742 -1.5741  0.5235
 7688TIP3   OH244478   4.883   3.666   2.477 -0.4700  0.1863 -0.1316
 7688TIP3    H144479   4.865   3.575   2.455  2.4830 -0.3653 -0.3484
 7688TIP3    H244480   4.845   3.716   2.405  0.7228 -1.0495 -1.6233
 7689TIP3   OH244481   4.801   3.273  13.528 -0.0270  0.0014  0.5305
 7689TIP3    H144482   4.827   3.363  13.506  0.0728 -0.3619 -0.8987
 7689TIP3    H244483   4.707   3.279  13.546  0.0933  0.4915  0.9957
 7690TIP3   OH244484   0.335   4.500  12.120 -0.4293 -0.3316  0.5668
 7690TIP3    H144485   0.392   4.505  12.197  0.3342  1.5535 -0.0942
 7690TIP3    H244486   0.264   4.442  12.147  0.3022 -0.4341  2.3783
 7691TIP3   OH244487   3.229   3.599  14.468  0.5380 -0.3954 -0.3545
 7691TIP3    H144488   3.292   3.537  14.431  1.1003  0.0292 -0.1279
 7691TIP3    H244489   3.229   3.672  14.406 -0.5000 -0.8444 -0.8816
 7692TIP3   OH244490   3.269   3.322   1.682  0.9518 -0.0034  0.2942
 7692TIP3    H144491   3.285   3.236   1.721  1.2122  0.5918  1.5123
 7692TIP3    H244492   3.340   3.377   1.714  1.5341  0.3533 -1.5391
 7693TIP3   OH244493   5.037   5.202   5.295 -0.3068  0.1693  0.2177
 7693TIP3    H144494   4.986   5.229   5.219 -2.2051 -0.4572  1.2373
 7693TIP3    H244495   5.052   5.108   5.282 -0.4878  0.0958  0.5181
 7694TIP3   OH244496   1.059   4.748  12.432  0.1187 -0.5366  0.3676
 7694TIP3    H144497   1.099   4.766  12.347 -1.5144 -1.8006 -0.7061
 7694TIP3    H244498   1.071   4.653  12.445 -0.4455 -0.5103  1.1211
 7695TIP3   OH244499   5.321   4.675   0.487 -0.0807 -0.5379  0.4436
 7695TIP3    H144500   5.301   4.721   0.405  0.9779 -1.0856 -0.1353
 7695TIP3    H244501   5.323   4.582   0.462 -2.0989 -0.8983  1.5822
 7696TIP3   OH244502   0.721   4.654  14.883  0.3687 -0.4288 -0.4710
 7696TIP3    H144503   0.652   4.615  14.936 -0.1166  0.9265 -0.0839
 7696TIP3    H244504   0.676   4.692  14.808  0.7073  0.2977 -0.3147
 7697TIP3   OH244505   0.168   6.402  12.494  0.0926 -0.2083 -0.8509
 7697TIP3    H144506   0.181   6.396  12.400 -0.2117  0.0950 -0.9153
 7697TIP3    H244507   0.183   6.313  12.526 -0.5975 -0.4920 -1.2896
 7698TIP3   OH244508   6.732   1.486   1.138 -0.4735  0.6181  0.5877
 7698TIP3    H144509   6.677   1.433   1.196  0.2947 -0.2782  0.5199
 7698TIP3    H244510   6.792   1.531   1.198  2.0900 -2.3463  0.4074
 7699TIP3   OH244511   3.375   5.203   1.881  0.4808  0.0553 -0.5939
 7699TIP3    H144512   3.297   5.257   1.891  0.2719  0.0267 -1.9111
 7699TIP3    H244513   3.447   5.259   1.910  0.7709  2.6135 -5.6191
 7700TIP3   OH244514   4.061   3.924  16.835 -0.2349 -0.6994 -0.3955
 7700TIP3    H144515   4.090   4.015  16.835  0.0434 -0.7584  2.2169
 7700TIP3    H244516   4.092   3.889  16.751 -0.1535  1.5338 -1.3205
 7701TIP3   OH244517   4.408   1.675   2.216  0.2165  0.2311  0.4281
 7701TIP3    H144518   4.422   1.724   2.297 -0.1182  0.2163  0.4924
 7701TIP3    H244519   4.359   1.735   2.160 -1.6369 -0.6407  1.1081
 7702TIP3   OH244520   2.316   1.157   1.424 -0.2183  0.6682  0.0080
 7702TIP3    H144521   2.268   1.085   1.385  0.1737  0.9452 -1.0122
 7702TIP3    H244522   2.253   1.200   1.482 -1.8174  2.2084 -2.7798
 7703TIP3   OH244523   3.664   0.568   3.588 -0.1805  0.5700  0.1146
 7703TIP3    H144524   3.689   0.649   3.633 -0.4204 -0.4661  2.1738
 7703TIP3    H244525   3.572   0.555   3.612 -0.4576  0.2434 -1.1007
 7704TIP3   OH244526   5.620   6.046   0.390 -0.8811  0.7004  0.4482
 7704TIP3    H144527   5.680   5.986   0.434 -1.2461 -0.2452 -0.3129
 7704TIP3    H244528   5.640   6.037   0.297 -0.2908  2.4976  0.3836
 7705TIP3   OH244529   1.449   4.222  12.669  0.2307 -0.6307  0.3259
 7705TIP3    H144530   1.375   4.170  12.699 -0.2643 -0.8869 -1.2943
 7705TIP3    H244531   1.419   4.261  12.587  1.2912  0.6393  0.5268
 7706TIP3   OH244532   1.204   3.940  12.463 -0.3547  0.2403 -0.7467
 7706TIP3    H144533   1.264   3.911  12.531  2.2195  1.6486 -2.3242
 7706TIP3    H244534   1.176   3.859  12.420 -0.0174 -0.4815  0.3750
 7707TIP3   OH244535   6.296   2.487  14.522 -0.4076 -0.1145  0.5316
 7707TIP3    H144536   6.384   2.456  14.542 -1.0521 -1.5024  1.4052
 7707TIP3    H244537   6.275   2.446  14.438 -0.5410 -0.5339  0.7632
 7708TIP3   OH244538   3.975   4.947   3.693  0.6881  0.9236  0.0849
 7708TIP3    H144539   3.906   4.963   3.757  0.4142  0.3992 -0.0836
 7708TIP3    H244540   4.054   4.983   3.735 -0.2711  4.6326 -1.1637
 7709TIP3   OH244541   5.503   5.016  11.671  0.8539  0.2545  0.5821
 7709TIP3    H144542   5.556   5.002  11.749  0.3237  0.6039  1.0081
 7709TIP3    H244543   5.515   4.936  11.619  1.1617  0.0047  1.0408
 7710TIP3   OH244544   6.118   4.269  10.889  0.1220 -0.0934 -0.3172
 7710TIP3    H144545   6.160   4.195  10.846  0.4405  0.2488 -0.6010
 7710TIP3    H244546   6.179   4.342  10.877 -0.8498  0.5787 -1.3097
 7711TIP3   OH244547   1.921   6.702  13.680  0.0996  0.1159  0.4667
 7711TIP3    H144548   1.939   6.734  13.769  0.4976  0.3287  0.3066
 7711TIP3    H244549   1.856   6.633  13.693 -0.1540  0.4292  0.8886
 7712TIP3   OH244550   6.260   5.825  14.410 -0.1187 -0.0291  0.4577
 7712TIP3    H144551   6.169   5.800  14.399 -0.2399  0.1429  1.0349
 7712TIP3    H244552   6.272   5.830  14.505  0.1914  1.0373  0.3702
 7713TIP3   OH244553   3.470   4.025  16.656  0.3507 -0.2168 -0.3800
 7713TIP3    H144554   3.488   4.072  16.575  2.1007  1.0588  0.7127
 7713TIP3    H244555   3.408   3.956  16.631  0.4045  0.5320 -2.6594
 7714TIP3   OH244556   6.534   1.845   3.682 -0.0536  0.2263 -0.0153
 7714TIP3    H144557   6.447   1.853   3.721  0.1544  0.2196  0.4530
 7714TIP3    H244558   6.522   1.869   3.590 -0.7054 -0.5349 -0.1366
 7715TIP3   OH244559   5.984   6.014   2.742 -0.8157  0.0673 -0.1104
 7715TIP3    H144560   5.912   6.049   2.691 -1.8703 -0.6130  0.9002
 7715TIP3    H244561   5.944   5.984   2.824  0.7991  1.0040  1.0732
 7716TIP3   OH244562   6.103   1.894  16.747 -0.8412 -0.6009  0.1018
 7716TIP3    H144563   6.117   1.984  16.777 -0.9791 -0.5230 -0.0734
 7716TIP3    H244564   6.085   1.901  16.654 -2.0520 -0.7110  0.3212
 7717TIP3   OH244565   4.660   0.842  15.439 -0.1173 -0.1589  0.0456
 7717TIP3    H144566   4.635   0.865  15.350  1.7230 -0.8149 -0.6571
 7717TIP3    H244567   4.633   0.750  15.448  0.3303 -0.3013 -0.0715
 7718TIP3   OH244568   5.841   6.329   1.436 -0.5557 -0.0226  0.0093
 7718TIP3    H144569   5.781   6.349   1.364 -0.9861  1.5558  0.7804
 7718TIP3    H244570   5.785   6.326   1.514  0.2125  0.5108  0.5937
 7719TIP3   OH244571   0.162   4.382   0.424 -0.6705 -0.0924 -0.0986
 7719TIP3    H144572   0.102   4.347   0.357  1.4572  0.0232 -2.1262
 7719TIP3    H244573   0.245   4.393   0.378  0.6872  0.5945  2.4475
 7720TIP3   OH244574   3.943   4.264  14.144  0.1876 -0.7909 -0.3505
 7720TIP3    H144575   4.037   4.262  14.128  0.4381 -0.3203  0.9437
 7720TIP3    H244576   3.930   4.341  14.200 -0.9389 -0.9607 -0.3594
 7721TIP3   OH244577   5.586   0.164  14.388 -0.2873  0.0876  0.0854
 7721TIP3    H144578   5.598   0.244  14.439 -0.2151  0.0716  0.0936
 7721TIP3    H244579   5.491   0.155  14.379 -0.2893  0.3347 -0.1651
 7722TIP3   OH244580   3.366   2.036  16.203 -0.2141  0.1884 -0.4977
 7722TIP3    H144581   3.420   2.115  16.204  1.8112 -1.1851 -0.2337
 7722TIP3    H244582   3.336   2.029  16.112  0.3825  0.7139 -0.7335
 7723TIP3   OH244583   1.805   3.993  16.094  0.2047  0.0354 -0.0765
 7723TIP3    H144584   1.762   4.003  16.009 -2.3714  0.4332  1.2125
 7723TIP3    H244585   1.834   4.082  16.116 -0.7493  0.2796  0.2470
 7724TIP3   OH244586   4.390   5.465  11.941 -0.1961  0.3224 -0.0067
 7724TIP3    H144587   4.427   5.530  11.881  1.2328 -0.2399  0.2280
 7724TIP3    H244588   4.406   5.381  11.897 -2.0032  0.1053 -0.2987
 7725TIP3   OH244589   0.032   1.921  14.497 -0.0617 -0.5168 -0.1776
 7725TIP3    H144590   0.094   1.855  14.529 -1.2657 -0.7520  1.7109
 7725TIP3    H244591  -0.052   1.876  14.494 -0.7016  0.6428  0.1292
 7726TIP3   OH244592   0.403   4.453  13.519 -0.3272  0.1445  0.5254
 7726TIP3    H144593   0.379   4.413  13.435 -2.8845  0.5304  1.0294
 7726TIP3    H244594   0.346   4.530  13.526  0.5368  0.6525  2.1627
 7727TIP3   OH244595   6.648   1.540  13.308 -0.4211 -1.0596 -1.0758
 7727TIP3    H144596   6.702   1.561  13.231  0.4705 -2.6879 -0.9132
 7727TIP3    H244597   6.622   1.449  13.294 -1.6983 -0.8087 -0.2924
 7728TIP3   OH244598   0.490   0.030   1.674 -0.5354  0.3040  0.0750
 7728TIP3    H144599   0.441  -0.047   1.705 -0.8379 -0.4873 -2.2974
 7728TIP3    H244600   0.492   0.089   1.750 -1.0092 -1.6834  1.6755
 7729TIP3   OH244601   2.208   5.611   2.954  0.0208  0.0283  0.0777
 7729TIP3    H144602   2.226   5.668   3.029 -0.0861  2.3591 -1.6046
 7729TIP3    H244603   2.120   5.636   2.926  0.0368 -0.8578 -0.7732
 7730TIP3   OH244604   2.501   3.341  13.446 -0.2152  0.7388 -0.9052
 7730TIP3    H144605   2.422   3.351  13.499 -1.4054  1.6250 -2.7929
 7730TIP3    H244606   2.515   3.428  13.408  1.3396  0.4332 -1.0670
 7731TIP3   OH244607   1.909   5.415   5.908 -0.2936  0.2547 -0.1338
 7731TIP3    H144608   1.930   5.508   5.907 -0.4468  0.2841 -1.2980
 7731TIP3    H244609   1.815   5.411   5.923 -0.2195  0.2737  0.3379
 7732TIP3   OH244610   4.999   3.259  13.234 -0.0405  0.9212  0.0628
 7732TIP3    H144611   4.918   3.308  13.249 -0.0376  1.0621 -0.3770
 7732TIP3    H244612   4.991   3.227  13.144  0.2757  0.7157  0.1083
 7733TIP3   OH244613   4.477   1.877   0.552  0.0017  0.9227 -0.0382
 7733TIP3    H144614   4.455   1.917   0.468  2.0336  0.3913 -0.8459
 7733TIP3    H244615   4.394   1.871   0.598 -1.9842 -2.9427 -3.7946
 7734TIP3   OH244616   1.949   4.707  14.102  0.0552  0.2885  0.0885
 7734TIP3    H144617   1.980   4.655  14.176 -0.4872 -0.2603 -0.0661
 7734TIP3    H244618   1.878   4.655  14.064  2.1788 -0.8029 -2.5528
 7735TIP3   OH244619   1.404   5.163   2.407  0.5832 -0.1175  0.4015
 7735TIP3    H144620   1.421   5.216   2.329 -0.6999  0.1761  0.3113
 7735TIP3    H244621   1.380   5.227   2.475  0.6262 -0.4501  0.7317
 7736TIP3   OH244622   6.420   3.113  15.777 -0.1100 -0.4129 -0.5820
 7736TIP3    H144623   6.482   3.046  15.749 -0.0341 -0.5292 -0.1366
 7736TIP3    H244624   6.378   3.141  15.696 -0.5757 -1.4319 -0.7079
 7737TIP3   OH244625   2.805   3.225   3.150  0.3241 -0.0594  0.0145
 7737TIP3    H144626   2.829   3.257   3.063  0.2490  2.2479  0.8042
 7737TIP3    H244627   2.884   3.239   3.204 -0.4399  0.9147  0.9071
 7738TIP3   OH244628   5.330   3.907   2.298  0.0937 -0.0400  0.6904
 7738TIP3    H144629   5.269   3.879   2.366  0.7853  0.4763  1.5259
 7738TIP3    H244630   5.303   3.857   2.220 -0.0246 -1.4414  1.6042
 7739TIP3   OH244631   0.415   0.238   0.063  0.2031  0.0194  0.4461
 7739TIP3    H144632   0.484   0.222   0.127  1.9676  0.6557 -1.2596
 7739TIP3    H244633   0.435   0.324   0.027 -0.1674 -0.7793 -1.7152
 7740TIP3   OH244634   6.338   6.769   0.955  0.2428  0.1286 -0.2640
 7740TIP3    H144635   6.278   6.841   0.979  0.4063  0.4532 -0.8017
 7740TIP3    H244636   6.280   6.699   0.926  0.0266 -0.4584  1.5564
 7741TIP3   OH244637   1.377   6.103   2.164  0.4198 -0.3748  0.3761
 7741TIP3    H144638   1.441   6.173   2.154 -0.4907  0.5338  0.7927
 7741TIP3    H244639   1.302   6.145   2.207 -0.8902 -1.1369 -1.0912
 7742TIP3   OH244640   6.598   0.825  13.757  0.0256  0.4589 -0.5894
 7742TIP3    H144641   6.614   0.877  13.835 -0.1124 -0.4142  0.0208
 7742TIP3    H244642   6.599   0.889  13.685 -1.3385  1.4656  0.2775
 7743TIP3   OH244643   2.706   0.153   1.240  0.2242  0.3368 -0.6410
 7743TIP3    H144644   2.616   0.170   1.212 -0.2895  0.8451  1.2889
 7743TIP3    H244645   2.760   0.197   1.173 -0.9732  1.1780 -1.0723
 7744TIP3   OH244646   2.069   2.011  11.492  0.3135  0.1325  0.3579
 7744TIP3    H144647   2.021   2.074  11.546 -0.1171 -1.5159  1.9095
 7744TIP3    H244648   2.061   2.046  11.403 -0.4487  1.9424  1.1057
 7745TIP3   OH244649   0.409   6.066  13.500 -0.4293  0.1516 -0.6219
 7745TIP3    H144650   0.443   6.103  13.418  0.5953  0.1518 -0.1969
 7745TIP3    H244651   0.315   6.083  13.496 -0.8593 -2.5100 -3.2130
 7746TIP3   OH244652   1.777   4.568   0.513  0.1460  0.0422  0.4009
 7746TIP3    H144653   1.871   4.552   0.522  0.2170  1.3097  2.0370
 7746TIP3    H244654   1.739   4.482   0.499  1.7266 -0.3293 -1.9976
 7747TIP3   OH244655   6.370   2.172   1.842 -0.4984 -0.2464  0.1988
 7747TIP3    H144656   6.288   2.124   1.832 -1.7399  1.3563  2.2575
 7747TIP3    H244657   6.400   2.153   1.931  1.0830 -0.3743 -0.3373
 7748TIP3   OH244658   1.099   1.262   4.694  0.1469 -0.0218 -0.7197
 7748TIP3    H144659   1.108   1.348   4.737  1.8807  0.2494 -1.5767
 7748TIP3    H244660   1.086   1.284   4.601  1.2912 -0.6802 -1.0455
 7749TIP3   OH244661   4.988   1.682  13.368 -0.0408  0.3112  0.6445
 7749TIP3    H144662   5.052   1.736  13.322  2.6044 -2.0617  1.3931
 7749TIP3    H244663   4.987   1.717  13.458  1.0992 -0.3873  0.9346
 7750TIP3   OH244664   3.155   2.422   2.872 -0.5313  0.9423 -0.0464
 7750TIP3    H144665   3.174   2.357   2.805  1.0345  1.0284  0.3003
 7750TIP3    H244666   3.075   2.389   2.915  0.3517 -0.8735  0.2702
 7751TIP3   OH244667   4.577   0.919  15.180 -0.1217  0.2122 -0.3865
 7751TIP3    H144668   4.532   0.863  15.117  1.4461 -0.2687 -1.1196
 7751TIP3    H244669   4.670   0.911  15.157  0.5102 -0.1321  2.1125
 7752TIP3   OH244670   6.339   6.149   3.702  0.9311  0.4296  0.1246
 7752TIP3    H144671   6.354   6.077   3.765  2.2253 -0.4879 -1.1945
 7752TIP3    H244672   6.427   6.182   3.683  0.4856  1.1709 -0.6677
 7753TIP3   OH244673   0.429   3.062   2.710 -0.0823 -0.2787 -0.6094
 7753TIP3    H144674   0.507   3.014   2.681  0.0697 -1.0834  1.0596
 7753TIP3    H244675   0.358   2.998   2.702  0.1062 -0.7845  1.5388
 7754TIP3   OH244676   5.524   4.245   3.277  0.1679 -0.0436  0.3407
 7754TIP3    H144677   5.490   4.161   3.247  0.5555 -0.0475 -0.0833
 7754TIP3    H244678   5.570   4.281   3.201 -2.0258  1.6425 -0.2577
 7755TIP3   OH244679   5.505   3.382   1.485 -0.0752 -0.5373  0.2262
 7755TIP3    H144680   5.554   3.443   1.429  0.9072 -0.7256  0.8784
 7755TIP3    H244681   5.429   3.358   1.432 -0.1787  0.8182 -0.2618
 7756TIP3   OH244682   2.211   5.407  14.918 -0.1693  0.1301 -0.2879
 7756TIP3    H144683   2.254   5.414  14.833  0.8740  1.5021  0.3317
 7756TIP3    H244684   2.137   5.467  14.912 -0.8048 -0.6838 -0.6402
 7757TIP3   OH244685   3.334   6.076  12.944  0.2030 -0.2592 -0.6053
 7757TIP3    H144686   3.343   5.981  12.946  0.4277 -0.2221  1.4164
 7757TIP3    H244687   3.273   6.096  13.015  1.5089  1.2274  0.1358
 7758TIP3   OH244688   3.932   5.404   2.571 -0.4917  0.4132  0.3868
 7758TIP3    H144689   3.982   5.474   2.612  0.2771  0.0432  0.1064
 7758TIP3    H244690   3.997   5.357   2.518 -1.1176 -0.1466  0.1118
 7759TIP3   OH244691   2.511   2.448  13.404  0.0855  0.1209  0.5366
 7759TIP3    H144692   2.433   2.393  13.395  1.2205 -1.4708  0.1483
 7759TIP3    H244693   2.550   2.450  13.316  0.6704  0.6015  0.7990
 7760TIP3   OH244694   3.954   6.144  11.213 -0.0396  0.2262  0.2102
 7760TIP3    H144695   3.984   6.234  11.227  1.5729  0.1365 -2.3341
 7760TIP3    H244696   3.956   6.133  11.118  0.9185 -2.8573  0.5377
 7761TIP3   OH244697   5.059   0.140   4.169 -0.3817  0.0973  0.3714
 7761TIP3    H144698   5.034   0.115   4.257  1.3238  0.8758  1.1033
 7761TIP3    H244699   4.988   0.196   4.139 -0.4818  0.6690  1.6480
 7762TIP3   OH244700   5.061   4.396   1.995  0.5103 -0.1675  0.0369
 7762TIP3    H144701   5.132   4.372   1.935 -0.7425 -0.5763 -1.3086
 7762TIP3    H244702   5.021   4.473   1.954  1.5848  1.4692  1.9537
 7763TIP3   OH244703   2.409   4.505   5.579 -0.0203  0.3179  0.2347
 7763TIP3    H144704   2.389   4.422   5.536  1.1799  0.2427 -0.2173
 7763TIP3    H244705   2.378   4.494   5.669  1.8409 -1.3412  0.7122
 7764TIP3   OH244706   5.180   5.458   1.593  0.3774 -0.3936  0.5192
 7764TIP3    H144707   5.154   5.378   1.638  0.6147 -1.1904 -0.7438
 7764TIP3    H244708   5.220   5.429   1.511  0.4493  1.0082  0.0275
 7765TIP3   OH244709   2.856   1.245  16.397 -0.0111  0.0049 -0.9735
 7765TIP3    H144710   2.881   1.184  16.328 -0.3765 -1.6371  0.3158
 7765TIP3    H244711   2.927   1.240  16.460 -0.6288  0.0020 -0.2782
 7766TIP3   OH244712   4.904   3.844  13.642  0.0069  0.1502  0.3077
 7766TIP3    H144713   4.904   3.890  13.726 -0.9920 -0.8285  0.8454
 7766TIP3    H244714   4.879   3.754  13.663 -0.9508  0.0656 -1.1280
 7767TIP3   OH244715   1.399   0.018  11.547  0.7830  0.2353  0.1857
 7767TIP3    H144716   1.437   0.067  11.474 -2.1737  1.1740 -0.7817
 7767TIP3    H244717   1.420   0.071  11.624  0.7100  1.1649 -0.4197
 7768TIP3   OH244718   4.690   4.502  11.812  0.8785  0.1429 -0.5961
 7768TIP3    H144719   4.763   4.564  11.822  1.0730 -0.2216  0.2456
 7768TIP3    H244720   4.697   4.444  11.888 -1.4667  1.3235  0.5731
 7769TIP3   OH244721   2.654   2.812   4.494 -0.0679  0.4837  0.2582
 7769TIP3    H144722   2.622   2.757   4.422 -1.0082  0.6672  0.5272
 7769TIP3    H244723   2.749   2.804   4.490 -0.1814 -0.9358  0.1047
 7770TIP3   OH244724   1.215   2.984   2.631  0.2889  0.0885  0.0553
 7770TIP3    H144725   1.134   2.951   2.669  0.4422 -0.8906 -0.4640
 7770TIP3    H244726   1.186   3.057   2.575 -0.0810  0.6139  0.9153
 7771TIP3   OH244727   3.219   4.412  15.035  0.0234 -0.4202 -0.2933
 7771TIP3    H144728   3.183   4.402  14.947 -1.5351  0.0296  0.2808
 7771TIP3    H244729   3.204   4.504  15.057  0.6465 -0.4617  0.3491
 7772TIP3   OH244730   3.605   2.178   0.152 -0.3877  0.7371 -0.2500
 7772TIP3    H144731   3.574   2.109   0.211 -0.4031  0.1014 -0.9811
 7772TIP3    H244732   3.668   2.134   0.095  0.1065  1.4877 -0.2892
 7773TIP3   OH244733   3.183   0.584  13.458 -0.6153 -0.0145 -0.3604
 7773TIP3    H144734   3.205   0.494  13.434  0.8829 -0.6381  3.0514
 7773TIP3    H244735   3.115   0.609  13.396 -0.6551 -3.2879 -1.7484
 7774TIP3   OH244736   0.801   4.864  13.408  0.5257 -0.0768 -0.0919
 7774TIP3    H144737   0.792   4.958  13.394 -0.6497  0.0948  1.7575
 7774TIP3    H244738   0.875   4.856  13.469  1.1304 -0.4216 -0.8519
 7775TIP3   OH244739   4.627   5.890   2.430 -0.6556 -0.2182 -0.7239
 7775TIP3    H144740   4.609   5.813   2.376 -0.9955  0.5367 -1.7077
 7775TIP3    H244741   4.540   5.926   2.449 -0.5093 -0.2063 -0.0887
 7776TIP3   OH244742   6.154   1.607  13.520  0.2650 -0.0131  0.3668
 7776TIP3    H144743   6.128   1.689  13.478  0.7086  0.0252  0.1586
 7776TIP3    H244744   6.199   1.559  13.450 -1.8176 -1.3301 -0.1064
 7777TIP3   OH244745   2.058   6.102  14.547  0.6217 -0.5107  0.6567
 7777TIP3    H144746   2.032   6.020  14.506  0.6519 -0.8055  1.2197
 7777TIP3    H244747   2.098   6.153  14.476  0.6514 -1.0007  0.3187
 7778TIP3   OH244748   3.342   0.810  14.051  0.0233 -0.1982 -0.0194
 7778TIP3    H144749   3.292   0.866  13.991  1.1126 -0.5626 -1.3113
 7778TIP3    H244750   3.284   0.797  14.126 -0.8105  1.4692 -0.3449
 7779TIP3   OH244751   4.414   4.958   4.217  0.0484 -0.3101  0.3734
 7779TIP3    H144752   4.367   4.978   4.298  0.8789 -0.7630  0.9796
 7779TIP3    H244753   4.493   4.913   4.246  0.3973 -0.3993 -0.6915
 7780TIP3   OH244754   2.365   5.611   4.948  0.6568 -0.5935  0.0777
 7780TIP3    H144755   2.338   5.519   4.954  0.4209 -0.5749 -0.6246
 7780TIP3    H244756   2.317   5.645   4.872  0.6414  0.1448  0.4169
 7781TIP3   OH244757   1.589   0.117  16.602  0.1961  0.0537  0.0196
 7781TIP3    H144758   1.674   0.100  16.643  0.8232  0.4277 -1.0893
 7781TIP3    H244759   1.611   0.156  16.517 -1.0244 -1.8319 -1.1963
 7782TIP3   OH244760   5.754   4.139   3.095 -0.1629  0.1337  0.1180
 7782TIP3    H144761   5.680   4.194   3.068  0.4596 -0.9096 -4.0708
 7782TIP3    H244762   5.829   4.198   3.095 -0.2346  0.2230 -0.0019
 7783TIP3   OH244763   5.769   3.904  15.315  0.1091 -0.4840 -0.9369
 7783TIP3    H144764   5.837   3.899  15.248  1.3193  1.4983  0.0876
 7783TIP3    H244765   5.698   3.953  15.274  0.5445  0.0759 -1.0335
 7784TIP3   OH244766   4.053   2.964  12.051  0.1499  0.5283  1.3181
 7784TIP3    H144767   3.970   2.963  12.004 -0.0898  0.4525  1.7435
 7784TIP3    H244768   4.032   2.999  12.137  0.7872  1.7160  1.0015
 7785TIP3   OH244769   5.135   3.912  12.575 -0.0565  1.0645 -0.2415
 7785TIP3    H144770   5.099   3.878  12.493  0.1903  1.1164 -0.3701
 7785TIP3    H244771   5.198   3.979  12.548  0.1699  0.9436 -0.0160
 7786TIP3   OH244772   1.955   4.047   1.674 -0.1889 -0.5057  0.4001
 7786TIP3    H144773   2.000   3.993   1.609 -0.0392 -1.3764  1.2205
 7786TIP3    H244774   1.933   3.987   1.745  0.7915  0.6879  1.7481
 7787TIP3   OH244775   1.204   0.135   1.574  0.4911  0.2743  0.4450
 7787TIP3    H144776   1.249   0.109   1.493 -2.2903  0.1734 -1.1228
 7787TIP3    H244777   1.186   0.228   1.562 -1.3491 -0.0945  0.2232
 7788TIP3   OH244778   6.106   0.262   0.007 -0.4856  0.1871  0.2454
 7788TIP3    H144779   6.181   0.276   0.066 -0.9982  2.0780  0.5020
 7788TIP3    H244780   6.065   0.182   0.039  1.1158 -0.5781  0.4328
 7789TIP3   OH244781   1.995   4.468   2.389  0.2616 -0.2341 -0.4307
 7789TIP3    H144782   2.087   4.442   2.390  0.3256 -0.0203  0.8635
 7789TIP3    H244783   1.998   4.564   2.388  0.0852 -0.1889  1.3065
 7790TIP3   OH244784   5.295   0.117   4.995  0.8939  0.0082  0.4132
 7790TIP3    H144785   5.370   0.079   4.950  1.3738  0.9754  0.3970
 7790TIP3    H244786   5.238   0.148   4.925  0.2227 -1.1983  0.4113
 7791TIP3   OH244787   5.135   0.360   0.834  0.4248  0.9302 -0.3167
 7791TIP3    H144788   5.044   0.361   0.865  0.3486  1.0088 -0.5494
 7791TIP3    H244789   5.143   0.277   0.787  0.0165  1.6565 -1.6968
 7792TIP3   OH244790   5.921   4.656  12.571 -0.2912 -0.1168  0.3376
 7792TIP3    H144791   5.970   4.588  12.525 -1.3613  0.6041 -1.9791
 7792TIP3    H244792   5.830   4.639  12.549 -0.5946  1.9422 -0.1679
 7793TIP3   OH244793   3.778   6.734  11.856 -0.4256 -0.6255 -0.1107
 7793TIP3    H144794   3.769   6.676  11.780 -2.6167 -1.4594  0.7278
 7793TIP3    H244795   3.755   6.678  11.931  1.9171  0.1190  1.2186
 7794TIP3   OH244796   0.845   2.295   4.036 -0.2271  0.1382  0.0896
 7794TIP3    H144797   0.819   2.245   3.958  3.3077  0.6395 -1.4920
 7794TIP3    H244798   0.865   2.382   4.003  2.7528 -0.0448  1.3013
 7795TIP3   OH244799   4.826   5.787  16.539 -0.1313  0.2689  0.1041
 7795TIP3    H144800   4.864   5.731  16.606  2.0071  1.6160  0.0537
 7795TIP3    H244801   4.771   5.849  16.589  2.8575  2.4206  0.8789
 7796TIP3   OH244802   6.649   3.261  12.708 -0.0652 -0.5199 -0.0142
 7796TIP3    H144803   6.604   3.329  12.760 -0.5007  0.2326 -1.3547
 7796TIP3    H244804   6.577   3.212  12.668  0.2844 -0.7222 -0.3838
 7797TIP3   OH244805   3.717   0.553  13.911 -0.1126  0.0921 -0.3438
 7797TIP3    H144806   3.717   0.521  13.820 -0.1127 -0.8411 -0.0209
 7797TIP3    H244807   3.808   0.579  13.927 -0.0629  0.0315 -0.5290
 7798TIP3   OH244808   0.245   4.027  13.143 -0.6353 -0.1259 -0.1767
 7798TIP3    H144809   0.161   4.011  13.100 -0.1105  0.7570 -1.5751
 7798TIP3    H244810   0.308   4.029  13.071  0.6582 -1.2610  0.8958
 7799TIP3   OH244811   3.374   0.014  11.121  0.0358 -0.6166 -0.5248
 7799TIP3    H144812   3.358  -0.035  11.201 -1.3128 -1.3625 -1.2325
 7799TIP3    H244813   3.354  -0.048  11.051  1.8877 -0.2082 -1.4463
 7800TIP3   OH244814   4.720   3.480   0.153 -0.0315 -0.5039 -0.0337
 7800TIP3    H144815   4.659   3.489   0.227 -0.7626 -2.8146 -0.3087
 7800TIP3    H244816   4.798   3.439   0.192  0.5658  0.5819 -0.0747
 7801TIP3   OH244817   4.749   5.517   6.294  0.5039 -0.4337  0.7662
 7801TIP3    H144818   4.812   5.576   6.253 -0.8645  0.3173 -0.2935
 7801TIP3    H244819   4.706   5.571   6.361 -0.5535 -0.2927 -0.0130
 7802TIP3   OH244820   5.197   2.111  17.020  0.1303 -0.3055  0.1640
 7802TIP3    H144821   5.248   2.062  16.956  1.8290  2.1063 -0.4030
 7802TIP3    H244822   5.140   2.046  17.061  1.0420 -2.3890 -1.7950
 7803TIP3   OH244823   6.147   1.807  15.633  0.2777 -0.2858 -0.1171
 7803TIP3    H144824   6.150   1.721  15.673 -0.4109 -0.2030  0.1200
 7803TIP3    H244825   6.203   1.862  15.688 -1.3911  0.0470  1.2604
 7804TIP3   OH244826   6.683   1.196  11.816 -0.0753  0.1319  0.1273
 7804TIP3    H144827   6.669   1.102  11.803  0.7245 -0.0300  0.4033
 7804TIP3    H244828   6.658   1.236  11.733 -0.3513 -0.3325 -0.0156
 7805TIP3   OH244829   2.349   4.094  14.815  0.4502  0.3652 -0.1504
 7805TIP3    H144830   2.420   4.060  14.761  2.8534 -0.4282  3.3454
 7805TIP3    H244831   2.367   4.188  14.823  0.7490  0.2694  0.2636
 7806TIP3   OH244832   1.521   4.204   4.679 -0.2188 -0.1487  0.0391
 7806TIP3    H144833   1.531   4.288   4.634  1.2394 -0.6232 -0.5386
 7806TIP3    H244834   1.547   4.221   4.769  0.5616 -0.0943 -0.1954
 7807TIP3   OH244835   3.465   4.275  15.547 -0.5924 -0.5845  0.3712
 7807TIP3    H144836   3.436   4.183  15.541 -0.6399 -0.6877  1.7733
 7807TIP3    H244837   3.507   4.293  15.464 -1.6481 -1.5195 -0.3840
 7808TIP3   OH244838   5.859   2.405  16.521 -0.1173  0.2657 -0.1119
 7808TIP3    H144839   5.778   2.441  16.558 -0.4639 -1.6443  1.0831
 7808TIP3    H244840   5.912   2.381  16.597  0.2288 -1.3870 -0.8439
 7809TIP3   OH244841   4.574   2.131   2.060  0.1457 -0.0186  0.1799
 7809TIP3    H144842   4.497   2.088   2.098  1.5986 -2.0675  0.9504
 7809TIP3    H244843   4.632   2.146   2.135  2.8973 -3.7855 -1.0368
 7810TIP3   OH244844   3.760   1.581   2.685 -0.3700  0.5090 -0.4560
 7810TIP3    H144845   3.735   1.543   2.601 -1.0119  0.8078 -0.3986
 7810TIP3    H244846   3.831   1.641   2.663 -0.4097  0.4453 -0.7597
 7811TIP3   OH244847   0.297   3.785   2.299 -0.3298  0.1842 -0.1903
 7811TIP3    H144848   0.389   3.796   2.325 -0.0892 -0.1906 -0.8636
 7811TIP3    H244849   0.278   3.693   2.319 -0.4220  0.1414 -0.4751
 7812TIP3   OH244850   4.022   5.392  10.809 -0.0080  0.5673 -0.0998
 7812TIP3    H144851   3.976   5.309  10.797  0.4742  0.2369  0.3136
 7812TIP3    H244852   3.969   5.440  10.873  0.3956  0.0494  0.6317
 7813TIP3   OH244853   1.938   5.840  13.453  0.4017  0.0695  0.0461
 7813TIP3    H144854   2.007   5.780  13.422 -0.7170 -0.7602 -0.8819
 7813TIP3    H244855   1.983   5.899  13.513  1.9748 -0.3223 -0.7202
 7814TIP3   OH244856   4.055   1.683  11.022 -0.7525 -0.2626  0.0538
 7814TIP3    H144857   4.074   1.597  11.059 -2.3137  0.3502  2.4222
 7814TIP3    H244858   3.997   1.665  10.948 -0.1974 -1.3172 -0.1351
 7815TIP3   OH244859   1.093   3.115  14.264 -0.3090 -0.0479  0.1986
 7815TIP3    H144860   1.172   3.068  14.238  1.0614  0.6033  2.9842
 7815TIP3    H244861   1.088   3.190  14.206  0.3574 -0.8263 -0.8719
 7816TIP3   OH244862   4.375   3.068   3.427 -0.6229 -0.0038 -0.2665
 7816TIP3    H144863   4.398   3.083   3.335 -0.0827 -2.6048 -0.5932
 7816TIP3    H244864   4.459   3.056   3.471 -0.9689 -2.8974 -0.2481
 7817TIP3   OH244865   3.510   5.589   0.181 -0.2647 -0.4312 -0.0041
 7817TIP3    H144866   3.498   5.496   0.200 -1.0943 -0.6048 -1.3678
 7817TIP3    H244867   3.465   5.634   0.253 -0.4958 -1.0756  0.2584
 7818TIP3   OH244868   5.461   1.855  15.775  0.0017 -0.6671  0.3595
 7818TIP3    H144869   5.511   1.793  15.827  0.8798  0.7074  1.1562
 7818TIP3    H244870   5.386   1.878  15.830 -0.3852 -1.1001  0.0182
 7819TIP3   OH244871   6.486   0.906   4.275  0.2962 -0.0950  0.0614
 7819TIP3    H144872   6.528   0.991   4.289 -1.7618  0.8698  0.4765
 7819TIP3    H244873   6.497   0.889   4.181  2.7958 -0.5317  0.3829
 7820TIP3   OH244874   6.771   6.714   2.612  0.5580 -0.7193  0.2279
 7820TIP3    H144875   6.678   6.691   2.608 -0.1639  2.0665 -0.2491
 7820TIP3    H244876   6.781   6.758   2.696  0.9375  0.9298 -0.6559
 7821TIP3   OH244877   6.489   0.104   0.546 -0.4243  0.2051 -0.3568
 7821TIP3    H144878   6.511   0.185   0.593 -1.0758  1.0441 -1.4765
 7821TIP3    H244879   6.533   0.112   0.462 -0.1842 -0.7837 -0.3262
 7822TIP3   OH244880   3.727   0.820   3.680 -0.6944 -0.2045  0.2083
 7822TIP3    H144881   3.677   0.900   3.661 -0.4973 -0.3907 -1.2001
 7822TIP3    H244882   3.797   0.848   3.738 -1.2620  0.4372  0.5954
 7823TIP3   OH244883   0.585   4.882   4.946  0.1322 -0.0338 -0.1625
 7823TIP3    H144884   0.497   4.845   4.947  0.2444 -0.3474 -1.2553
 7823TIP3    H244885   0.630   4.839   5.019 -0.8665  0.7752  0.9542
 7824TIP3   OH244886   2.766   1.969   3.979  0.2440  0.0041  0.2461
 7824TIP3    H144887   2.789   2.049   3.932 -0.4632  1.4355  2.2970
 7824TIP3    H244888   2.673   1.957   3.962  0.6317 -1.2056 -1.2108
 7825TIP3   OH244889   4.740   5.959   5.348  0.8978 -0.0708 -0.5803
 7825TIP3    H144890   4.681   5.906   5.295 -0.1724  1.3655 -0.8670
 7825TIP3    H244891   4.691   6.039   5.366  1.5400 -0.2041  1.9484
 7826TIP3   OH244892   0.109   3.092   5.796 -0.3924  0.1498  0.9122
 7826TIP3    H144893   0.086   3.174   5.753  0.8387 -0.3889 -0.8207
 7826TIP3    H244894   0.094   3.025   5.730  1.2334 -0.7318  1.4080
 7827TIP3   OH244895   5.076   3.942   5.836  0.1035 -0.4224 -0.0513
 7827TIP3    H144896   5.146   3.916   5.896  2.2576 -0.8889 -2.6971
 7827TIP3    H244897   5.057   3.862   5.786 -1.0952  0.1808 -0.5755
 7828TIP3   OH244898   5.256   5.429   0.944 -0.0312  0.0846  0.6878
 7828TIP3    H144899   5.216   5.446   0.859 -3.0752 -0.4722  1.9470
 7828TIP3    H244900   5.306   5.348   0.932 -1.3835 -0.6160 -0.2543
 7829TIP3   OH244901   0.469   3.388  16.578 -0.5138 -0.3542 -0.0999
 7829TIP3    H144902   0.455   3.316  16.640 -1.9254  0.0093  0.0098
 7829TIP3    H244903   0.551   3.366  16.533 -0.3743 -1.4714  0.6998
 7830TIP3   OH244904   1.172   3.323  13.746  0.4332  0.1051 -0.3307
 7830TIP3    H144905   1.238   3.259  13.719 -1.0715 -1.6908  0.1660
 7830TIP3    H244906   1.118   3.336  13.667 -1.2384 -1.7406  0.4763
 7831TIP3   OH244907   6.257   1.181  12.267 -0.1230  0.2363 -0.4320
 7831TIP3    H144908   6.207   1.123  12.324  0.9713 -0.5832 -0.2767
 7831TIP3    H244909   6.192   1.220  12.209 -0.9486 -0.7403 -0.1818
 7832TIP3   OH244910   3.651   3.512   2.607 -0.4154  0.0501  0.3180
 7832TIP3    H144911   3.687   3.441   2.553 -2.5077  0.1178 -1.2378
 7832TIP3    H244912   3.653   3.589   2.549 -1.5713  0.3993  0.7393
 7833TIP3   OH244913   2.198   2.673   1.188 -0.2903  0.3505 -0.0320
 7833TIP3    H144914   2.226   2.591   1.229 -2.2497 -0.9946 -1.3012
 7833TIP3    H244915   2.272   2.732   1.201  0.6909 -1.2279  1.9638
 7834TIP3   OH244916   3.376   1.762  14.671 -0.0131  0.0115  0.0144
 7834TIP3    H144917   3.310   1.721  14.614 -0.1134  0.3491 -0.1146
 7834TIP3    H244918   3.399   1.693  14.733 -1.2575  0.2100  0.7147
 7835TIP3   OH244919   5.770   4.957  12.686  0.0859  0.2131  0.0121
 7835TIP3    H144920   5.684   4.983  12.721 -0.9900 -1.0654 -1.6251
 7835TIP3    H244921   5.787   4.872  12.727  0.8673  0.7564  0.8190
 7836TIP3   OH244922   5.896   1.861   0.032 -0.5459 -0.1160  0.6525
 7836TIP3    H144923   5.979   1.861  -0.015 -1.3067 -0.0808 -0.7245
 7836TIP3    H244924   5.858   1.775   0.014 -1.6008  0.5092 -0.1873
 7837TIP3   OH244925   3.981   5.977   5.042  0.0494 -0.5729 -0.1081
 7837TIP3    H144926   4.000   5.934   5.126  0.7964  0.3905  0.2249
 7837TIP3    H244927   3.949   6.064   5.067 -1.7577 -1.0385 -0.7673
 7838TIP3   OH244928   2.837   0.797   5.029  0.3162  0.9859 -0.3156
 7838TIP3    H144929   2.842   0.774   5.122 -1.1532  0.7398 -0.2902
 7838TIP3    H244930   2.771   0.739   4.993 -0.4749  2.3617 -1.1310
 7839TIP3   OH244931   5.490   5.211   2.877  0.2946 -0.1088 -0.0899
 7839TIP3    H144932   5.410   5.212   2.929  0.1512 -0.2608 -0.3057
 7839TIP3    H244933   5.549   5.154   2.926 -0.0185 -0.6671 -0.3530
 7840TIP3   OH244934   4.452   2.373   1.937 -0.0340 -0.3317 -0.2433
 7840TIP3    H144935   4.507   2.422   1.998 -0.8383  0.6956 -0.3197
 7840TIP3    H244936   4.484   2.283   1.942  0.2462 -0.1595  1.3167
 7841TIP3   OH244937   5.795   0.770  14.578  0.6380  0.3184  0.2914
 7841TIP3    H144938   5.793   0.767  14.673  0.0785  0.8239  0.3062
 7841TIP3    H244939   5.705   0.794  14.554  1.0359  1.2059 -0.3162
 7842TIP3   OH244940   4.246   2.189   5.157  0.2014  0.1318  0.6230
 7842TIP3    H144941   4.331   2.157   5.127  0.7384 -0.4403  2.6808
 7842TIP3    H244942   4.262   2.221   5.246 -2.0875 -1.7168  1.7760
 7843TIP3   OH244943   3.997   0.579  15.937 -0.6411  0.7601 -0.1720
 7843TIP3    H144944   3.958   0.666  15.941 -2.4483  0.0341 -0.9874
 7843TIP3    H244945   4.025   0.569  15.846  1.8532  1.4255  0.5090
 7844TIP3   OH244946   5.186   2.085   0.115 -0.0384 -0.5665 -0.1618
 7844TIP3    H144947   5.127   2.040   0.055 -0.0491 -0.0539 -0.5330
 7844TIP3    H244948   5.177   2.178   0.093  0.4520 -0.4343  0.1874
 7845TIP3   OH244949   4.267   5.067   2.168  0.0585 -0.6637 -0.3232
 7845TIP3    H144950   4.347   5.091   2.215 -1.0965  1.7325  0.5021
 7845TIP3    H244951   4.211   5.028   2.234 -0.7222  0.7096 -0.1545
 7846TIP3   OH244952   6.456   3.114   0.572  0.6116  0.1535  0.1123
 7846TIP3    H144953   6.495   3.191   0.614 -0.3680  1.6095 -1.5365
 7846TIP3    H244954   6.363   3.119   0.595  0.5912 -0.6564  0.1936
 7847TIP3   OH244955   5.024   5.165   4.182 -0.0258  0.1353  0.0185
 7847TIP3    H144956   5.046   5.258   4.175  2.6761 -0.5921 -2.0377
 7847TIP3    H244957   5.036   5.144   4.275 -2.1864  2.1483  0.7953
 7848TIP3   OH244958   4.641   3.183   3.531 -0.5922  0.1300 -0.2287
 7848TIP3    H144959   4.694   3.196   3.453  1.7280  0.5261  1.3820
 7848TIP3    H244960   4.656   3.092   3.555  3.0348  1.4496  2.8249
 7849TIP3   OH244961   5.720   2.266   3.066  0.0816 -0.3390  0.1108
 7849TIP3    H144962   5.803   2.219   3.068  0.0311 -0.5050 -1.4425
 7849TIP3    H244963   5.721   2.319   3.146  1.0601 -1.3721  0.8017
 7850TIP3   OH244964   4.880   4.859  12.420 -0.1047 -0.0106  0.4366
 7850TIP3    H144965   4.839   4.905  12.347 -1.3553  0.1369  1.2176
 7850TIP3    H244966   4.861   4.766  12.403 -1.5940  0.1265  1.2852
 7851TIP3   OH244967   3.119   0.713  12.717  0.1612  0.1497 -0.4979
 7851TIP3    H144968   3.141   0.798  12.678  1.3263 -0.3723 -1.0136
 7851TIP3    H244969   3.200   0.662  12.709 -0.3584 -0.8122  0.3374
 7852TIP3   OH244970   3.544   1.298  16.913  0.3592  0.0009  0.8427
 7852TIP3    H144971   3.558   1.203  16.904  0.4485  0.1107 -0.2680
 7852TIP3    H244972   3.501   1.308  16.998  2.8820 -0.7649  2.2773
 7853TIP3   OH244973   4.627   2.419  12.761  0.3734  0.1373  0.4322
 7853TIP3    H144974   4.604   2.467  12.840 -0.6861 -2.1645  1.5740
 7853TIP3    H244975   4.576   2.459  12.691 -0.9544  0.2716  1.4770
 7854TIP3   OH244976   0.244   1.045   1.558  0.2473  0.1572 -0.2513
 7854TIP3    H144977   0.242   0.996   1.640  1.2474 -0.5927 -0.6566
 7854TIP3    H244978   0.275   0.981   1.493 -1.5681  0.4296 -1.4269
 7855TIP3   OH244979   0.465   2.323  16.134  0.3068 -0.0129  0.2028
 7855TIP3    H144980   0.378   2.362  16.122 -1.2973 -2.7647  2.1919
 7855TIP3    H244981   0.489   2.290  16.047 -0.0317  1.8792 -0.6376
 7856TIP3   OH244982   5.996   6.463  15.855  0.1475  0.1349  0.0571
 7856TIP3    H144983   6.056   6.404  15.810 -1.7562 -1.1595 -0.8247
 7856TIP3    H244984   6.009   6.445  15.948 -0.0406 -1.3241 -0.1874
 7857TIP3   OH244985   5.421   3.178  13.719  0.2387 -0.0414  0.0714
 7857TIP3    H144986   5.514   3.200  13.730  0.3661  0.2506 -1.5072
 7857TIP3    H244987   5.376   3.241  13.775  0.9696  0.1004  0.5118
 7858TIP3   OH244988   2.639   4.016  13.408 -0.2993 -0.6340 -0.3795
 7858TIP3    H144989   2.729   4.021  13.378  0.0323 -0.8509  0.5486
 7858TIP3    H244990   2.646   3.991  13.500 -1.3577 -2.4306 -0.7520
 7859TIP3   OH244991   6.547   3.124   0.202 -0.5290  0.4509  0.5332
 7859TIP3    H144992   6.539   3.168   0.117  2.2058  1.3018  0.6602
 7859TIP3    H244993   6.474   3.063   0.204 -0.7285  0.5095 -2.3822
 7860TIP3   OH244994   6.419   4.750  16.261  0.2870  0.3310 -0.0576
 7860TIP3    H144995   6.338   4.767  16.310  0.2254  1.5237 -0.5650
 7860TIP3    H244996   6.390   4.732  16.172  0.5183 -0.2415 -0.0190
 7861TIP3   OH244997   6.258   3.342  12.492  0.1094 -0.0953  0.7042
 7861TIP3    H144998   6.178   3.380  12.528 -0.0583 -0.6944  0.9519
 7861TIP3    H244999   6.248   3.352  12.397 -1.6319 -2.8877  0.5450
 7862TIP3   OH245000   4.930   0.792   2.670 -0.0994 -0.1005 -0.3675
 7862TIP3    H145001   4.852   0.836   2.704  0.1580 -1.0773  1.4921
 7862TIP3    H245002   5.003   0.850   2.694 -0.0746  0.0234 -0.7267
 7863TIP3   OH245003   0.177   2.780   4.010  0.1833 -0.3986  0.2814
 7863TIP3    H145004   0.137   2.849   3.958  0.6485 -0.1919  0.1888
 7863TIP3    H245005   0.213   2.825   4.087  0.7200 -0.4893  0.0909
 7864TIP3   OH245006   1.539   3.793  13.145  0.1237 -0.1359  0.1094
 7864TIP3    H145007   1.612   3.754  13.095 -0.2005  0.4882 -0.8550
 7864TIP3    H245008   1.536   3.884  13.116  0.3368  0.4002  1.7478
 7865TIP3   OH245009   1.474   2.870   0.098 -0.0348  0.8560  0.0897
 7865TIP3    H145010   1.500   2.910   0.181  0.3887 -0.6014  0.6669
 7865TIP3    H245011   1.543   2.806   0.079 -0.4068  0.7943 -1.1183
 7866TIP3   OH245012   4.978   5.325   0.534  0.0925 -0.2537  0.0980
 7866TIP3    H145013   4.974   5.247   0.478  1.5598 -0.6410  0.5138
 7866TIP3    H245014   5.021   5.391   0.479 -2.3420  0.6976 -0.7259
 7867TIP3   OH245015   3.767   3.992  12.769 -0.2740 -0.7142  0.1535
 7867TIP3    H145016   3.679   3.988  12.806 -0.5565  0.9915 -0.2799
 7867TIP3    H245017   3.773   4.080  12.732  0.3125 -2.0199 -3.0333
 7868TIP3   OH245018   6.707   3.063   3.116 -0.6976  0.2469  0.8628
 7868TIP3    H145019   6.752   3.128   3.170  0.9405 -0.0867 -0.0290
 7868TIP3    H245020   6.648   3.017   3.176  0.6101  0.3081  2.2246
 7869TIP3   OH245021   4.914   3.937   4.259  0.0043  0.1678  0.1109
 7869TIP3    H145022   4.887   3.890   4.180  0.7511 -1.9330  1.0618
 7869TIP3    H245023   4.901   3.873   4.330 -1.7601  2.3940  1.8627
 7870TIP3   OH245024   3.401   3.167  13.495  0.2855  0.2148 -0.0077
 7870TIP3    H145025   3.402   3.132  13.584 -1.5564 -1.1549 -0.5127
 7870TIP3    H245026   3.313   3.149  13.462  0.9992  0.5014 -2.1952
 7871TIP3   OH245027   1.432   2.416  15.590  0.1109  0.7434 -0.1288
 7871TIP3    H145028   1.496   2.415  15.661 -0.7853 -0.3174  0.6836
 7871TIP3    H245029   1.368   2.482  15.616 -0.7463 -0.3331  0.5495
 7872TIP3   OH245030   4.321   0.016  13.511  0.8529  0.0907 -0.2027
 7872TIP3    H145031   4.342  -0.027  13.429 -0.0648 -1.9863  0.6305
 7872TIP3    H245032   4.343  -0.048  13.579  1.0785  1.5587  1.1570
 7873TIP3   OH245033   5.098   3.087  16.683  0.5279 -0.0308 -0.1147
 7873TIP3    H145034   5.138   3.054  16.603 -1.9888 -0.8725 -1.0615
 7873TIP3    H245035   5.071   3.009  16.731 -0.4141  0.5336  0.2863
 7874TIP3   OH245036   4.536   3.977   4.374  0.4598  0.0905 -0.7003
 7874TIP3    H145037   4.576   4.015   4.296  2.8740 -1.3658 -0.2223
 7874TIP3    H245038   4.527   3.884   4.354 -0.9208  0.0564 -0.0269
 7875TIP3   OH245039   2.974   6.200  11.763 -0.4853 -0.4052  0.0821
 7875TIP3    H145040   3.007   6.270  11.707  0.1663 -2.0645 -1.6701
 7875TIP3    H245041   2.986   6.233  11.852 -0.2906  1.7387 -0.7053
 7876TIP3   OH245042   1.588   0.101  15.451 -0.0373  0.4188  0.8227
 7876TIP3    H145043   1.616   0.108  15.542 -0.5575 -0.6632  1.0712
 7876TIP3    H245044   1.653   0.043  15.410  0.6047  1.4727  0.3278
 7877TIP3   OH245045   1.790   1.677   1.043  0.1865  0.0945 -0.0019
 7877TIP3    H145046   1.748   1.627   1.113  1.9442 -0.1246  0.9347
 7877TIP3    H245047   1.718   1.715   0.993 -1.1085 -0.6276  1.2980
 7878TIP3   OH245048   5.190   3.565   1.530 -1.0503  0.1207  0.0096
 7878TIP3    H145049   5.096   3.549   1.529 -2.1073  5.4058 -1.1771
 7878TIP3    H245050   5.211   3.584   1.621 -1.8825  2.2661 -0.2102
 7879TIP3   OH245051   5.139   2.400   2.275 -0.3256 -0.6720  0.1959
 7879TIP3    H145052   5.116   2.311   2.250  2.1846 -2.1323  2.7662
 7879TIP3    H245053   5.096   2.412   2.360  0.3888  0.0657  0.4610
 7880TIP3   OH245054   0.611   2.394   2.626  0.3393 -0.0639 -0.2275
 7880TIP3    H145055   0.702   2.414   2.644  0.9603 -0.2142 -3.0164
 7880TIP3    H245056   0.603   2.300   2.644  0.2010  0.3479  1.9722
 7881TIP3   OH245057   0.324   0.372   3.922 -0.1300 -0.1304  0.2478
 7881TIP3    H145058   0.399   0.362   3.864  1.2278 -1.5958  2.2237
 7881TIP3    H245059   0.273   0.291   3.911 -1.5388  0.9107 -1.1878
 7882TIP3   OH245060   6.499   5.883   2.024  0.4998 -0.0407 -0.4870
 7882TIP3    H145061   6.511   5.978   2.030 -0.5540  0.0072  1.0748
 7882TIP3    H245062   6.517   5.851   2.112  0.3920 -1.2459 -0.8900
 7883TIP3   OH245063   1.183   0.829  13.295 -0.0194  0.0295 -0.3944
 7883TIP3    H145064   1.214   0.880  13.220  1.6890 -1.2987 -0.6315
 7883TIP3    H245065   1.224   0.870  13.371 -1.1103  0.8820 -0.2547
 7884TIP3   OH245066   4.887   0.120  14.856  0.8911 -0.1052  0.5920
 7884TIP3    H145067   4.823   0.183  14.887  0.4044 -0.0627 -0.5039
 7884TIP3    H245068   4.969   0.169  14.851  0.4684  0.4886 -0.4634
 7885TIP3   OH245069   2.330   4.014  12.078 -0.2696  0.6642 -0.7613
 7885TIP3    H145070   2.415   3.988  12.043 -0.0609  0.0196  0.2062
 7885TIP3    H245071   2.279   4.039  12.002  0.7842  1.0454 -1.3577
 7886TIP3   OH245072   4.096   0.508  15.281 -0.4934  0.2827 -0.2602
 7886TIP3    H145073   4.092   0.412  15.278 -0.5858  0.2961 -0.5153
 7886TIP3    H245074   4.038   0.531  15.354  1.2276  0.0235  1.2307
 7887TIP3   OH245075   6.399   4.964   4.251 -0.0777  0.3437 -1.0623
 7887TIP3    H145076   6.406   5.026   4.179 -2.8018  1.1703 -0.6782
 7887TIP3    H245077   6.417   4.879   4.212 -1.7112  0.7617 -2.7812
 7888TIP3   OH245078   4.241   0.018  10.618 -0.0146 -0.2220  0.2317
 7888TIP3    H145079   4.199   0.100  10.592 -0.4755 -0.4777  0.1557
 7888TIP3    H245080   4.331   0.042  10.638  0.9563 -0.4001 -3.6908
 7889TIP3   OH245081   6.203   2.864   2.464 -0.2931  0.0854 -0.1199
 7889TIP3    H145082   6.173   2.776   2.488 -3.2968  0.8253 -0.9723
 7889TIP3    H245083   6.227   2.904   2.548  1.5225 -1.6674  0.2282
 7890TIP3   OH245084   4.749   2.481   5.738 -0.1095  0.3763  0.2353
 7890TIP3    H145085   4.676   2.540   5.755 -0.9352 -0.2574 -1.0273
 7890TIP3    H245086   4.784   2.511   5.654 -0.7978 -1.1819 -0.6228
 7891TIP3   OH245087   3.902   5.300  17.084  0.1922 -0.0909 -0.4000
 7891TIP3    H145088   3.826   5.313  17.029  0.8121 -0.7243 -1.4140
 7891TIP3    H245089   3.910   5.205  17.093  0.3202 -0.0029  0.4600
 7892TIP3   OH245090   4.883   4.296   2.214  0.1725 -0.3853 -0.1331
 7892TIP3    H145091   4.960   4.322   2.163  0.6232 -1.7271 -0.1579
 7892TIP3    H245092   4.829   4.375   2.218  2.3133  1.0855  1.2778
 7893TIP3   OH245093   2.681   5.685  16.958  0.4891  0.4336 -0.1089
 7893TIP3    H145094   2.680   5.666  16.864 -2.6764 -1.7635  0.2719
 7893TIP3    H245095   2.721   5.607  16.997 -1.4703 -0.2196  0.6145
 7894TIP3   OH245096   1.658   0.151  12.287  0.0375  0.8475 -0.4001
 7894TIP3    H145097   1.671   0.064  12.326  0.5219  0.8481 -0.5665
 7894TIP3    H245098   1.733   0.202  12.316  0.5401  0.7789 -1.5353
 7895TIP3   OH245099   6.580   2.579  15.206  0.2524  0.0312  0.0855
 7895TIP3    H145100   6.577   2.531  15.288  1.6335 -1.3261 -0.6316
 7895TIP3    H245101   6.644   2.649  15.222 -0.6098  0.7063  0.6339
 7896TIP3   OH245102   4.328   0.383  16.556  0.0320  0.5265  0.5434
 7896TIP3    H145103   4.376   0.362  16.476 -2.0864 -0.5931 -0.4941
 7896TIP3    H245104   4.331   0.303  16.608 -0.8005  0.4007  0.4043
 7897TIP3   OH245105   0.865   5.822  16.213  0.0933 -0.2693 -0.2227
 7897TIP3    H145106   0.909   5.810  16.298 -0.6855  0.8401  0.3527
 7897TIP3    H245107   0.827   5.909  16.218 -1.5714 -0.9372 -0.9910
 7898TIP3   OH245108   5.227   2.133  12.012 -0.8625 -0.7379 -0.5283
 7898TIP3    H145109   5.197   2.043  12.025  0.9421 -1.4459 -1.0574
 7898TIP3    H245110   5.156   2.187  12.046 -2.0656 -2.3535 -0.3916
 7899TIP3   OH245111   3.983   5.605   6.476  0.4222  0.6233 -0.2757
 7899TIP3    H145112   3.895   5.640   6.466  0.4247  0.6328 -0.2651
 7899TIP3    H245113   4.021   5.610   6.389  1.2635  2.8795  0.1769
 7900TIP3   OH245114   3.147   3.243   5.085 -0.4131 -0.3451  0.3888
 7900TIP3    H145115   3.124   3.212   5.173 -1.4624  0.3480  0.3594
 7900TIP3    H245116   3.228   3.196   5.064  0.5779  0.4924  2.2559
 7901TIP3   OH245117   2.191   5.834   5.497  0.0568  0.2387 -0.3617
 7901TIP3    H145118   2.125   5.770   5.469 -0.0246 -0.5279  1.4742
 7901TIP3    H245119   2.141   5.912   5.521 -0.2546 -0.4237  1.2571
 7902TIP3   OH245120   0.211   3.361   2.771 -0.1457  0.2269 -0.0475
 7902TIP3    H145121   0.216   3.327   2.682 -1.6783 -0.6457  0.1882
 7902TIP3    H245122   0.148   3.305   2.815  1.0608  0.2497  1.7909
 7903TIP3   OH245123   4.874   2.996   6.258  0.2783 -0.5220  0.0481
 7903TIP3    H145124   4.915   2.936   6.320  1.7502  0.2241 -0.1795
 7903TIP3    H245125   4.784   3.005   6.289  0.6360 -1.1899  1.3037
 7904TIP3   OH245126   3.481   1.080  13.051 -0.4578  0.5600 -0.3672
 7904TIP3    H145127   3.552   1.016  13.042  0.2250  1.0752  1.0525
 7904TIP3    H245128   3.418   1.038  13.109  0.6918  1.6809  1.7970
 7905TIP3   OH245129   1.537   2.150   0.323  0.4162  0.2835 -0.3484
 7905TIP3    H145130   1.602   2.177   0.388 -1.3819 -0.9347  2.0171
 7905TIP3    H245131   1.553   2.057   0.309  1.0324  0.6093 -1.9880
 7906TIP3   OH245132   3.020   5.140  16.872 -0.2971 -0.6014  0.0176
 7906TIP3    H145133   2.963   5.082  16.922 -0.5743  0.0514  0.4584
 7906TIP3    H245134   3.102   5.142  16.922 -0.4820 -0.1647  0.3070
 7907TIP3   OH245135   6.672   4.992   2.698  0.0807 -0.0220 -0.4738
 7907TIP3    H145136   6.718   5.025   2.775 -0.8309 -1.5127  0.7390
 7907TIP3    H245137   6.735   4.933   2.656 -0.3342 -1.2388  0.5957
 7908TIP3   OH245138   0.063   6.465   4.913  0.2575  0.4738 -0.5530
 7908TIP3    H145139   0.018   6.426   4.987 -0.2423 -0.1850 -1.1949
 7908TIP3    H245140   0.015   6.435   4.836  0.8189  1.0711 -1.1579
 7909TIP3   OH245141   3.156   1.798  10.514  0.1717  0.5635 -0.7881
 7909TIP3    H145142   3.063   1.822  10.514  0.0375  0.0513 -1.2696
 7909TIP3    H245143   3.202   1.880  10.534 -0.3722  0.8750 -0.8112
 7910TIP3   OH245144   0.688   1.673  15.738  0.0948  0.1342  0.6796
 7910TIP3    H145145   0.679   1.754  15.787  1.6328  0.7681 -0.0349
 7910TIP3    H245146   0.745   1.696  15.665 -0.8955 -1.1734 -0.5219
 7911TIP3   OH245147   4.362   6.068  16.884 -0.1952 -0.4802  0.1604
 7911TIP3    H145148   4.335   6.155  16.912 -1.6697 -0.9427  0.2020
 7911TIP3    H245149   4.386   6.023  16.965  1.1587  0.0608  0.0831
 7912TIP3   OH245150   0.622   5.734  16.850 -0.7403  0.3622  0.0990
 7912TIP3    H145151   0.689   5.695  16.906  0.5893  1.1570 -0.9216
 7912TIP3    H245152   0.596   5.664  16.791 -0.9702 -0.0070  0.6296
 7913TIP3   OH245153   2.524   1.972   1.209 -0.4309  0.2007 -0.7432
 7913TIP3    H145154   2.466   2.047   1.199 -0.9119 -0.0111  0.3444
 7913TIP3    H245155   2.610   2.010   1.226 -0.9997  0.5183  1.5663
 7914TIP3   OH245156   2.346   0.628  12.276 -0.3526 -0.4733 -0.0035
 7914TIP3    H145157   2.263   0.627  12.324 -0.1326 -0.2659  0.3854
 7914TIP3    H245158   2.407   0.672  12.335  0.1060 -0.8822 -0.1690
 7915TIP3   OH245159   1.698   1.458   1.211 -0.5457 -0.4218 -0.2070
 7915TIP3    H145160   1.619   1.418   1.176  0.5220 -2.4549 -0.3255
 7915TIP3    H245161   1.758   1.385   1.226  0.0749  0.7067  3.1829
 7916TIP3   OH245162   0.073   0.177  16.319 -0.4494 -0.3235  0.3514
 7916TIP3    H145163   0.101   0.214  16.236  0.8446  1.3974  1.5088
 7916TIP3    H245164   0.142   0.115  16.342  0.5970  1.1719  1.3957
 7917TIP3   OH245165   4.963   6.174  11.462 -0.2184  0.2993  0.0095
 7917TIP3    H145166   4.986   6.093  11.417  1.0094  0.9824 -0.6204
 7917TIP3    H245167   4.975   6.242  11.396  1.3714  1.2860  1.2787
 7918TIP3   OH245168   3.577   0.120   0.878 -0.5740 -0.1251 -0.1302
 7918TIP3    H145169   3.563   0.205   0.920  0.9292  0.3763 -0.5795
 7918TIP3    H245170   3.546   0.132   0.789 -3.2819 -1.0289  0.6706
 7919TIP3   OH245171   0.105   3.133   2.081  0.1571  0.0263 -0.7063
 7919TIP3    H145172   0.166   3.074   2.124  0.9783  0.7073 -0.9352
 7919TIP3    H245173   0.047   3.163   2.152 -0.4817 -1.2890 -0.6452
 7920TIP3   OH245174   1.769   5.514   4.105  0.4752 -0.6173  0.4725
 7920TIP3    H145175   1.768   5.606   4.080  0.3469 -1.2153 -1.8677
 7920TIP3    H245176   1.679   5.484   4.089  0.4265 -1.0583  1.5643
 7921TIP3   OH245177   4.200   2.910   4.031  0.4195  0.6265  0.2376
 7921TIP3    H145178   4.268   2.843   4.030 -0.1990 -0.0059 -0.8123
 7921TIP3    H245179   4.244   2.989   3.999  0.8255  0.3946  0.2200
 7922TIP3   OH245180   1.991   1.456  15.277  0.5569  0.0796  0.0370
 7922TIP3    H145181   1.908   1.408  15.275 -0.4586  1.7622  0.7851
 7922TIP3    H245182   2.029   1.441  15.190  0.3121 -2.1132  0.2821
 7923TIP3   OH245183   2.017   3.857   0.244  0.3529 -0.0569  0.6768
 7923TIP3    H145184   2.057   3.855   0.331 -2.5424  2.1151  2.1383
 7923TIP3    H245185   2.036   3.945   0.211  1.6409 -0.9333 -1.0771
 7924TIP3   OH245186   0.354   2.056   4.750  0.1118  0.4174 -0.1812
 7924TIP3    H145187   0.328   2.112   4.823 -0.5344  0.8936 -0.7555
 7924TIP3    H245188   0.311   2.096   4.674  1.9793  0.7959 -1.0582
 7925TIP3   OH245189   3.228   6.733   6.101 -0.5799 -0.2535 -0.6419
 7925TIP3    H145190   3.248   6.642   6.120  1.1431  0.5041  1.4399
 7925TIP3    H245191   3.157   6.755   6.161  0.8564  0.4937  0.8367
 7926TIP3   OH245192   0.338   0.067  13.045  0.1188 -0.3977 -0.7982
 7926TIP3    H145193   0.315  -0.022  13.073  1.8677 -0.3640  0.8018
 7926TIP3    H245194   0.254   0.113  13.043 -0.7331 -1.8931 -1.0160
 7927TIP3   OH245195   4.890   2.610   4.721 -0.3559  0.3689 -0.0647
 7927TIP3    H145196   4.914   2.668   4.793  0.9154  0.7040 -0.7386
 7927TIP3    H245197   4.906   2.522   4.755  0.4486  0.5350  0.0099
 7928TIP3   OH245198   2.039   2.698  16.723 -0.2305  0.0599 -0.1020
 7928TIP3    H145199   1.981   2.622  16.716  0.1171 -0.4149  1.6991
 7928TIP3    H245200   2.048   2.711  16.818  1.9602  0.6108 -0.3652
 7929TIP3   OH245201   1.407   6.391   0.912 -0.1521  0.6005 -0.5976
 7929TIP3    H145202   1.335   6.329   0.899  1.2777 -1.1831 -0.2448
 7929TIP3    H245203   1.364   6.472   0.940 -1.9581 -0.7971  0.8337
 7930TIP3   OH245204   5.857   0.872   5.831 -0.0664  0.0342 -0.2868
 7930TIP3    H145205   5.920   0.804   5.808 -0.1170  0.2825 -1.1791
 7930TIP3    H245206   5.867   0.883   5.925 -0.3371 -1.4795 -0.0815
 7931TIP3   OH245207   2.701   5.054  13.647  0.1881 -0.0962  0.0146
 7931TIP3    H145208   2.634   4.997  13.609 -0.2753  0.1619  0.4295
 7931TIP3    H245209   2.784   5.018  13.616 -0.0700 -1.3284  0.7150
 7932TIP3   OH245210   2.783   1.846   1.593  0.3574  0.0602 -0.0787
 7932TIP3    H145211   2.858   1.821   1.648  0.1424 -0.1677  0.1122
 7932TIP3    H245212   2.794   1.940   1.578  0.3278  0.1540  0.4851
 7933TIP3   OH245213   3.779   4.228  16.772  1.5928 -0.1471  0.4349
 7933TIP3    H145214   3.820   4.148  16.805 -0.4909 -1.0889  0.8206
 7933TIP3    H245215   3.780   4.217  16.677 -1.2929 -2.0406  0.5505
 7934TIP3   OH245216   5.642   2.922  13.788 -0.1532 -0.1561  0.2044
 7934TIP3    H145217   5.713   2.881  13.837  1.0301  2.2967  0.5965
 7934TIP3    H245218   5.582   2.955  13.856  0.1128  0.8471 -0.0369
 7935TIP3   OH245219   5.188   2.686   5.910 -0.4615  0.0025 -0.3958
 7935TIP3    H145220   5.131   2.763   5.903 -0.4312 -0.0035 -0.7346
 7935TIP3    H245221   5.275   2.719   5.888 -0.1069  0.2802  1.3790
 7936TIP3   OH245222   4.155   6.252  15.720  0.1298  0.2232 -0.3083
 7936TIP3    H145223   4.176   6.200  15.642 -0.0317  0.5267 -0.5547
 7936TIP3    H245224   4.188   6.199  15.793  0.0474 -0.1821 -0.5642
 7937TIP3   OH245225   4.150   3.392   4.093  0.0601 -0.3343 -0.2002
 7937TIP3    H145226   4.070   3.341   4.091 -0.0205 -0.1865 -1.3763
 7937TIP3    H245227   4.200   3.361   4.017 -0.8236  2.6215 -2.1034
 7938TIP3   OH245228   2.640   3.974   2.540 -0.0706  0.5688  0.1134
 7938TIP3    H145229   2.633   3.900   2.481 -2.8578  1.3594 -0.6383
 7938TIP3    H245230   2.607   3.941   2.624  0.2342  0.5060  0.2084
 7939TIP3   OH245231   5.244   6.349   5.588  0.4648  0.1830  0.0381
 7939TIP3    H145232   5.242   6.352   5.684  1.4232 -0.3600  0.0752
 7939TIP3    H245233   5.216   6.437   5.561  1.4289  0.7502  0.8326
 7940TIP3   OH245234   5.137   2.112  16.485 -0.2719 -0.1973 -0.1248
 7940TIP3    H145235   5.230   2.135  16.485  0.0927 -1.6560  0.3059
 7940TIP3    H245236   5.108   2.130  16.395  0.4609  0.1052 -0.3026
 7941TIP3   OH245237   2.046   0.977  15.497  0.2793 -0.4553 -0.0208
 7941TIP3    H145238   2.055   1.072  15.499  0.8869 -0.5063 -0.1288
 7941TIP3    H245239   2.108   0.945  15.563  0.7800 -0.8159 -0.6594
 7942TIP3   OH245240   2.388   2.472   6.220  0.5102  0.0413 -0.1745
 7942TIP3    H145241   2.446   2.396   6.216  0.6417  0.0552  1.1371
 7942TIP3    H245242   2.367   2.481   6.313  0.4174  1.5510 -0.3281
 7943TIP3   OH245243   4.480   3.549   0.478  0.1544 -0.0649 -0.7060
 7943TIP3    H145244   4.537   3.622   0.504  1.3404 -1.1920 -0.0504
 7943TIP3    H245245   4.540   3.475   0.469 -1.1127 -1.0866 -0.8201
 7944TIP3   OH245246   4.966   5.996  15.769 -0.5286  0.3045 -0.3822
 7944TIP3    H145247   4.927   5.939  15.703 -1.1181  0.8881 -0.5355
 7944TIP3    H245248   4.924   5.971  15.851  0.9154 -1.1060 -0.0415
 7945TIP3   OH245249   0.720   6.667  12.460  0.2520  0.1082  0.1033
 7945TIP3    H145250   0.720   6.615  12.541 -0.1427  0.8754  0.6044
 7945TIP3    H245251   0.794   6.727  12.471  0.2750  0.1246 -0.1534
 7946TIP3   OH245252   2.592   4.465  15.579 -0.3282 -0.1422 -0.2783
 7946TIP3    H145253   2.682   4.468  15.609 -0.1274  0.6710 -0.9559
 7946TIP3    H245254   2.558   4.553  15.593 -1.1479 -0.5494  0.3579
 7947TIP3   OH245255   2.811   5.613   4.004 -0.1699  0.1015  0.1994
 7947TIP3    H145256   2.836   5.521   4.018  1.9438  0.2277 -2.4492
 7947TIP3    H245257   2.738   5.608   3.942 -0.0456  0.2086  0.0453
 7948TIP3   OH245258   0.378   3.765  11.561  0.2696  0.8209 -0.2178
 7948TIP3    H145259   0.355   3.724  11.477  3.5995  1.3272 -1.4438
 7948TIP3    H245260   0.353   3.857  11.550  0.2019  0.7735 -0.4615
 7949TIP3   OH245261   4.088   3.486   3.712 -0.0591 -0.5244  0.0832
 7949TIP3    H145262   4.145   3.423   3.756 -0.1441 -0.6938 -0.0463
 7949TIP3    H245263   4.015   3.433   3.681  0.0926 -0.4332 -0.4250
 7950TIP3   OH245264   4.317   2.620   2.512  0.1895 -0.4705 -0.6458
 7950TIP3    H145265   4.247   2.568   2.472  1.1981 -0.9615 -1.7971
 7950TIP3    H245266   4.366   2.558   2.566 -0.7895  0.0611  0.9035
 7951TIP3   OH245267   0.003   1.421   3.021 -0.6706 -0.2624 -0.0914
 7951TIP3    H145268  -0.048   1.348   2.986  0.2511 -0.5723 -0.8197
 7951TIP3    H245269  -0.018   1.494   2.964  1.0035 -0.8230 -1.4954
 7952TIP3   OH245270   6.289   5.751   0.687 -0.6732 -0.2862  0.0088
 7952TIP3    H145271   6.263   5.781   0.600 -2.1295  1.7950  1.1245
 7952TIP3    H245272   6.377   5.787   0.699 -1.0572  0.6991 -0.0368
 7953TIP3   OH245273   0.381   2.304   4.486 -0.7756  0.1878 -0.4994
 7953TIP3    H145274   0.330   2.223   4.491 -0.5671  0.1092  0.3400
 7953TIP3    H245275   0.468   2.280   4.518 -0.7499  0.7729 -0.1216
 7954TIP3   OH245276   1.771   6.159   1.730 -0.4598  0.4915  0.6733
 7954TIP3    H145277   1.739   6.250   1.734 -1.6206  0.1511 -0.4834
 7954TIP3    H245278   1.848   6.159   1.786 -0.0198  2.3666  0.1225
 7955TIP3   OH245279   6.281   1.089  14.911 -0.2896 -0.3345  0.0182
 7955TIP3    H145280   6.357   1.139  14.881 -0.6771  1.4668  1.9116
 7955TIP3    H245281   6.243   1.053  14.831  1.5980  0.0975 -1.1116
 7956TIP3   OH245282   1.772   4.131  14.102  0.1496 -0.0979 -0.3660
 7956TIP3    H145283   1.836   4.199  14.079  0.7300 -0.3488  0.4609
 7956TIP3    H245284   1.708   4.134  14.032  0.1674  1.3048 -0.3520
 7957TIP3   OH245285   0.969   1.797   1.811  0.2384 -0.3465  0.8165
 7957TIP3    H145286   0.944   1.876   1.860 -0.3527 -0.4468  0.6749
 7957TIP3    H245287   1.062   1.810   1.792 -0.4160  1.4777 -1.3955
 7958TIP3   OH245288   4.200   0.843   4.293 -0.0338 -0.1302 -0.6531
 7958TIP3    H145289   4.264   0.894   4.343 -0.7084  1.4452 -1.4033
 7958TIP3    H245290   4.248   0.765   4.265  1.2098  0.4718 -0.1975
 7959TIP3   OH245291   5.280   1.061  10.978  0.1113  0.4222 -0.7184
 7959TIP3    H145292   5.205   1.030  10.928 -0.3677 -2.1722  1.4408
 7959TIP3    H245293   5.355   1.019  10.937 -0.1030 -0.3566 -0.3332
 7960TIP3   OH245294   1.083   0.275  12.308 -0.0109  0.5722  0.0446
 7960TIP3    H145295   1.169   0.236  12.322  1.1246  2.8676 -0.3243
 7960TIP3    H245296   1.021   0.202  12.321  2.0084 -1.3580 -0.7447
 7961TIP3   OH245297   0.165   1.317  15.907  0.5437 -0.2242 -0.0887
 7961TIP3    H145298   0.111   1.357  15.839  0.5607 -0.1874 -0.0806
 7961TIP3    H245299   0.189   1.231  15.871  1.2902  0.1538 -0.5095
 7962TIP3   OH245300   1.125   3.379   1.640  0.2751 -0.3554  0.1648
 7962TIP3    H145301   1.209   3.415   1.611 -0.2717 -0.3019 -1.4370
 7962TIP3    H245302   1.097   3.437   1.711  0.7944  0.6540 -0.4336
 7963TIP3   OH245303   0.270   2.841  13.969 -0.0967 -0.1208  0.0361
 7963TIP3    H145304   0.241   2.906  14.034  1.6821  1.9518 -1.1614
 7963TIP3    H245305   0.227   2.869  13.887  0.7581 -0.3931 -0.5090
 7964TIP3   OH245306   3.206   3.757  14.680 -0.0792 -0.0036  0.4437
 7964TIP3    H145307   3.198   3.691  14.611  1.8886  0.8795 -0.6565
 7964TIP3    H245308   3.193   3.708  14.762 -0.0037 -1.4963 -0.4275
 7965TIP3   OH245309   5.602   4.991   0.158 -0.9939 -0.5884  0.2129
 7965TIP3    H145310   5.590   5.006   0.065 -1.0396 -2.4929 -0.1028
 7965TIP3    H245311   5.628   4.900   0.165 -0.6957 -0.3937  2.0446
 7966TIP3   OH245312   4.242   5.320  15.698  0.2297  0.1245 -0.1246
 7966TIP3    H145313   4.244   5.412  15.721  2.5922  0.2042 -0.5802
 7966TIP3    H245314   4.233   5.274  15.781  0.4282  0.6964  0.2126
 7967TIP3   OH245315   0.830   4.194  16.794 -0.4580  0.3674 -1.0123
 7967TIP3    H145316   0.749   4.187  16.846  0.4252  2.1496  0.6615
 7967TIP3    H245317   0.832   4.284  16.764  1.5086  0.7024  0.0125
 7968TIP3   OH245318   4.410   5.499  13.146 -0.6120  0.0693  0.0816
 7968TIP3    H145319   4.367   5.416  13.161 -0.9487 -0.0654 -1.5981
 7968TIP3    H245320   4.492   5.493  13.196 -0.1511 -1.6647 -0.8789
 7969TIP3   OH245321   0.955   1.555   3.390  0.0029  0.2113  0.0315
 7969TIP3    H145322   0.894   1.615   3.347 -1.6126 -0.0960  1.8041
 7969TIP3    H245323   0.968   1.593   3.477 -1.4176 -2.1970  1.3545
 7970TIP3   OH245324   3.563   2.431   1.289  0.1838 -0.1572 -0.1295
 7970TIP3    H145325   3.526   2.412   1.203 -2.1281  1.4232  0.4570
 7970TIP3    H245326   3.590   2.523   1.283  0.6621 -0.2489  0.5973
 7971TIP3   OH245327   6.016   5.872   4.632  0.4134 -0.6000 -0.1862
 7971TIP3    H145328   6.009   5.777   4.621  0.7013 -0.6075 -0.3015
 7971TIP3    H245329   5.926   5.903   4.633  0.2408 -1.1111  1.9181
 7972TIP3   OH245330   5.247   5.318   6.557 -1.3088  0.0098  0.2354
 7972TIP3    H145331   5.186   5.392   6.562 -1.7296 -0.3083 -0.1366
 7972TIP3    H245332   5.262   5.306   6.463 -0.1881  0.4829  0.3552
 7973TIP3   OH245333   1.604   4.954  14.997 -0.4511  0.0806  0.3166
 7973TIP3    H145334   1.591   5.048  14.993 -0.3378  0.1274  0.9559
 7973TIP3    H245335   1.609   4.926  14.905 -0.0978  0.7430  0.1328
 7974TIP3   OH245336   4.834   0.930   4.628 -0.0990 -0.4549 -0.4067
 7974TIP3    H145337   4.773   0.991   4.587  1.5579  0.1691 -2.0029
 7974TIP3    H245338   4.826   0.850   4.576 -0.1492 -0.6385 -0.1168
 7975TIP3   OH245339   0.173   6.670   0.262  0.2354 -0.1005  0.1267
 7975TIP3    H145340   0.079   6.657   0.265 -0.0684  1.5073 -1.4819
 7975TIP3    H245341   0.194   6.712   0.346 -0.7987  1.4257 -0.3648
 7976TIP3   OH245342   6.684   4.869   5.317 -0.6632  0.3791  0.8178
 7976TIP3    H145343   6.704   4.802   5.382 -0.4095  0.0529  0.4059
 7976TIP3    H245344   6.590   4.857   5.299 -0.9729  1.1440  1.8821
 7977TIP3   OH245345   0.228   1.318  13.287  0.3550  0.3761 -0.1208
 7977TIP3    H145346   0.266   1.405  13.297 -0.2034  0.5263  0.7660
 7977TIP3    H245347   0.166   1.310  13.360  0.8292 -0.9903  0.1547
 7978TIP3   OH245348   4.121   6.440  10.990 -0.6816  0.0419 -0.1883
 7978TIP3    H145349   4.032   6.410  11.005 -1.5354  2.2945 -0.5814
 7978TIP3    H245350   4.122   6.465  10.897 -0.0679  1.4400  0.1937
 7979TIP3   OH245351   5.843   6.277   5.231  0.5785 -0.1199 -0.3367
 7979TIP3    H145352   5.843   6.284   5.326  1.4862 -0.7731 -0.2794
 7979TIP3    H245353   5.791   6.352   5.202  1.5357  0.9500  0.6276
 7980TIP3   OH245354   6.385   5.183  11.220  0.5763 -0.6389 -0.0306
 7980TIP3    H145355   6.449   5.221  11.159  0.3883 -0.6464 -0.2347
 7980TIP3    H245356   6.421   5.201  11.307 -0.4546  1.6892 -0.0565
 7981TIP3   OH245357   3.883   4.322  12.024  0.2869 -0.6310  0.1206
 7981TIP3    H145358   3.937   4.243  12.036 -0.5752 -1.3457 -0.5811
 7981TIP3    H245359   3.945   4.390  12.000  1.0291 -1.1332  0.5855
 7982TIP3   OH245360   4.059   1.712   2.424 -0.0230  0.0587 -0.4281
 7982TIP3    H145361   4.120   1.648   2.461  0.2087  1.4479  1.6790
 7982TIP3    H245362   4.031   1.673   2.341  2.3446 -1.4297 -0.5840
 7983TIP3   OH245363   4.412   1.680   4.580 -0.5267 -0.4611 -0.2433
 7983TIP3    H145364   4.430   1.750   4.642 -0.3069 -1.1035  0.4282
 7983TIP3    H245365   4.396   1.725   4.497  1.0188  0.3208 -0.1426
 7984TIP3   OH245366   5.806   5.338  15.455 -0.0392  0.4385  0.3884
 7984TIP3    H145367   5.842   5.394  15.387 -2.0717  1.3076 -0.0061
 7984TIP3    H245368   5.801   5.394  15.532 -1.8667  0.7598  0.0512
 7985TIP3   OH245369   2.405   5.475  11.170 -0.8349 -0.1421  0.2179
 7985TIP3    H145370   2.368   5.473  11.082  0.1307  0.2387 -0.2127
 7985TIP3    H245371   2.447   5.390  11.181 -0.9275 -0.1780  0.2848
 7986TIP3   OH245372   3.794   6.149   5.799  0.3863  0.1964 -0.5856
 7986TIP3    H145373   3.843   6.106   5.730  1.0031  0.5695 -0.3909
 7986TIP3    H245374   3.743   6.079   5.841 -1.1813  0.2206 -2.3856
 7987TIP3   OH245375   1.274   6.024  11.579 -0.1054  0.5504  0.3571
 7987TIP3    H145376   1.287   6.119  11.589  0.2502  0.1963  3.8804
 7987TIP3    H245377   1.317   5.986  11.655 -2.5953 -2.2647  0.4436
 7988TIP3   OH245378   3.670   1.714  16.377 -0.3699  0.2657  0.1482
 7988TIP3    H145379   3.605   1.758  16.322 -0.0030  0.7965  0.1299
 7988TIP3    H245380   3.619   1.671  16.446 -0.7017  1.1949  0.4905
 7989TIP3   OH245381   4.846   0.973   4.004 -0.0477  0.1116  0.1070
 7989TIP3    H145382   4.891   0.918   3.941  0.6483 -0.3442  0.9978
 7989TIP3    H245383   4.826   0.915   4.078 -0.1041  0.8301  0.6660
 7990TIP3   OH245384   4.454   1.731   5.640  0.4318 -0.4349  0.3312
 7990TIP3    H145385   4.375   1.751   5.588  0.5545  1.6369  0.9110
 7990TIP3    H245386   4.526   1.745   5.579  0.3546 -2.5166 -0.2542
 7991TIP3   OH245387   2.046   0.640   1.030  0.5834 -0.0590 -0.4158
 7991TIP3    H145388   2.070   0.596   1.112 -1.8722 -0.7970 -0.0601
 7991TIP3    H245389   2.130   0.665   0.991  1.9453 -2.6775  0.6812
 7992TIP3   OH245390   1.497   4.729  15.577  0.0083  0.2089  0.4295
 7992TIP3    H145391   1.440   4.781  15.521  0.8666  0.1519 -0.5304
 7992TIP3    H245392   1.532   4.661  15.519  0.2444 -0.3804  1.2460
 7993TIP3   OH245393   3.816   1.753  14.532  0.0769 -0.7355  0.5554
 7993TIP3    H145394   3.783   1.812  14.600  2.2037  3.0225 -1.5485
 7993TIP3    H245395   3.738   1.705  14.502 -1.7113  1.0367  2.2481
 7994TIP3   OH245396   1.629   2.737   1.162  0.4964 -0.0223 -0.1293
 7994TIP3    H145397   1.721   2.741   1.136  0.5088  0.2060 -0.0547
 7994TIP3    H245398   1.600   2.650   1.135  0.1106  0.7326 -2.2627
 7995TIP3   OH245399   2.159   6.680   2.682 -0.3480  0.4303  0.2405
 7995TIP3    H145400   2.112   6.668   2.765 -2.7438  1.4169 -0.9406
 7995TIP3    H245401   2.091   6.705   2.619  1.3995 -0.4915 -2.0830
 7996TIP3   OH245402   5.423   5.145  14.504  0.3573  0.0132  0.0649
 7996TIP3    H145403   5.493   5.166  14.565  0.1460 -0.0972  0.3457
 7996TIP3    H245404   5.449   5.188  14.422  2.1457 -2.2635 -0.6513
 7997TIP3   OH245405   1.727   4.643  13.353  0.0726  0.5056 -0.3849
 7997TIP3    H145406   1.685   4.583  13.414 -0.6898 -0.3612 -1.7411
 7997TIP3    H245407   1.766   4.586  13.287  0.5801  1.4495 -0.9026
 7998TIP3   OH245408   5.020   0.199   1.337 -0.0406  0.5268  0.2441
 7998TIP3    H145409   5.005   0.216   1.430 -0.8048 -0.5892  0.3333
 7998TIP3    H245410   5.052   0.283   1.303 -1.9637  1.6239  1.0349
 7999TIP3   OH245411   2.612   1.737  14.227  0.4726 -0.0135 -0.2086
 7999TIP3    H145412   2.569   1.822  14.231 -0.5018 -0.5138  0.0049
 7999TIP3    H245413   2.653   1.735  14.141  1.0246  0.9223  0.0211
 8000TIP3   OH245414   5.526   1.516  10.329  0.1602 -0.4426  0.0969
 8000TIP3    H145415   5.571   1.522  10.244  1.0059 -2.0103  0.4116
 8000TIP3    H245416   5.521   1.422  10.346  2.8620 -0.0925  3.2447
 8001TIP3   OH245417   6.062   0.864  14.154 -0.0890 -0.2437  0.0158
 8001TIP3    H145418   6.050   0.945  14.205  0.9531 -0.5111  0.7076
 8001TIP3    H245419   6.052   0.794  14.218  1.7220 -0.5682 -0.0246
 8002TIP3   OH245420   0.216   6.367   5.775 -0.0177  0.2987  0.0128
 8002TIP3    H145421   0.177   6.347   5.690 -0.3683 -0.0775  0.2621
 8002TIP3    H245422   0.197   6.290   5.829  1.8386 -0.2847 -0.1275
 8003TIP3   OH245423   2.071   5.001  14.133 -0.0469  0.0782  0.0233
 8003TIP3    H145424   2.074   4.905  14.134  0.0695  0.0755 -0.4902
 8003TIP3    H245425   2.149   5.027  14.085 -1.0761  0.3724 -1.5425
 8004TIP3   OH245426   5.773   5.046   5.061 -0.4710 -0.5303  0.0821
 8004TIP3    H145427   5.716   4.970   5.074 -2.3269  0.7977  0.0058
 8004TIP3    H245428   5.723   5.104   5.003 -0.1318  1.7847  2.0178
 8005TIP3   OH245429   5.278   0.391  17.080 -0.4391  0.3708  0.3757
 8005TIP3    H145430   5.214   0.329  17.045 -1.3525  1.5414 -0.0855
 8005TIP3    H245431   5.304   0.443  17.004  1.5799 -0.5224  0.4291
 8006TIP3   OH245432   5.828   2.924  11.910  0.7892  0.3775  0.4112
 8006TIP3    H145433   5.813   2.973  11.829 -2.0757  0.0582  0.7075
 8006TIP3    H245434   5.783   2.976  11.977  1.2241 -0.5464  1.4268
 8007TIP3   OH245435   6.275   5.765   0.971  0.1371 -0.3805 -0.2710
 8007TIP3    H145436   6.273   5.728   0.883 -0.7899 -0.5179 -0.2003
 8007TIP3    H245437   6.234   5.851   0.962  0.2562 -0.2942 -0.0183
 8008TIP3   OH245438   6.054   2.082   2.164 -0.0805 -0.6036  0.4806
 8008TIP3    H145439   5.987   2.026   2.203 -1.2036 -0.2289 -0.9168
 8008TIP3    H245440   6.006   2.146   2.112  1.3418 -0.2368 -0.4188
 8009TIP3   OH245441   0.676   1.551  13.682  0.0557  0.2508  0.1536
 8009TIP3    H145442   0.606   1.606  13.717 -1.0029  0.2572 -1.8632
 8009TIP3    H245443   0.654   1.541  13.589  2.8428  0.4183 -0.5678
 8010TIP3   OH245444   5.338   0.655   0.160  0.1381 -0.1273  0.5112
 8010TIP3    H145445   5.296   0.570   0.143  0.8833 -0.0944 -1.6618
 8010TIP3    H245446   5.414   0.656   0.102 -0.2721  2.3228 -0.0194
 8011TIP3   OH245447   6.525   4.592  10.553  0.0130  0.4499 -0.0675
 8011TIP3    H145448   6.447   4.646  10.564 -0.7956 -0.9479  1.2385
 8011TIP3    H245449   6.536   4.548  10.637  0.5098 -1.6020 -1.1726
 8012TIP3   OH245450   5.670   0.950   2.613 -0.0998 -0.4078 -0.3765
 8012TIP3    H145451   5.593   1.007   2.619 -0.9896 -1.6852  0.5554
 8012TIP3    H245452   5.716   0.963   2.696 -0.3575 -1.1116 -0.1193
 8013TIP3   OH245453   4.675   6.229   5.446 -0.9151  0.3215  0.3674
 8013TIP3    H145454   4.626   6.244   5.365  1.2271 -1.2899 -1.2984
 8013TIP3    H245455   4.746   6.293   5.443 -0.1820 -0.4858  0.4156
 8014TIP3   OH245456   1.551   4.446  13.822  0.6382  0.2739 -0.6107
 8014TIP3    H145457   1.482   4.484  13.767  0.9080 -0.0686 -1.1923
 8014TIP3    H245458   1.626   4.504  13.811  0.3984  0.7099  0.1137
 8015TIP3   OH245459   6.198   2.553   0.498  0.5157  0.1053 -0.0261
 8015TIP3    H145460   6.282   2.561   0.543  0.5199 -0.9875  0.1657
 8015TIP3    H245461   6.134   2.546   0.568  0.2528  0.9657 -0.1739
 8016TIP3   OH245462   1.544   4.502   5.307  0.6239  0.0761 -0.0737
 8016TIP3    H145463   1.596   4.444   5.362  0.2543  1.2978  1.5887
 8016TIP3    H245464   1.576   4.590   5.328  1.0548  0.5325 -2.4290
 8017TIP3   OH245465   6.205   5.082   2.574 -0.2178 -0.2480 -0.1926
 8017TIP3    H145466   6.246   5.034   2.502 -0.7792 -0.2042 -0.5442
 8017TIP3    H245467   6.113   5.055   2.572 -0.0204 -1.0824  1.1959
 8018TIP3   OH245468   3.326   4.882  11.350  0.1127  0.2942  0.0147
 8018TIP3    H145469   3.377   4.801  11.359  0.2346  0.5635  2.1274
 8018TIP3    H245470   3.238   4.853  11.326 -0.3488 -0.6495  2.6492
 8019TIP3   OH245471   2.787   0.247   5.901  0.3845 -0.0423  0.0962
 8019TIP3    H145472   2.867   0.296   5.884  0.6450 -0.3246  0.5268
 8019TIP3    H245473   2.803   0.202   5.984 -0.3473  0.1819  0.3648
 8020TIP3   OH245474   1.206   0.764  15.774  0.0717  0.7605 -0.1836
 8020TIP3    H145475   1.279   0.787  15.717  0.9267 -0.8153  0.2571
 8020TIP3    H245476   1.172   0.848  15.805  1.5074  1.5082 -0.6114
 8021TIP3   OH245477   5.855   5.118   5.781 -0.5637  0.0675  0.4618
 8021TIP3    H145478   5.881   5.078   5.864  0.0718  0.3108  0.3837
 8021TIP3    H245479   5.890   5.207   5.785 -1.0126  0.2575  0.1663
 8022TIP3   OH245480   0.499   3.788  11.871  0.1624 -0.5792  0.2088
 8022TIP3    H145481   0.534   3.755  11.954  1.0151  0.3509  0.2310
 8022TIP3    H245482   0.534   3.877  11.864 -1.3664  0.0043 -0.2758
 8023TIP3   OH245483   2.153   2.957   1.944  0.4898  0.2844 -0.0898
 8023TIP3    H145484   2.210   2.946   1.867 -1.0406 -0.9365 -1.0638
 8023TIP3    H245485   2.067   2.974   1.908  0.6210  4.6468  1.3671
 8024TIP3   OH245486   4.844   3.427  14.193 -0.4521  0.1848 -0.5328
 8024TIP3    H145487   4.819   3.360  14.129 -0.8719 -0.7699  0.6247
 8024TIP3    H245488   4.931   3.401  14.222 -1.2375 -0.7326  1.0512
 8025TIP3   OH245489   4.636   3.156   6.123  0.2847 -0.8017  0.1563
 8025TIP3    H145490   4.726   3.149   6.092  0.0178  2.6282 -1.5729
 8025TIP3    H245491   4.643   3.144   6.218  2.4804 -0.9346  0.0007
 8026TIP3   OH245492   3.724   4.884  12.330 -0.9046  0.0678  0.3285
 8026TIP3    H145493   3.800   4.883  12.271  0.0280  1.2342  1.4908
 8026TIP3    H245494   3.744   4.819  12.397 -0.8478  0.5101  0.7397
 8027TIP3   OH245495   6.539   1.383  12.101  0.2055 -0.1264  0.1809
 8027TIP3    H145496   6.490   1.411  12.024 -0.7039  2.3337  1.6017
 8027TIP3    H245497   6.540   1.288  12.095  1.8747  0.0480 -3.8850
 8028TIP3   OH245498   2.872   6.729  15.629  0.5003  0.2242  0.1438
 8028TIP3    H145499   2.958   6.753  15.662  0.0653  0.9132  0.8195
 8028TIP3    H245500   2.872   6.755  15.537  0.9538  0.3806  0.1905
 8029TIP3   OH245501   0.970   3.756  15.000  0.1568  0.3050  0.1813
 8029TIP3    H145502   1.037   3.817  15.030 -0.2485  2.1202 -2.3784
 8029TIP3    H245503   0.969   3.768  14.905 -3.7679  0.3192  0.1648
 8030TIP3   OH245504   5.624   4.141   4.240  0.5390 -0.2025 -0.7730
 8030TIP3    H145505   5.538   4.123   4.202  0.5063  0.9604 -1.2417
 8030TIP3    H245506   5.681   4.073   4.203 -0.6158 -2.3386  1.2030
 8031TIP3   OH245507   6.413   4.654   4.271  0.1573  0.0944 -0.0650
 8031TIP3    H145508   6.505   4.666   4.294 -0.2387  0.5309  1.3069
 8031TIP3    H245509   6.368   4.644   4.355 -1.3261  1.8503 -0.6264
 8032TIP3   OH245510   2.415   4.424  12.453  0.3024 -0.2392  0.3242
 8032TIP3    H145511   2.374   4.352  12.404  1.6786 -1.2845  0.6869
 8032TIP3    H245512   2.436   4.489  12.387  1.4438 -1.3109 -0.3766
 8033TIP3   OH245513   0.972   1.205  10.920 -0.0936  0.4367 -0.3035
 8033TIP3    H145514   1.037   1.273  10.904  0.0711  0.8932  2.1713
 8033TIP3    H245515   1.022   1.132  10.957 -0.6898  0.0273 -0.2950
 8034TIP3   OH245516   0.253   4.509  16.087  0.6420  0.7497  0.1633
 8034TIP3    H145517   0.162   4.510  16.057  0.9188  0.7848 -0.7106
 8034TIP3    H245518   0.267   4.418  16.114  0.1866  0.8719  0.8159
 8035TIP3   OH245519   2.203   0.941   1.286 -0.0467  0.6055  0.5634
 8035TIP3    H145520   2.177   0.953   1.195  0.3178  0.7653  0.4804
 8035TIP3    H245521   2.220   0.847   1.294 -2.4280  0.2011  1.0951
 8036TIP3   OH245522   6.481   2.375  11.118  0.2300  0.0783 -0.1045
 8036TIP3    H145523   6.399   2.371  11.070  0.3393  0.0052 -0.2822
 8036TIP3    H245524   6.505   2.468  11.117 -0.7694  0.3691  1.4764
 8037TIP3   OH245525   4.511   6.097   2.066 -0.0914 -0.0455 -0.0974
 8037TIP3    H145526   4.445   6.126   2.003  0.0509 -1.1056 -0.7332
 8037TIP3    H245527   4.520   6.171   2.126 -0.0050  1.1080 -1.4977
 8038TIP3   OH245528   5.007   0.707   1.770 -0.7113  0.2311 -0.8209
 8038TIP3    H145529   4.994   0.658   1.851 -0.2720 -3.1563 -2.6867
 8038TIP3    H245530   5.064   0.779   1.794 -1.9916  0.2902  2.2053
 8039TIP3   OH245531   5.415   4.179  16.148 -0.2468 -0.1214 -0.1281
 8039TIP3    H145532   5.377   4.250  16.200  0.7309  1.6475 -1.7658
 8039TIP3    H245533   5.350   4.163  16.079  0.0078 -0.0709 -0.3827
 8040TIP3   OH245534   0.606   2.915  16.318  0.2181  0.7649  0.3447
 8040TIP3    H145535   0.629   2.911  16.411  1.2771 -1.7000  0.0036
 8040TIP3    H245536   0.520   2.874  16.313  1.4493 -1.8123 -0.1453
 8041TIP3   OH245537   5.801   6.135  11.474 -0.0099 -0.9663  0.2577
 8041TIP3    H145538   5.832   6.142  11.383 -0.7873  0.3815  0.0758
 8041TIP3    H245539   5.707   6.151  11.468  0.0395 -0.2242  1.3612
 8042TIP3   OH245540   4.390   5.377   0.624 -0.2568 -0.1037  0.0889
 8042TIP3    H145541   4.342   5.351   0.545 -0.3202 -0.9562  0.4069
 8042TIP3    H245542   4.480   5.348   0.607 -0.6630 -2.0016  1.1285
 8043TIP3   OH245543   1.971   2.915  16.576 -0.0299 -0.2820 -0.3596
 8043TIP3    H145544   2.034   2.956  16.518  0.5106  2.4456  2.0485
 8043TIP3    H245545   2.022   2.850  16.625  0.1869 -0.3692 -0.6969
 8044TIP3   OH245546   5.105   5.441   3.107  0.0553 -0.2141 -0.5775
 8044TIP3    H145547   5.184   5.388   3.122  1.8309  2.5795  0.3352
 8044TIP3    H245548   5.130   5.502   3.038 -3.1391 -2.8118 -4.2658
 8045TIP3   OH245549   5.508   4.762  12.675  0.2780  0.0885 -0.6955
 8045TIP3    H145550   5.419   4.797  12.678  1.3062  2.8146 -0.3307
 8045TIP3    H245551   5.525   4.731  12.765 -0.3305 -0.5755 -0.8031
 8046TIP3   OH245552   3.164   5.201   0.590  0.3277  0.2173  0.7308
 8046TIP3    H145553   3.180   5.185   0.497 -0.0955 -0.3797  0.7552
 8046TIP3    H245554   3.084   5.252   0.592 -0.9451 -1.7349  0.8589
 8047TIP3   OH245555   1.424   1.291   3.584 -0.2738 -0.0184  0.2075
 8047TIP3    H145556   1.443   1.217   3.640  0.4234 -1.0049 -1.3074
 8047TIP3    H245557   1.479   1.362   3.618 -0.1233 -0.4962  0.9754
 8048TIP3   OH245558   5.497   0.014  12.427 -0.7135 -0.0468  0.7157
 8048TIP3    H145559   5.569   0.075  12.442 -1.7779  1.2816  0.5124
 8048TIP3    H245560   5.473  -0.017  12.515  0.6535 -1.1377  0.7078
 8049TIP3   OH245561   6.229   4.863   1.023  0.0738 -0.0337 -0.3701
 8049TIP3    H145562   6.323   4.874   1.009  0.0301 -1.7425 -2.2205
 8049TIP3    H245563   6.189   4.931   0.968  0.2450  1.9221  1.8645
 8050TIP3   OH245564   6.502   6.657   0.225 -0.4357 -0.2457  0.2033
 8050TIP3    H145565   6.557   6.644   0.303  1.0585  1.4169 -0.5393
 8050TIP3    H245566   6.511   6.575   0.176  0.2335 -0.5363  0.7923
 8051TIP3   OH245567   4.771   4.154  13.115  0.4576 -0.2126 -0.2437
 8051TIP3    H145568   4.713   4.098  13.167  1.7508 -2.1100 -0.7876
 8051TIP3    H245569   4.767   4.118  13.027  0.1573  1.4915 -0.9386
 8052TIP3   OH245570   4.614   2.551  14.827  0.4753  0.3129 -0.0534
 8052TIP3    H145571   4.694   2.581  14.870  0.7028 -1.1205  0.5327
 8052TIP3    H245572   4.561   2.631  14.817  2.0680  1.3044 -0.6735
 8053TIP3   OH245573   3.469   3.390   0.505  0.0569 -0.4631 -0.3010
 8053TIP3    H145574   3.487   3.307   0.550 -1.8927 -1.9864 -2.2376
 8053TIP3    H245575   3.546   3.406   0.450  0.2281 -1.2193 -0.2777
 8054TIP3   OH245576   5.609   0.690   4.267  1.1874 -0.2522 -0.0733
 8054TIP3    H145577   5.687   0.635   4.265  0.4942 -1.1893 -2.0326
 8054TIP3    H245578   5.536   0.631   4.252  0.0640  0.6392  1.6208
 8055TIP3   OH245579   1.694   4.067   4.509 -0.2415 -0.0275 -0.4340
 8055TIP3    H145580   1.640   4.098   4.581  0.9009 -0.7659  0.7868
 8055TIP3    H245581   1.784   4.091   4.534  0.4321 -2.3570 -0.4603
 8056TIP3   OH245582   2.602   2.350   5.834 -0.0240 -0.5853 -0.1433
 8056TIP3    H145583   2.682   2.314   5.795  0.2316 -1.1188  0.8506
 8056TIP3    H245584   2.562   2.276   5.879 -0.4038 -0.0212  0.4585
 8057TIP3   OH245585   5.204   5.477  11.676 -0.3038 -0.0571  0.0397
 8057TIP3    H145586   5.228   5.384  11.678 -0.1597 -0.0829 -1.9512
 8057TIP3    H245587   5.285   5.522  11.652 -0.7320  0.4407 -0.4791
 8058TIP3   OH245588   4.097   3.196  13.515 -0.0314  0.4453  0.2600
 8058TIP3    H145589   4.190   3.204  13.538 -0.3116  1.3188  1.0877
 8058TIP3    H245590   4.050   3.223  13.594 -0.9997  0.1178 -0.1947
 8059TIP3   OH245591   6.705   2.665  15.960 -0.0783 -0.0045 -0.0378
 8059TIP3    H145592   6.662   2.613  16.028 -0.9020  0.1171 -0.4535
 8059TIP3    H245593   6.750   2.601  15.905  0.7380 -0.0859  0.7261
 8060TIP3   OH245594   5.309   6.516   1.501 -0.2414 -0.2240 -0.0939
 8060TIP3    H145595   5.354   6.585   1.453  0.1047 -0.6685 -0.4190
 8060TIP3    H245596   5.282   6.454   1.433 -0.4159 -0.4790  0.2073
 8061TIP3   OH245597   3.849   6.111  12.852 -0.0704  0.5952  0.4204
 8061TIP3    H145598   3.899   6.035  12.823  0.1615  1.1046 -0.5262
 8061TIP3    H245599   3.765   6.075  12.881 -0.4069  0.0986 -1.1105
 8062TIP3   OH245600   0.068   4.463   3.241  0.7450  0.4479 -0.0991
 8062TIP3    H145601   0.146   4.518   3.238  0.3563  0.9819 -0.5445
 8062TIP3    H245602   0.068   4.418   3.156  1.5499 -0.9393  0.6048
 8063TIP3   OH245603   6.258   4.358  15.372  0.2050 -0.3786  0.2481
 8063TIP3    H145604   6.313   4.398  15.305  1.3829 -1.7334  0.3955
 8063TIP3    H245605   6.306   4.371  15.454 -0.9776  0.7996  0.7691
 8064TIP3   OH245606   2.386   3.610   0.805 -0.1471  0.2882  0.6543
 8064TIP3    H145607   2.471   3.613   0.760 -0.7784 -1.1228 -0.6749
 8064TIP3    H245608   2.395   3.674   0.877  1.5339  1.1923 -0.3170
 8065TIP3   OH245609   0.437   0.429   2.179 -0.1584  0.2191 -0.0086
 8065TIP3    H145610   0.447   0.342   2.139 -0.1951  0.4135 -0.4433
 8065TIP3    H245611   0.348   0.428   2.216 -0.3217  0.2251 -0.3958
 8066TIP3   OH245612   1.067   2.341  12.623 -0.2560  0.3284  0.2217
 8066TIP3    H145613   1.098   2.275  12.561 -0.6153 -1.4414  1.8514
 8066TIP3    H245614   0.982   2.368  12.590 -0.0456  0.0594 -0.5351
 8067TIP3   OH245615   0.708   4.644   0.469  0.7241 -0.5866  0.1978
 8067TIP3    H145616   0.630   4.589   0.479  0.2038  0.0354 -0.3791
 8067TIP3    H245617   0.754   4.606   0.395 -0.6533  0.9208 -1.4780
 8068TIP3   OH245618   6.398   1.599  12.563 -0.2431  0.0907  0.5037
 8068TIP3    H145619   6.480   1.564  12.598  0.4261  0.7658 -0.3425
 8068TIP3    H245620   6.379   1.545  12.486  0.0693  0.7081 -0.0144
 8069TIP3   OH245621   0.670   3.139  15.867 -0.0957 -0.1095  0.0984
 8069TIP3    H145622   0.612   3.110  15.796 -2.8955  1.2161  1.7498
 8069TIP3    H245623   0.613   3.142  15.944  2.2579  1.0374  1.8401
 8070TIP3   OH245624   6.000   4.580  16.896 -0.2861 -0.5632 -0.3471
 8070TIP3    H145625   6.011   4.675  16.895 -1.0631 -0.4729 -0.1255
 8070TIP3    H245626   5.926   4.564  16.955 -1.3890 -1.1843 -1.8652
 8071TIP3   OH245627   5.639   5.225   3.840 -0.1668  0.3013  0.6622
 8071TIP3    H145628   5.619   5.142   3.797 -0.8435  1.1443 -0.6792
 8071TIP3    H245629   5.557   5.276   3.833 -0.4358  0.2957  3.3156
 8072TIP3   OH245630   4.136   1.123   2.605 -0.2214  0.3412  0.1700
 8072TIP3    H145631   4.215   1.149   2.652  0.6682 -1.1329 -0.4856
 8072TIP3    H245632   4.120   1.195   2.544  1.1712  0.2021 -0.3680
 8073TIP3   OH245633   6.326   4.253   6.576  0.6148 -0.2143 -0.0658
 8073TIP3    H145634   6.289   4.189   6.515 -0.2991 -0.1897  0.4502
 8073TIP3    H245635   6.421   4.241   6.570  0.6221  0.7097 -2.4892
 8074TIP3   OH245636   0.266   4.895   0.500 -0.4806 -0.3912  0.0807
 8074TIP3    H145637   0.344   4.935   0.539 -0.2953 -1.4957  0.8730
 8074TIP3    H245638   0.273   4.802   0.524 -1.9128 -0.5346 -0.0410
 8075TIP3   OH245639   4.517   2.066   5.535  0.4892  0.0704  0.5785
 8075TIP3    H145640   4.580   1.995   5.549 -0.4419 -0.8830 -0.0264
 8075TIP3    H245641   4.566   2.132   5.486 -0.1873 -2.5918 -3.9346
 8076TIP3   OH245642   5.165   5.072   5.060  0.1952 -0.9576  0.1529
 8076TIP3    H145643   5.118   5.151   5.033 -0.1295 -0.4884  1.9895
 8076TIP3    H245644   5.253   5.083   5.025 -0.1227 -0.2473 -0.4442
 8077TIP3   OH245645   0.082   5.422   3.233 -0.1736 -0.3874 -0.0091
 8077TIP3    H145646   0.165   5.404   3.191 -0.9433 -0.9851 -1.2879
 8077TIP3    H245647   0.088   5.378   3.318  1.2405  0.5373  0.3788
 8078TIP3   OH245648   0.318   2.585  14.728  0.1792  0.6420  0.8708
 8078TIP3    H145649   0.349   2.644  14.659  3.7680 -1.3462  0.6642
 8078TIP3    H245650   0.376   2.602  14.802  0.2075 -1.3982  1.3497
 8079TIP3   OH245651   4.803   4.497  13.139 -0.4979  0.2304 -0.0953
 8079TIP3    H145652   4.712   4.521  13.123 -0.2529  1.3853  0.1645
 8079TIP3    H245653   4.814   4.412  13.097 -1.6006  0.2437 -0.4207
 8080TIP3   OH245654   2.849   3.124  10.735 -0.2237  0.2072  0.2740
 8080TIP3    H145655   2.814   3.121  10.647  0.0173  2.1175  0.0937
 8080TIP3    H245656   2.916   3.193  10.732  0.8744 -0.7779  1.5477
 8081TIP3   OH245657   5.732   2.323   2.758 -0.4630  0.4890 -0.6333
 8081TIP3    H145658   5.785   2.401   2.742  1.1006 -0.3697  0.1204
 8081TIP3    H245659   5.761   2.293   2.844 -1.7032 -0.4040 -0.5187
 8082TIP3   OH245660   0.133   5.942  17.021  0.1732  0.2079 -0.1822
 8082TIP3    H145661   0.118   5.875  16.954 -0.7304 -0.0791  0.3019
 8082TIP3    H245662   0.187   5.898  17.086  0.0421  0.1194 -0.1335
 8083TIP3   OH245663   4.681   1.704  12.628  0.1695  0.1605  0.5672
 8083TIP3    H145664   4.622   1.646  12.581  0.8932 -1.1150  1.2162
 8083TIP3    H245665   4.686   1.782  12.573 -1.6607  0.0688  0.2174
 8084TIP3   OH245666   4.549   1.047   3.647 -0.5372  0.6597 -0.0678
 8084TIP3    H145667   4.542   0.952   3.639  2.4181  0.3788  0.1846
 8084TIP3    H245668   4.531   1.080   3.559 -0.7573 -0.1700 -0.3379
 8085TIP3   OH245669   3.332   2.149  13.435 -0.0885 -0.3584  0.4278
 8085TIP3    H145670   3.344   2.174  13.344 -2.0619 -2.1078 -0.3605
 8085TIP3    H245671   3.246   2.185  13.458 -0.3206 -1.3254  1.1003
 8086TIP3   OH245672   5.763   6.745   5.752 -1.0060 -0.0787  0.2975
 8086TIP3    H145673   5.847   6.736   5.709 -1.8723  0.8922 -1.6823
 8086TIP3    H245674   5.711   6.672   5.719 -0.7148 -1.1133  2.0915
 8087TIP3   OH245675   4.744   4.916  14.079 -0.2001 -0.0896  0.3774
 8087TIP3    H145676   4.821   4.973  14.074 -0.2783  0.0160  0.3839
 8087TIP3    H245677   4.780   4.827  14.077  0.1274 -0.0832  3.3311
 8088TIP3   OH245678   5.903   2.092  16.255  0.1608  0.1950  0.5740
 8088TIP3    H145679   5.811   2.071  16.270  0.3136 -1.8618 -0.9908
 8088TIP3    H245680   5.950   2.037  16.318  0.4089 -1.3559 -0.9065
 8089TIP3   OH245681   0.660   4.042   1.679  0.3133 -0.3357 -0.3487
 8089TIP3    H145682   0.623   3.978   1.739  0.1899 -0.0458 -0.1136
 8089TIP3    H245683   0.600   4.117   1.684  2.1304  1.0707  1.7558
 8090TIP3   OH245684   3.007   1.885   3.160  0.0480 -0.4066 -0.0946
 8090TIP3    H145685   3.101   1.904   3.152 -0.1609  0.3261 -0.9094
 8090TIP3    H245686   2.989   1.891   3.254  0.5989  0.5611 -0.0412
 8091TIP3   OH245687   4.997   6.135   4.518 -0.1767  0.3537 -0.1801
 8091TIP3    H145688   4.965   6.204   4.460  2.1277  1.1634 -0.5239
 8091TIP3    H245689   4.931   6.066   4.510 -0.7433  1.1027 -2.5056
 8092TIP3   OH245690   2.391   6.216  11.525 -0.1470 -0.7875 -0.5798
 8092TIP3    H145691   2.393   6.309  11.502 -0.1269 -0.7904 -0.5896
 8092TIP3    H245692   2.323   6.210  11.592  0.3506 -0.6480 -0.0589
 8093TIP3   OH245693   0.660   5.792   4.960  0.5033  0.1459 -0.5899
 8093TIP3    H145694   0.724   5.861   4.940  1.1671 -0.0691  0.7902
 8093TIP3    H245695   0.594   5.835   5.015  1.6600 -0.6377  1.4643
 8094TIP3   OH245696   0.568   0.716  13.535  0.4658 -0.3534 -0.1476
 8094TIP3    H145697   0.531   0.804  13.543 -1.7265 -0.9850 -2.5831
 8094TIP3    H245698   0.658   0.730  13.505  0.3868  1.0493  0.2360
 8095TIP3   OH245699   4.679   1.441  14.253  1.1996 -0.7932 -0.6131
 8095TIP3    H145700   4.613   1.446  14.183  1.2421 -0.5570 -0.6335
 8095TIP3    H245701   4.710   1.350  14.249  1.1215 -0.8110 -0.8272
 8096TIP3   OH245702   6.611   3.853   5.269 -0.8710  0.0257 -0.1980
 8096TIP3    H145703   6.699   3.819   5.255 -1.4061 -1.9572  1.0282
 8096TIP3    H245704   6.566   3.838   5.185 -1.0092 -2.0776  0.2236
 8097TIP3   OH245705   5.170   0.216  13.510  0.2088 -0.0382  0.0817
 8097TIP3    H145706   5.173   0.224  13.414  0.6469 -0.8070  0.0290
 8097TIP3    H245707   5.260   0.232  13.538  0.0124  0.5263  0.3937
 8098TIP3   OH245708   2.829   3.252   0.882 -0.1043  0.3527 -0.0426
 8098TIP3    H145709   2.897   3.275   0.946 -0.9544  1.1727  0.5680
 8098TIP3    H245710   2.754   3.226   0.934 -1.6722  3.4802 -0.6362
 8099TIP3   OH245711   0.673   1.115  11.453  0.5346  0.0057 -0.2437
 8099TIP3    H145712   0.615   1.174  11.404  0.8620  2.7700  2.5711
 8099TIP3    H245713   0.626   1.097  11.534  2.8673  0.9559  1.3695
 8100TIP3   OH245714   6.092   2.741   3.694  0.6773 -0.5561 -0.2624
 8100TIP3    H145715   6.047   2.670   3.647  0.2485 -0.8764  0.6315
 8100TIP3    H245716   6.170   2.699   3.730 -0.7001 -1.1286  2.1553
 8101TIP3   OH245717   3.556   5.831   1.169  0.6442 -0.3866 -0.3856
 8101TIP3    H145718   3.618   5.901   1.190 -0.2798  0.2855  0.1582
 8101TIP3    H245719   3.601   5.778   1.103  1.1042  1.1027 -1.3037
 8102TIP3   OH245720   2.719   4.754  13.150  0.3251 -0.4830  0.1252
 8102TIP3    H145721   2.758   4.837  13.177  0.1750 -0.7619  1.2319
 8102TIP3    H245722   2.630   4.757  13.187 -0.6129  0.0107 -2.0925
 8103TIP3   OH245723   0.117   3.164   2.443  0.4684  0.0162  0.0688
 8103TIP3    H145724   0.199   3.148   2.398  0.3780  0.6335 -0.3095
 8103TIP3    H245725   0.131   3.244   2.492 -0.0634  0.3860 -0.3776
 8104TIP3   OH245726   6.172   4.798   0.478 -0.7356 -0.0827  0.2504
 8104TIP3    H145727   6.201   4.731   0.539 -0.9306 -0.9983 -0.6462
 8104TIP3    H245728   6.077   4.785   0.471 -1.2710  2.2492  2.3966
 8105TIP3   OH245729   4.675   5.121  13.175 -0.0696 -0.5671  0.3094
 8105TIP3    H145730   4.768   5.100  13.185  0.4629  1.2138 -0.8335
 8105TIP3    H245731   4.658   5.188  13.241 -0.7439 -1.3919  1.0015
 8106TIP3   OH245732   1.730   6.778  17.234  0.1908  0.2810 -0.0236
 8106TIP3    H145733   1.689   6.864  17.228 -1.2544 -0.3768  0.2560
 8106TIP3    H245734   1.697   6.730  17.158  0.7833 -0.1048 -0.0377
 8107TIP3   OH245735   2.333   3.787  11.430 -0.2750  0.4054 -0.3197
 8107TIP3    H145736   2.277   3.846  11.482 -2.1821 -1.6743  0.0492
 8107TIP3    H245737   2.324   3.819  11.340 -1.2300  0.7462 -0.1119
 8108TIP3   OH245738   5.225   2.527   1.356 -0.3889  0.2778 -0.2201
 8108TIP3    H145739   5.130   2.521   1.345 -0.3616  0.1674 -0.4167
 8108TIP3    H245740   5.260   2.501   1.270 -0.1652 -0.3616  0.0626
 8109TIP3   OH245741   2.508   2.958   3.763  0.5387  0.1698 -0.5906
 8109TIP3    H145742   2.439   2.926   3.821  0.3440  0.8444 -0.4422
 8109TIP3    H245743   2.556   2.880   3.737  0.3184 -0.1950  0.0839
 8110TIP3   OH245744   6.640   6.075   6.088  0.4173  0.0610  0.0981
 8110TIP3    H145745   6.545   6.063   6.083  0.5780 -1.5547  0.4875
 8110TIP3    H245746   6.652   6.157   6.135 -0.7793 -0.3283  1.1096
 8111TIP3   OH245747   4.463   0.987  10.715 -0.7202 -0.4589 -0.0102
 8111TIP3    H145748   4.369   0.969  10.728 -1.1155 -0.4998 -2.7055
 8111TIP3    H245749   4.465   1.078  10.686  0.2046 -0.0418  1.3584
 8112TIP3   OH245750   0.565   5.877   0.349  0.0795 -0.3698 -0.4939
 8112TIP3    H145751   0.572   5.948   0.412  0.5854 -0.2016 -0.7334
 8112TIP3    H245752   0.557   5.798   0.402 -1.2671 -0.0589 -0.2288
 8113TIP3   OH245753   1.275   0.900  15.132  0.0121  0.1578 -0.6940
 8113TIP3    H145754   1.196   0.891  15.185 -0.0382 -0.7209 -0.8922
 8113TIP3    H245755   1.242   0.907  15.042  0.1895 -2.2047 -0.9874
 8114TIP3   OH245756   0.554   6.156   2.169 -0.0582 -0.0636 -0.1582
 8114TIP3    H145757   0.534   6.089   2.103  1.0979 -2.0130  1.4344
 8114TIP3    H245758   0.603   6.109   2.236 -0.6190  2.0570  1.7564
 8115TIP3   OH245759   1.566   5.564   4.671 -0.7435 -0.1219  0.5038
 8115TIP3    H145760   1.499   5.503   4.641 -0.8218 -0.1428  0.7197
 8115TIP3    H245761   1.551   5.572   4.766  0.2586 -0.9823  0.7377
 8116TIP3   OH245762   3.090   3.050  17.155 -0.3761  0.1261 -0.1333
 8116TIP3    H145763   3.102   2.988  17.228  2.7379  1.6660  0.7612
 8116TIP3    H245764   3.044   3.124  17.194 -1.0526 -0.1596 -0.3837
 8117TIP3   OH245765   0.108   3.676   4.546 -0.8564 -0.1158 -0.2130
 8117TIP3    H145766   0.017   3.651   4.561 -1.3219  0.5510 -1.8467
 8117TIP3    H245767   0.104   3.766   4.514  0.4302  0.1641  0.3695
 8118TIP3   OH245768   1.222   0.758   1.489 -0.8405  0.0322  0.4581
 8118TIP3    H145769   1.223   0.671   1.449 -2.5207 -0.8670  2.3109
 8118TIP3    H245770   1.314   0.780   1.502 -0.3609 -0.8944 -1.2114
 8119TIP3   OH245771   1.763   6.266   3.592  0.9419  0.1673 -0.2587
 8119TIP3    H145772   1.785   6.246   3.501 -0.8139  0.6675 -0.8094
 8119TIP3    H245773   1.669   6.252   3.598  0.9263  0.8227  1.3048
 8120TIP3   OH245774   5.970   1.078   1.866  0.3581  0.0232  0.0261
 8120TIP3    H145775   5.959   1.072   1.961 -2.0924  1.9223 -0.0910
 8120TIP3    H245776   5.994   1.169   1.850  0.3804 -0.1908 -1.1913
 8121TIP3   OH245777   4.255   5.742  13.808 -0.4360 -0.1259  0.0030
 8121TIP3    H145778   4.295   5.820  13.769  0.9432 -0.8865 -0.1258
 8121TIP3    H245779   4.177   5.775  13.852  1.5927  1.7720  2.3166
 8122TIP3   OH245780   6.776   3.664   3.809  0.7785 -0.9351 -0.2065
 8122TIP3    H145781   6.830   3.588   3.787  0.6699 -2.0557  3.1566
 8122TIP3    H245782   6.829   3.716   3.869 -0.7212 -0.5339  0.8113
 8123TIP3   OH245783   4.975   3.603  13.398 -0.2178 -0.3286  0.1788
 8123TIP3    H145784   4.896   3.549  13.394 -0.3840 -0.0017 -1.3513
 8123TIP3    H245785   4.995   3.622  13.306  0.3980  1.3986  0.6583
 8124TIP3   OH245786   5.922   4.914  14.399  0.0966  0.6386  0.0361
 8124TIP3    H145787   5.965   4.832  14.426  0.2513  0.6744 -0.1028
 8124TIP3    H245788   5.926   4.969  14.477 -1.4201 -0.0549  0.6235
 8125TIP3   OH245789   2.828   0.683   3.411 -0.3491  0.0262  0.8970
 8125TIP3    H145790   2.893   0.740   3.452 -0.6924  0.8592  0.2998
 8125TIP3    H245791   2.762   0.743   3.376 -1.0582 -0.7740  0.8457
 8126TIP3   OH245792   2.456   5.424   5.746  0.0652  0.0661  0.1040
 8126TIP3    H145793   2.526   5.362   5.769  0.4762  0.6500  0.4334
 8126TIP3    H245794   2.496   5.510   5.757 -0.7700  0.4074  0.4781
 8127TIP3   OH245795   2.260   3.587  16.967 -0.4991  0.1543  0.0806
 8127TIP3    H145796   2.342   3.629  16.941 -0.3078  0.1485  0.6683
 8127TIP3    H245797   2.200   3.604  16.894  0.2206 -0.4241 -0.6597
 8128TIP3   OH245798   2.782   4.898   5.858  0.4253 -0.1614 -0.2757
 8128TIP3    H145799   2.797   4.983   5.900 -0.3577  0.2028 -0.7293
 8128TIP3    H245800   2.864   4.879   5.812  0.3933  0.6209 -0.6550
 8129TIP3   OH245801   2.630   4.787  17.224 -0.1662  0.1751 -0.4517
 8129TIP3    H145802   2.601   4.748  17.141 -1.0787  0.6288 -0.3548
 8129TIP3    H245803   2.568   4.754  17.289 -0.9343  1.7344 -0.3589
 8130TIP3   OH245804   3.918   0.667  15.426  0.0061  0.2907 -0.6431
 8130TIP3    H145805   3.841   0.614  15.406  0.4946 -0.7023  0.0661
 8130TIP3    H245806   3.882   0.751  15.455 -0.8549 -0.5029  0.6448
 8131TIP3   OH245807   1.609   5.897  12.776 -0.4793 -0.3994 -0.1164
 8131TIP3    H145808   1.681   5.939  12.824 -0.7857  1.8661 -1.5555
 8131TIP3    H245809   1.643   5.810  12.755  2.7356  1.2987 -2.5283
 8132TIP3   OH245810   2.874   0.357  16.885  0.0604 -0.7579 -0.1730
 8132TIP3    H145811   2.828   0.354  16.801 -1.6302  0.9516  0.6458
 8132TIP3    H245812   2.841   0.281  16.933  1.1943 -1.8636 -1.1094
 8133TIP3   OH245813   6.515   3.900   6.588  0.4344 -0.0016  0.1366
 8133TIP3    H145814   6.553   3.988   6.576  0.6482 -0.1645 -0.4183
 8133TIP3    H245815   6.424   3.916   6.613  0.7718  0.3934  1.1370
 8134TIP3   OH245816   0.098   3.360  14.735  0.2006  0.4963  0.2048
 8134TIP3    H145817   0.027   3.416  14.704 -0.3880  0.2356  1.0521
 8134TIP3    H245818   0.131   3.403  14.814  1.0756  0.6844 -0.2565
 8135TIP3   OH245819   1.153   4.430  14.574  0.2013  0.1951 -0.8236
 8135TIP3    H145820   1.133   4.339  14.553 -1.1666 -0.1002  1.6099
 8135TIP3    H245821   1.111   4.480  14.504 -1.3634 -0.9149 -0.7035
 8136TIP3   OH245822   2.400   4.631   2.508  0.0888  0.3431 -0.0343
 8136TIP3    H145823   2.369   4.552   2.553  0.0044  1.5700  2.1124
 8136TIP3    H245824   2.491   4.641   2.536  0.5431  0.2093 -1.4437
 8137TIP3   OH245825   4.122   5.853   4.393  0.2267  0.4554  0.3021
 8137TIP3    H145826   4.156   5.807   4.469  1.1241 -1.2047 -1.0704
 8137TIP3    H245827   4.028   5.861   4.410  0.5625  0.8937  1.9723
 8138TIP3   OH245828   3.114   4.202   0.812 -0.3248 -0.4714  0.3297
 8138TIP3    H145829   3.103   4.188   0.718 -0.6884 -0.9243  0.4382
 8138TIP3    H245830   3.183   4.140   0.837 -0.2820 -0.4055  0.3766
 8139TIP3   OH245831   1.949   6.092  10.611 -0.1343 -0.1503  0.3189
 8139TIP3    H145832   1.974   6.062  10.524  0.9783  1.2102  0.1538
 8139TIP3    H245833   2.008   6.045  10.671 -0.2391 -0.3437  0.2719
 8140TIP3   OH245834   0.825   6.139   4.037  0.0117 -0.0989  0.5577
 8140TIP3    H145835   0.854   6.092   3.959  0.7501  2.4517 -0.7283
 8140TIP3    H245836   0.739   6.102   4.057 -0.2002 -0.7430 -1.4718
 8141TIP3   OH245837   1.515   1.246  16.130  0.7730 -0.2951 -0.1248
 8141TIP3    H145838   1.483   1.186  16.063 -3.5957  0.2514  1.2561
 8141TIP3    H245839   1.532   1.190  16.206  0.3105 -0.2800 -0.0044
 8142TIP3   OH245840   3.840   1.025  14.329  0.2995 -0.0456 -0.3496
 8142TIP3    H145841   3.888   0.956  14.375 -0.0729  0.5627  0.9895
 8142TIP3    H245842   3.896   1.102  14.334  0.2671  0.0158 -0.9402
 8143TIP3   OH245843   5.646   2.847   1.086 -0.0893  0.8939  0.0164
 8143TIP3    H145844   5.674   2.937   1.105 -1.1712  0.8619  1.8945
 8143TIP3    H245845   5.651   2.802   1.170  0.3050 -0.7815 -0.8849
 8144TIP3   OH245846   3.918   2.382   6.377  0.3948 -0.0511  0.2574
 8144TIP3    H145847   3.878   2.395   6.463 -0.2184 -1.9727  0.2883
 8144TIP3    H245848   3.914   2.469   6.336 -0.5194  0.5987  1.6461
 8145TIP3   OH245849   5.487   1.201  16.003  0.0255  0.1132  0.5217
 8145TIP3    H145850   5.486   1.108  15.980 -3.9405 -0.2665  1.7764
 8145TIP3    H245851   5.510   1.245  15.921 -2.7927 -1.7774 -1.4026
 8146TIP3   OH245852   6.150   2.694  14.620 -0.3267  0.5596 -0.5667
 8146TIP3    H145853   6.188   2.618  14.576 -1.6806 -0.0804 -0.6688
 8146TIP3    H245854   6.225   2.748  14.644  0.6813 -1.0255 -0.0930
 8147TIP3   OH245855   3.061   3.307  12.904  0.5633  0.1722 -0.2393
 8147TIP3    H145856   3.083   3.360  12.981  0.5534  0.2791 -0.3108
 8147TIP3    H245857   2.966   3.307  12.901  0.4849 -1.8537  1.1649
 8148TIP3   OH245858   5.401   2.325  12.771  0.2984 -0.0291 -0.0473
 8148TIP3    H145859   5.397   2.396  12.707  0.2335 -0.7383 -0.8376
 8148TIP3    H245860   5.372   2.248  12.724 -3.1331  0.0617  1.7844
 8149TIP3   OH245861   6.139   1.769  11.749 -0.1237  0.3966  0.0288
 8149TIP3    H145862   6.096   1.784  11.665 -0.4456 -0.0070  0.1216
 8149TIP3    H245863   6.179   1.853  11.771  1.6901 -0.0492 -1.5034
 8150TIP3   OH245864   1.237   2.208  13.575  0.2525  0.1249  0.2823
 8150TIP3    H145865   1.286   2.259  13.639 -1.5594  1.0843  0.9461
 8150TIP3    H245866   1.152   2.193  13.616 -0.0751 -1.3932 -0.8979
 8151TIP3   OH245867   0.304   2.188  13.515 -0.2404  0.0083 -0.6071
 8151TIP3    H145868   0.392   2.158  13.536  0.2372  1.6689 -0.1684
 8151TIP3    H245869   0.246   2.136  13.571  0.6531  0.7111  1.0044
 8152TIP3   OH245870   0.936   5.306   0.598 -0.2368 -0.2646  0.1466
 8152TIP3    H145871   0.889   5.225   0.616 -2.3636  0.6169 -1.2086
 8152TIP3    H245872   1.007   5.280   0.539  0.7290 -1.5394  1.8456
 8153TIP3   OH245873   6.659   4.812   1.321 -0.2031 -0.0867  0.0597
 8153TIP3    H145874   6.577   4.773   1.292 -0.9308  0.3735  1.4687
 8153TIP3    H245875   6.725   4.772   1.265 -1.4675  0.1417 -1.6333
 8154TIP3   OH245876   4.659   4.118  11.431 -0.2795 -0.2209 -0.4520
 8154TIP3    H145877   4.704   4.189  11.386  0.8174 -1.2059 -0.9162
 8154TIP3    H245878   4.659   4.046  11.369 -0.8942 -0.8223  0.2317
 8155TIP3   OH245879   0.194   0.459   4.341 -0.0329  0.2583  0.1181
 8155TIP3    H145880   0.283   0.430   4.363  0.3963  1.2433 -0.2755
 8155TIP3    H245881   0.206   0.517   4.266 -0.9224  1.1092  0.6250
 8156TIP3   OH245882   6.766   0.871   5.427 -0.7752 -0.4540  0.0136
 8156TIP3    H145883   6.756   0.881   5.521 -0.5824 -0.5567  0.0455
 8156TIP3    H245884   6.751   0.777   5.411  0.2127 -0.6300  0.0740
 8157TIP3   OH245885   5.637   4.385   0.544 -0.3362  0.3059 -0.2620
 8157TIP3    H145886   5.576   4.383   0.470  1.5505 -1.3462 -1.8490
 8157TIP3    H245887   5.709   4.440   0.514  0.4171 -0.3174  0.3765
 8158TIP3   OH245888   3.864   3.088  16.247 -0.6025 -0.2997  0.1105
 8158TIP3    H145889   3.824   3.040  16.174 -1.3052  0.7229 -0.1785
 8158TIP3    H245890   3.889   3.172  16.209  2.0161 -0.9664  0.2353
 8159TIP3   OH245891   3.972   0.852  11.365  0.3648  0.1278 -0.2845
 8159TIP3    H145892   3.905   0.785  11.374  1.0630 -0.4873  0.4465
 8159TIP3    H245893   3.924   0.935  11.363 -0.4856 -0.3725 -0.9983
 8160TIP3   OH245894   3.897   4.918  11.673 -0.2161  0.0950 -0.1110
 8160TIP3    H145895   3.906   4.901  11.579 -0.5113 -0.9274  0.0481
 8160TIP3    H245896   3.831   4.987  11.678 -0.2781  0.0767 -0.6460
 8161TIP3   OH245897   1.941   2.560  16.377  0.2966  0.0443  0.1843
 8161TIP3    H145898   1.916   2.569  16.285 -1.7129  1.4514  0.8263
 8161TIP3    H245899   2.022   2.610  16.385  1.7544 -1.9837 -1.2748
 8162TIP3   OH245900   0.153   4.643  12.731  0.2831  0.5641 -1.0072
 8162TIP3    H145901   0.063   4.655  12.700  0.4168  0.3394 -1.4905
 8162TIP3    H245902   0.193   4.586  12.665  0.9503  1.1625 -1.1187
 8163TIP3   OH245903   5.966   5.614  15.463  0.0306  0.1601 -0.1809
 8163TIP3    H145904   5.923   5.699  15.460  2.8114  1.6836  1.5033
 8163TIP3    H245905   5.977   5.589  15.371 -0.8292  1.5875 -0.6806
 8164TIP3   OH245906   1.700   4.793  12.952 -0.1287  0.3720 -0.1150
 8164TIP3    H145907   1.676   4.749  12.871  0.5041 -0.4489  0.1307
 8164TIP3    H245908   1.735   4.878  12.925 -0.6845  0.4360 -0.6414
 8165TIP3   OH245909   6.280   3.244   3.956 -0.1725 -0.3457  0.0332
 8165TIP3    H145910   6.262   3.333   3.925 -0.1225  0.0567  1.1311
 8165TIP3    H245911   6.336   3.206   3.889  0.5984  0.7769  0.0339
 8166TIP3   OH245912   5.256   1.382  12.411 -0.5395  0.3354  0.2932
 8166TIP3    H145913   5.161   1.387  12.400 -0.8170  0.4203  2.4857
 8166TIP3    H245914   5.268   1.354  12.502  1.5241 -1.3235 -0.4554
 8167TIP3   OH245915   4.753   5.062   2.922  0.1009  0.3897  0.0719
 8167TIP3    H145916   4.666   5.038   2.889 -0.4866  3.1020 -0.4726
 8167TIP3    H245917   4.735   5.105   3.006  0.9881  0.0841  0.4205
 8168TIP3   OH245918   5.128   5.660   4.817 -0.0547  0.0435  0.2760
 8168TIP3    H145919   5.183   5.721   4.865  2.1415  0.2169 -2.3376
 8168TIP3    H245920   5.055   5.713   4.786  1.3257  1.1514 -1.1389
 8169TIP3   OH245921   6.305   0.287  13.005 -0.2564  0.2212 -0.4572
 8169TIP3    H145922   6.263   0.205  12.978 -1.0101  0.6250 -0.5182
 8169TIP3    H245923   6.242   0.327  13.065  0.3497  0.4944  0.0007
 8170TIP3   OH245924   2.384   4.066  14.082  0.5504 -0.1592  0.1275
 8170TIP3    H145925   2.375   4.076  14.177 -0.4855 -2.1405  0.2655
 8170TIP3    H245926   2.314   4.121  14.045  0.7035  0.2982  0.5139
 8171TIP3   OH245927   1.480   5.967  15.904  0.0522  0.7880  0.0168
 8171TIP3    H145928   1.513   5.931  15.822  1.8550 -0.6818  1.3487
 8171TIP3    H245929   1.495   5.898  15.968  1.0901  2.9070  2.1165
 8172TIP3   OH245930   1.611   0.698   2.521  0.1206 -0.2269 -0.5196
 8172TIP3    H145931   1.575   0.631   2.463  0.0139  0.9939 -1.8934
 8172TIP3    H245932   1.672   0.651   2.577 -0.0633 -1.5047 -1.3764
 8173TIP3   OH245933   0.634   3.173  10.701 -0.4100 -0.8926 -0.6189
 8173TIP3    H145934   0.625   3.204  10.791  0.4697  1.4138 -1.2930
 8173TIP3    H245935   0.557   3.208  10.656  0.6354  0.4676 -1.4028
 8174TIP3   OH245936   5.463   0.774  12.293 -0.2193 -0.1825 -0.1781
 8174TIP3    H145937   5.424   0.812  12.372 -2.1339 -0.2131 -1.0639
 8174TIP3    H245938   5.483   0.850  12.238 -0.2353 -0.2289 -0.2481
 8175TIP3   OH245939   6.065   2.688  11.656 -0.0389 -0.0475  0.1550
 8175TIP3    H145940   6.073   2.602  11.696 -1.2119 -0.0833  0.3178
 8175TIP3    H245941   6.050   2.747  11.730 -1.1486  0.0320 -0.1327
 8176TIP3   OH245942   1.514   1.840  16.323 -0.2014 -0.2992  0.2129
 8176TIP3    H145943   1.426   1.836  16.286  0.4419  0.9879 -1.5481
 8176TIP3    H245944   1.501   1.868  16.414 -1.4625  2.6730 -0.8393
 8177TIP3   OH245945   2.382   3.251   2.572  0.2094  0.1248  0.0248
 8177TIP3    H145946   2.430   3.188   2.518 -0.5914 -2.1958  1.9894
 8177TIP3    H245947   2.432   3.256   2.653 -1.4152 -0.2996  1.0606
 8178TIP3   OH245948   2.779   0.633  11.617  0.0183 -0.1777 -0.9428
 8178TIP3    H145949   2.847   0.650  11.682  0.9971  0.9110 -2.2147
 8178TIP3    H245950   2.701   0.614  11.668  0.6255  1.1863  0.5505
 8179TIP3   OH245951   5.762   4.434  13.862 -0.6065 -0.5101  0.0509
 8179TIP3    H145952   5.717   4.375  13.922 -0.1001 -1.1837 -0.2153
 8179TIP3    H245953   5.765   4.386  13.779  1.7108 -1.0280  0.3993
 8180TIP3   OH245954   1.982   3.868  13.975  0.1216  0.1970  0.6246
 8180TIP3    H145955   1.994   3.922  13.897 -2.3151 -2.2854 -1.5824
 8180TIP3    H245956   2.007   3.780  13.947  0.0125 -0.5796  2.8851
 8181TIP3   OH245957   4.152   3.628  16.901  0.0676 -0.3524  0.8855
 8181TIP3    H145958   4.074   3.572  16.908 -0.6293  0.7585  2.3546
 8181TIP3    H245959   4.124   3.712  16.939  2.0894 -0.0467  1.7309
 8182TIP3   OH245960   3.876   6.653   4.184 -0.2317  0.1352 -0.7294
 8182TIP3    H145961   3.828   6.579   4.146  0.6267 -0.0227 -1.5393
 8182TIP3    H245962   3.966   6.641   4.153  0.2053  0.7494  0.2840
 8183TIP3   OH245963   6.192   2.452  14.904 -0.3963 -0.5909 -0.2683
 8183TIP3    H145964   6.204   2.511  14.830  1.7504  1.7458  1.8076
 8183TIP3    H245965   6.276   2.455  14.950 -1.1960 -3.1188  1.4428
 8184TIP3   OH245966   4.718   3.393   1.260 -0.0910 -0.2021  0.0667
 8184TIP3    H145967   4.732   3.301   1.284  0.0167 -0.1942  0.0366
 8184TIP3    H245968   4.629   3.395   1.225 -0.3580 -0.1518  0.7485
 8185TIP3   OH245969   3.718   4.448   2.499  0.0340 -0.3741  0.7826
 8185TIP3    H145970   3.652   4.457   2.567 -1.1707  0.7639 -0.4994
 8185TIP3    H245971   3.800   4.473   2.542 -0.5495 -0.6517  2.0742
 8186TIP3   OH245972   4.366   4.209  13.179  0.2745 -0.0353  0.1977
 8186TIP3    H145973   4.302   4.252  13.237  0.8749  0.5276  0.4458
 8186TIP3    H245974   4.407   4.142  13.234 -1.2887 -1.5672 -0.4316
 8187TIP3   OH245975   3.755   2.876  11.947  0.5229  0.1938  0.0686
 8187TIP3    H145976   3.670   2.892  11.988 -0.0002 -0.6787 -0.6464
 8187TIP3    H245977   3.761   2.942  11.878  0.6271  0.5408  0.4063
 8188TIP3   OH245978   2.951   1.950  16.240 -0.0836 -0.2291  0.2205
 8188TIP3    H145979   2.927   2.009  16.168  0.7695  0.8167  0.7870
 8188TIP3    H245980   2.900   1.870  16.223 -0.2018  0.1534 -1.3148
 8189TIP3   OH245981   6.234   0.497  14.106  0.2898 -0.0243 -0.2789
 8189TIP3    H145982   6.147   0.535  14.122 -0.2413 -1.4941  0.4195
 8189TIP3    H245983   6.260   0.460  14.190  0.8713 -1.0445 -0.8925
 8190TIP3   OH245984   0.642   2.578   0.017  0.5207 -0.1909  0.0494
 8190TIP3    H145985   0.551   2.555  -0.003  0.3257 -1.0531  1.7660
 8190TIP3    H245986   0.682   2.495   0.043  1.9677  0.0806 -1.2208
 8191TIP3   OH245987   5.460   0.298   4.791 -0.2612 -0.2012  0.1586
 8191TIP3    H145988   5.428   0.388   4.781  1.5541  0.5267  0.6133
 8191TIP3    H245989   5.453   0.260   4.704  1.4000  1.2417 -0.6411
 8192TIP3   OH245990   3.944   0.409   4.750  0.4165  0.3039 -0.0013
 8192TIP3    H145991   3.910   0.491   4.713  0.1879  0.4346  0.4897
 8192TIP3    H245992   3.906   0.405   4.838 -1.7702 -1.6492 -0.9788
 8193TIP3   OH245993   5.703   4.853   2.830 -0.9819  0.3972  0.1869
 8193TIP3    H145994   5.726   4.916   2.899 -1.1014  0.2535  0.3582
 8193TIP3    H245995   5.609   4.864   2.818 -1.2335 -0.6361  1.1082
 8194TIP3   OH245996   1.212   6.348  11.245 -0.0371 -0.4275 -0.1147
 8194TIP3    H145997   1.270   6.326  11.318  1.0591  2.0912 -0.1692
 8194TIP3    H245998   1.270   6.380  11.176 -1.2449 -0.7411 -1.3032
 8195TIP3   OH245999   3.141   4.004  17.123  0.4548 -0.9004 -0.0671
 8195TIP3    H146000   3.233   4.003  17.097  0.3661 -1.6626 -0.3705
 8195TIP3    H246001   3.104   4.081  17.080  0.7220 -1.1545 -0.7632
 8196TIP3   OH246002   2.696   3.695   4.577  0.0493  0.3599  0.1702
 8196TIP3    H146003   2.616   3.660   4.615  0.0890  1.0552  0.8991
 8196TIP3    H246004   2.726   3.762   4.639  1.0002  0.3566 -0.2668
 8197TIP3   OH246005   0.627   3.527  12.464  0.1297 -0.0138  0.0402
 8197TIP3    H146006   0.716   3.492  12.473  0.4825  0.5318 -1.2220
 8197TIP3    H246007   0.629   3.611  12.510 -0.1705 -0.7153  1.3551
 8198TIP3   OH246008   6.100   6.114   1.455  0.5207  0.2598 -0.0509
 8198TIP3    H146009   6.083   6.069   1.538  0.6910 -0.3865 -0.3638
 8198TIP3    H246010   6.050   6.196   1.462  1.9040  1.0234  1.4055
 8199TIP3   OH246011   2.981   2.929   5.373 -0.1721 -0.3853 -0.4972
 8199TIP3    H146012   2.903   2.936   5.427 -0.8389 -0.6426 -1.4177
 8199TIP3    H246013   2.981   2.839   5.341 -0.1650 -0.0478 -1.4808
 8200TIP3   OH246014   1.022   6.331   5.912  0.0564  0.6821  0.3393
 8200TIP3    H146015   1.034   6.313   5.818 -1.4572  2.5038 -0.2294
 8200TIP3    H246016   1.109   6.357   5.943  0.2501  1.5981 -0.9257
 8201TIP3   OH246017   1.876   4.584  16.496 -0.8711  0.2246 -0.2122
 8201TIP3    H146018   1.967   4.571  16.521 -0.4474  0.3068 -1.6789
 8201TIP3    H246019   1.825   4.542  16.565  0.2841 -0.2152  0.3714
 8202TIP3   OH246020   5.216   5.939  11.039 -0.2598 -1.1038  0.0840
 8202TIP3    H146021   5.139   5.910  10.989 -0.8021  0.1190  0.1824
 8202TIP3    H246022   5.284   5.952  10.974 -0.2890 -1.7144 -0.0672
 8203TIP3   OH246023   3.582   5.837  11.964 -0.4965  0.5572 -0.3183
 8203TIP3    H146024   3.578   5.745  11.991  1.7060  0.3625 -0.5394
 8203TIP3    H246025   3.653   5.840  11.899  2.1580  3.0796  2.5252
 8204TIP3   OH246026   2.240   4.861  16.528  0.2896 -0.3450 -0.0785
 8204TIP3    H146027   2.198   4.777  16.545  1.0063 -0.9165 -1.0351
 8204TIP3    H246028   2.258   4.860  16.434  0.9624  0.5708  0.0334
 8205TIP3   OH246029   6.327   0.789  11.953  0.0549 -0.0632 -0.2092
 8205TIP3    H146030   6.257   0.854  11.949  0.8394  0.7943 -0.2018
 8205TIP3    H246031   6.357   0.780  11.862  2.3958  2.3191  0.2646
 8206TIP3   OH246032   1.323   2.100   3.491 -0.2179 -0.1664  0.5082
 8206TIP3    H146033   1.341   2.040   3.563 -1.6806 -1.4945 -0.2076
 8206TIP3    H246034   1.255   2.159   3.525  0.8769  0.8089  1.0468
 8207TIP3   OH246035   2.069   1.188  13.154 -0.1751  0.1092  0.5285
 8207TIP3    H146036   2.124   1.111  13.141  0.3276  0.2604  1.6781
 8207TIP3    H246037   2.123   1.247  13.207 -0.2066  1.6277 -1.0690
 8208TIP3   OH246038   1.194   3.889  15.830  0.4996 -0.7163 -0.3090
 8208TIP3    H146039   1.261   3.823  15.847  0.4621 -0.3413  1.3784
 8208TIP3    H246040   1.222   3.965  15.881 -0.8354 -0.3059 -0.1753
 8209TIP3   OH246041   0.169   3.195  11.326  0.1728 -0.2543 -0.5191
 8209TIP3    H146042   0.192   3.151  11.408  0.2401  1.7073  0.5654
 8209TIP3    H246043   0.236   3.263  11.316 -1.0038  0.8394 -1.1337
 8210TIP3   OH246044   3.650   1.841   1.044  0.0100 -0.3373  0.3970
 8210TIP3    H146045   3.608   1.894   1.112  0.8915  0.3632  0.3982
 8210TIP3    H246046   3.741   1.833   1.073  1.1003  2.3369 -2.1018
 8211TIP3   OH246047   5.408   3.989   0.378  0.0906  0.1741 -0.4833
 8211TIP3    H146048   5.481   3.996   0.439 -0.3029  0.3862 -0.0377
 8211TIP3    H246049   5.363   3.908   0.402 -1.4899  1.4904  1.0801
 8212TIP3   OH246050   3.265   2.863   3.187  0.5986 -0.2488  0.7482
 8212TIP3    H146051   3.279   2.826   3.100 -3.0139  0.8862 -0.3973
 8212TIP3    H246052   3.235   2.789   3.240 -1.2445 -0.1477 -0.1045
 8213TIP3   OH246053   3.313   0.218  15.413  0.2282 -0.0388 -0.1215
 8213TIP3    H146054   3.250   0.279  15.451 -1.4749 -2.3187  0.8095
 8213TIP3    H246055   3.281   0.203  15.324  2.2066  2.5021 -1.3342
 8214TIP3   OH246056   5.172   2.518  11.219 -0.3942 -0.0867 -0.6748
 8214TIP3    H146057   5.225   2.440  11.234 -0.1218  0.1818 -0.1970
 8214TIP3    H246058   5.236   2.587  11.199 -0.6717 -0.1273 -1.7308
 8215TIP3   OH246059   3.445   5.821  15.028  0.1865 -0.9382 -0.1227
 8215TIP3    H146060   3.396   5.738  15.024  0.7466 -1.3056  0.4819
 8215TIP3    H246061   3.528   5.797  15.068 -0.9978  0.5383  3.4210
 8216TIP3   OH246062   4.439   4.011   4.640 -0.0409 -0.0211 -0.4386
 8216TIP3    H146063   4.504   3.988   4.573 -0.3181  0.4141 -0.8649
 8216TIP3    H246064   4.421   4.104   4.624 -1.0003 -0.2198 -0.5270
 8217TIP3   OH246065   4.220   5.526  12.375 -0.5115  0.5723 -0.2054
 8217TIP3    H146066   4.139   5.530  12.323 -0.3857  1.6495 -0.3240
 8217TIP3    H246067   4.277   5.591  12.336  1.0224 -1.2581 -1.1090
 8218TIP3   OH246068   1.382   2.778   3.466 -0.6365 -0.4899  0.2563
 8218TIP3    H146069   1.423   2.789   3.380  0.8438  1.7486  1.2039
 8218TIP3    H246070   1.352   2.866   3.489  1.6620 -0.4216  3.3344
 8219TIP3   OH246071   6.613   1.489  11.089  0.5246 -0.0438  0.0125
 8219TIP3    H146072   6.562   1.569  11.074 -0.5035 -0.9953 -1.6398
 8219TIP3    H246073   6.674   1.486  11.015  0.0720 -1.1885 -0.3057
 8220TIP3   OH246074   2.648   5.932   6.242  0.8054 -0.0063 -0.5164
 8220TIP3    H146075   2.608   6.011   6.206 -0.3816 -0.0485  0.6968
 8220TIP3    H246076   2.730   5.962   6.280  0.1448  0.7330  0.3529
 8221TIP3   OH246077   1.393   5.505   3.846  0.1116  0.3549  0.0451
 8221TIP3    H146078   1.467   5.559   3.817  2.2287 -2.0720  0.8653
 8221TIP3    H246079   1.376   5.533   3.936  1.5055 -0.6527  0.6259
 8222TIP3   OH246080   0.992   2.105   4.215 -0.3368  0.4524 -0.0622
 8222TIP3    H146081   1.053   2.159   4.266 -0.0275  1.5150 -1.4908
 8222TIP3    H246082   0.954   2.167   4.152  0.6821 -1.1446 -2.3114
 8223TIP3   OH246083   0.708   6.510  14.471  0.3019  0.0871 -0.5273
 8223TIP3    H146084   0.618   6.527  14.500  1.1277  1.3995  1.3530
 8223TIP3    H246085   0.755   6.591  14.492  1.7712 -0.3392 -2.1444
 8224TIP3   OH246086   3.755   3.680   0.877  0.2696  0.5688  0.2135
 8224TIP3    H146087   3.727   3.709   0.964  0.3657  1.2925  0.0047
 8224TIP3    H246088   3.851   3.684   0.880  0.3280 -0.6173  0.4825
 8225TIP3   OH246089   0.162   1.445   4.026  0.0879  0.2913 -0.4052
 8225TIP3    H146090   0.149   1.424   4.118  0.4805 -0.0432 -0.4251
 8225TIP3    H246091   0.089   1.504   4.004  0.2268  0.6937  0.2187
 8226TIP3   OH246092   3.420   0.386  11.005 -0.2369  0.0449 -0.0187
 8226TIP3    H146093   3.489   0.360  11.066 -0.2342  0.4097  0.1339
 8226TIP3    H246094   3.342   0.399  11.059 -0.3412 -0.0445 -0.1468
 8227TIP3   OH246095   2.697   6.220  16.846 -0.4721  0.7948 -0.2122
 8227TIP3    H146096   2.743   6.225  16.930 -1.0820  0.3004  0.1607
 8227TIP3    H246097   2.644   6.300  16.843 -0.6231  0.7040 -0.0177
 8228TIP3   OH246098   6.297   2.417   3.659 -0.3694 -0.5062  0.0795
 8228TIP3    H146099   6.376   2.435   3.609 -0.6762  2.1801  0.5081
 8228TIP3    H246100   6.241   2.368   3.599  0.2248  0.6152 -1.4208
 8229TIP3   OH246101   4.470   3.742  16.285  0.0010 -0.4222  0.4437
 8229TIP3    H146102   4.475   3.792  16.204  0.2712 -1.1501  0.0169
 8229TIP3    H246103   4.516   3.660  16.267 -0.2647 -0.7492  1.2101
 8230TIP3   OH246104   0.546   3.389   5.010 -0.1686 -0.1225 -0.2298
 8230TIP3    H146105   0.472   3.447   5.032 -0.9264 -0.9703 -0.5105
 8230TIP3    H246106   0.622   3.431   5.050 -0.9737  0.1977  0.9747
 8231TIP3   OH246107   0.675   3.059  11.426 -0.1843 -0.2576 -0.0910
 8231TIP3    H146108   0.595   3.046  11.477  0.7500 -0.1450  1.4181
 8231TIP3    H246109   0.660   3.141  11.379 -0.4576  0.4299  1.1713
 8232TIP3   OH246110   4.316   1.477  12.897  0.2737 -0.0159 -0.3176
 8232TIP3    H146111   4.363   1.521  12.968 -0.8792 -1.7521  1.5695
 8232TIP3    H246112   4.380   1.415  12.861  0.6717  0.4346 -0.3888
 8233TIP3   OH246113   1.255   5.945   5.858 -0.0202  0.7124 -0.0918
 8233TIP3    H146114   1.241   5.991   5.941  1.7104  0.2175  0.4875
 8233TIP3    H246115   1.340   5.903   5.867 -0.5476 -0.7476 -1.4848
 8234TIP3   OH246116   4.971   6.066   5.273  0.3433  0.5014 -0.1704
 8234TIP3    H146117   4.881   6.039   5.292  1.1896 -1.8569  0.6597
 8234TIP3    H246118   4.973   6.079   5.179 -0.8823  0.5918 -0.1932
 8235TIP3   OH246119   0.615   3.621  16.337 -0.6544 -0.4721 -0.3449
 8235TIP3    H146120   0.615   3.530  16.367 -0.0549  0.2831  2.0626
 8235TIP3    H246121   0.680   3.623  16.267  1.1233 -1.4214  1.2190
 8236TIP3   OH246122   4.525   1.548   4.133 -0.2029  0.5067  0.3414
 8236TIP3    H146123   4.513   1.530   4.227 -0.0222  1.7439  0.6095
 8236TIP3    H246124   4.439   1.530   4.095 -0.7777  1.7620  1.0331
 8237TIP3   OH246125   0.955   4.770   4.310  0.4871 -0.1633 -0.1272
 8237TIP3    H146126   0.899   4.775   4.387  0.4034  0.1841 -0.2116
 8237TIP3    H246127   0.913   4.827   4.245 -1.1197 -2.7872 -1.4840
 8238TIP3   OH246128   4.957   0.462   5.515 -0.1908 -0.4201 -0.5268
 8238TIP3    H146129   4.871   0.487   5.548 -0.4003 -1.3088 -0.3785
 8238TIP3    H246130   5.014   0.461   5.592 -0.1905 -0.4377 -0.5271
 8239TIP3   OH246131   5.046   1.482  16.157  0.0225  0.3740 -0.7471
 8239TIP3    H146132   5.093   1.408  16.197  0.6471  0.6938 -0.8849
 8239TIP3    H246133   4.996   1.442  16.086  2.0621  0.3857 -2.2296
 8240TIP3   OH246134   5.072   4.208  11.747 -0.2307  0.4798 -0.2423
 8240TIP3    H146135   5.111   4.154  11.679 -1.8473 -1.3951  0.2929
 8240TIP3    H246136   5.047   4.289  11.702 -0.2332 -0.2752 -1.6145
 8241TIP3   OH246137   2.318   1.436   3.601 -0.1601 -0.7935  0.0122
 8241TIP3    H146138   2.405   1.477   3.593 -1.1345  1.6064  1.1706
 8241TIP3    H246139   2.293   1.416   3.511 -0.3304  2.7377 -0.7950
 8242TIP3   OH246140   4.744   4.644  14.067 -0.6766 -0.0533  1.0878
 8242TIP3    H146141   4.835   4.648  14.037 -0.8765  0.2486  0.5142
 8242TIP3    H246142   4.711   4.560  14.034 -0.7555  0.0702  0.8432
 8243TIP3   OH246143   1.769   0.067  11.705 -0.3021 -0.2856  0.1075
 8243TIP3    H146144   1.826   0.061  11.628  0.1819  0.1638  0.4282
 8243TIP3    H246145   1.789  -0.012  11.756  1.1771  0.6162  0.9868
 8244TIP3   OH246146   2.363   0.312  12.727  1.6867 -0.3951 -0.3435
 8244TIP3    H146147   2.298   0.373  12.763  0.3259 -2.2256  0.3946
 8244TIP3    H246148   2.390   0.353  12.644 -1.5664 -0.2817 -1.4583
 8245TIP3   OH246149   0.462   0.557   1.047 -0.4011  0.0580 -0.4503
 8245TIP3    H146150   0.524   0.583   1.115 -0.9541 -0.2601  0.1820
 8245TIP3    H246151   0.429   0.640   1.012  0.5780  0.2312 -0.9758
 8246TIP3   OH246152   4.020   4.804   5.224  0.6000 -0.0670  0.2401
 8246TIP3    H146153   4.026   4.887   5.176 -3.3566 -0.6264 -1.3665
 8246TIP3    H246154   4.044   4.827   5.314 -0.6616  2.8728 -0.1185
 8247TIP3   OH246155   3.644   2.428   2.545 -0.3388 -0.3679  0.6171
 8247TIP3    H146156   3.580   2.395   2.607 -0.4725 -0.1763  0.5817
 8247TIP3    H246157   3.659   2.519   2.572 -1.1645  0.0317 -0.2551
 8248TIP3   OH246158   5.386   3.583   0.804  0.9266 -0.1275  0.2864
 8248TIP3    H146159   5.350   3.545   0.724  0.5091  0.9777 -0.0519
 8248TIP3    H246160   5.481   3.582   0.791  0.8469  0.2935 -0.3315
 8249TIP3   OH246161   4.307   4.665   3.918 -0.1063 -0.0665 -0.4628
 8249TIP3    H146162   4.391   4.710   3.908  0.8810 -2.0365 -1.3333
 8249TIP3    H246163   4.329   4.582   3.961 -1.6343 -0.4986 -0.4873
 8250TIP3   OH246164   3.159   3.295   0.785  0.0096  0.1472  0.3736
 8250TIP3    H146165   3.140   3.235   0.713 -0.8456 -0.3798  1.0159
 8250TIP3    H246166   3.126   3.380   0.755 -0.7297 -0.1583  0.3147
 8251TIP3   OH246167   0.112   6.080   2.871 -0.4957 -0.1267  0.3597
 8251TIP3    H146168   0.094   6.090   2.965  1.0116 -1.8876  0.8635
 8251TIP3    H246169   0.207   6.072   2.866 -0.6406 -0.8701 -1.2506
 8252TIP3   OH246170   4.237   2.143   1.909 -0.2069  0.1518  0.2652
 8252TIP3    H146171   4.297   2.177   1.842 -0.4486 -0.7443 -0.4147
 8252TIP3    H246172   4.179   2.217   1.928 -0.2174  0.3800 -0.6241
 8253TIP3   OH246173   5.299   1.342   3.486  0.3783  0.1474  0.0481
 8253TIP3    H146174   5.351   1.409   3.440 -0.8734  0.5242 -0.8587
 8253TIP3    H246175   5.356   1.313   3.557  0.5360  2.9871  1.1710
 8254TIP3   OH246176   5.052   1.293   4.567 -0.0556 -1.2316  0.1051
 8254TIP3    H146177   5.075   1.381   4.536  2.7645 -1.0234  2.5356
 8254TIP3    H246178   4.986   1.307   4.634 -1.3014 -1.1642 -1.1257
 8255TIP3   OH246179   2.612   1.676  13.469  0.5295  0.7596  0.6305
 8255TIP3    H146180   2.547   1.648  13.534  0.6796 -1.0607  0.0133
 8255TIP3    H246181   2.683   1.612  13.477  1.8910  2.2521  0.7163
 8256TIP3   OH246182   1.740   4.300   4.853 -0.2029  0.1794 -0.2742
 8256TIP3    H146183   1.715   4.384   4.891 -0.9164 -0.2560  0.2217
 8256TIP3    H246184   1.823   4.318   4.809 -1.5158  1.7309 -2.2117
 8257TIP3   OH246185   5.636   2.586  12.441 -0.1706  0.8088 -0.3240
 8257TIP3    H146186   5.571   2.547  12.382 -0.4221  0.3836  0.2361
 8257TIP3    H246187   5.589   2.600  12.523  1.0372 -1.6235  0.8276
 8258TIP3   OH246188   0.605   4.249  16.458  0.2536 -0.1922  0.5701
 8258TIP3    H146189   0.564   4.335  16.464 -1.0411 -0.7823  0.2822
 8258TIP3    H246190   0.698   4.268  16.443  0.0077  1.1489  0.6953
 8259TIP3   OH246191   5.374   2.364  11.929 -0.0144 -0.9827 -0.3089
 8259TIP3    H146192   5.322   2.284  11.935 -2.1208  0.2410 -1.4551
 8259TIP3    H246193   5.434   2.348  11.856 -1.4973 -0.9831 -1.5650
 8260TIP3   OH246194   4.698   2.424   3.199 -0.1585  0.2256  0.0516
 8260TIP3    H146195   4.657   2.360   3.141 -2.8181  0.4827  1.5538
 8260TIP3    H246196   4.743   2.485   3.141 -0.0972 -1.3330 -1.5464
 8261TIP3   OH246197   6.693   2.885  14.192  0.2160 -0.1667  0.4206
 8261TIP3    H146198   6.646   2.812  14.153 -0.1226  1.1677 -1.7324
 8261TIP3    H246199   6.784   2.854  14.199 -0.0219 -0.9708  0.0095
 8262TIP3   OH246200   3.268   4.417  15.681  0.2609  0.2090  0.1905
 8262TIP3    H146201   3.207   4.344  15.691  0.0978  0.6435  2.6984
 8262TIP3    H246202   3.332   4.386  15.616 -1.0596 -1.2968 -0.4215
 8263TIP3   OH246203   1.021   4.894   2.324 -0.0620 -0.3285  0.0840
 8263TIP3    H146204   1.006   4.947   2.246 -0.9739  4.0665  3.0594
 8263TIP3    H246205   0.933   4.872   2.355  0.1594  1.1708  1.8743
 8264TIP3   OH246206   5.950   1.668   0.275  0.0696 -0.0548  0.0635
 8264TIP3    H146207   5.935   1.751   0.229 -1.0247 -1.0132 -1.3401
 8264TIP3    H246208   6.018   1.624   0.224  1.3491  0.3646  1.3495
 8265TIP3   OH246209   2.088   2.681  11.402  0.1785  0.2266  0.4191
 8265TIP3    H146210   2.177   2.648  11.392  0.4741  1.1209  0.0077
 8265TIP3    H246211   2.064   2.659  11.492 -0.3086 -2.6743 -0.3602
 8266TIP3   OH246212   6.291   4.311   0.391  0.1537  0.3664  0.4270
 8266TIP3    H146213   6.327   4.290   0.477 -1.3075  0.2303  1.0190
 8266TIP3    H246214   6.252   4.230   0.360 -2.5632  1.3083  1.2575
 8267TIP3   OH246215   3.201   4.363   1.774  0.4121  0.3637  0.1028
 8267TIP3    H146216   3.259   4.437   1.791 -0.1740  0.6154  1.0643
 8267TIP3    H246217   3.161   4.345   1.859 -0.4914 -0.1603 -0.4352
 8268TIP3   OH246218   0.217   3.274   4.769 -0.4353  0.4598  0.6245
 8268TIP3    H146219   0.311   3.260   4.755 -0.0931  1.6504  1.6273
 8268TIP3    H246220   0.174   3.217   4.705  0.9936  1.1252 -0.9735
 8269TIP3   OH246221   4.712   5.997  12.168  0.1258 -0.3008 -0.4870
 8269TIP3    H146222   4.624   5.964  12.150 -0.0227 -0.0296 -0.2643
 8269TIP3    H246223   4.706   6.091  12.150  0.3740 -0.2860 -0.4910
 8270TIP3   OH246224   6.530   3.393  12.929  0.6001 -0.0710 -0.2874
 8270TIP3    H146225   6.506   3.325  12.991  0.8513  0.2696  0.1880
 8270TIP3    H246226   6.542   3.471  12.983 -0.4749  0.5499 -0.9152
 8271TIP3   OH246227   0.643   4.931  11.514 -0.0274  0.1561  0.4955
 8271TIP3    H146228   0.676   5.020  11.520 -1.7438  0.8773 -0.6975
 8271TIP3    H246229   0.585   4.921  11.590 -1.5430  0.7835 -0.5704
 8272TIP3   OH246230   2.372   1.864  14.802 -0.3102 -0.0728 -0.2685
 8272TIP3    H146231   2.371   1.909  14.717  0.1982 -0.1523 -0.3179
 8272TIP3    H246232   2.391   1.933  14.865 -2.6150  0.3529  0.0144
 8273TIP3   OH246233   2.775   0.443   2.510  0.1052 -0.0650 -0.2597
 8273TIP3    H146234   2.758   0.516   2.450 -1.9694 -0.2243  0.0851
 8273TIP3    H246235   2.829   0.480   2.579 -1.4732  1.3235  0.2544
 8274TIP3   OH246236   6.200   2.868  11.346  0.5252 -0.0778 -1.0833
 8274TIP3    H146237   6.207   2.785  11.298  1.5662 -1.1105  0.8140
 8274TIP3    H246238   6.206   2.935  11.278  3.3698 -1.4728 -2.2776
 8275TIP3   OH246239   6.617   4.624  14.360 -0.0752  0.5662 -0.2505
 8275TIP3    H146240   6.528   4.593  14.374  0.8312 -2.5043 -0.8609
 8275TIP3    H246241   6.611   4.720  14.364 -2.8189  0.3386  2.8491
 8276TIP3   OH246242   3.905   4.296  14.479 -0.2330  0.6245 -0.0057
 8276TIP3    H146243   3.821   4.280  14.522  0.5623  0.7482  1.6501
 8276TIP3    H246244   3.959   4.220  14.502  0.4018  0.9870 -0.2862
 8277TIP3   OH246245   6.075   3.970  15.370  0.4337 -0.4513  0.0070
 8277TIP3    H146246   6.070   3.951  15.276  0.8919  0.4179 -0.1964
 8277TIP3    H246247   6.003   3.919  15.408 -0.1832 -0.2690 -0.8969
 8278TIP3   OH246248   4.158   1.287   0.082 -0.9170 -0.1055 -0.6218
 8278TIP3    H146249   4.241   1.327   0.109 -0.1658 -2.2998  0.3617
 8278TIP3    H246250   4.140   1.221   0.148 -2.6874 -0.6779 -1.6465
 8279TIP3   OH246251   1.028   4.503  13.767  0.2027  0.3017  0.0175
 8279TIP3    H146252   0.945   4.491  13.814  0.1591  1.2616  0.1956
 8279TIP3    H246253   1.079   4.560  13.824  1.8129 -1.9599  0.9032
 8280TIP3   OH246254   5.995   4.021  15.794 -0.2892  0.0082 -0.5709
 8280TIP3    H146255   6.058   4.063  15.736 -0.1936 -0.6362 -0.9346
 8280TIP3    H246256   5.914   4.017  15.743 -1.1750  2.5083  0.5319
 8281TIP3   OH246257   3.699   4.034   5.777  0.0180  0.6067 -0.3365
 8281TIP3    H146258   3.628   4.033   5.841  0.9675 -0.8732  0.7082
 8281TIP3    H246259   3.774   4.069   5.824  0.0963  1.8789 -1.3569
 8282TIP3   OH246260   1.529   5.273   4.376  0.1064  0.1049  0.1810
 8282TIP3    H146261   1.508   5.187   4.340 -1.4586  0.1975  0.8492
 8282TIP3    H246262   1.452   5.297   4.427  0.3937  2.0545 -0.2695
 8283TIP3   OH246263   2.859   0.824  12.734  0.2104  0.3537 -0.5431
 8283TIP3    H146264   2.836   0.886  12.665 -1.2556 -0.1347 -0.4985
 8283TIP3    H246265   2.949   0.797  12.713 -0.5139 -0.4442 -2.7589
 8284TIP3   OH246266   1.298   2.490  12.594  0.6543  0.1155 -0.6991
 8284TIP3    H146267   1.370   2.447  12.640  1.8711 -0.3678 -3.0210
 8284TIP3    H246268   1.219   2.445  12.627  1.6073 -1.2419 -0.2142
 8285TIP3   OH246269   4.946   6.553  15.318  0.6961 -0.7911 -0.2422
 8285TIP3    H146270   4.853   6.542  15.299  0.8176 -1.9314 -0.2336
 8285TIP3    H246271   4.951   6.635  15.366 -0.1009  0.1261 -1.6803
 8286TIP3   OH246272   1.452   1.095  15.253  0.5350 -0.2217  0.3357
 8286TIP3    H146273   1.540   1.062  15.234  0.2997 -0.1281 -0.9584
 8286TIP3    H246274   1.393   1.032  15.212 -0.0089 -0.2140  1.0891
 8287TIP3   OH246275   4.518   1.890   4.747 -0.6317  0.1469 -0.2059
 8287TIP3    H146276   4.583   1.935   4.800  0.1741 -0.3217 -0.7723
 8287TIP3    H246277   4.434   1.923   4.778 -0.0662  2.0968 -0.6684
 8288TIP3   OH246278   3.352   5.914  17.082 -0.0427  0.0204  0.4821
 8288TIP3    H146279   3.260   5.936  17.065  0.5165  1.5753 -0.6505
 8288TIP3    H246280   3.392   5.911  16.995  0.8920 -1.0805  0.9387
 8289TIP3   OH246281   5.514   2.631   5.134 -0.1664  0.2487 -0.4539
 8289TIP3    H146282   5.422   2.655   5.140 -0.5797 -1.5148  0.4244
 8289TIP3    H246283   5.561   2.705   5.174 -1.1524  1.3369 -1.2878
 8290TIP3   OH246284   3.067   6.556   3.238  0.5128 -0.4192 -0.3934
 8290TIP3    H146285   3.080   6.588   3.149 -1.5914 -0.5446 -0.7860
 8290TIP3    H246286   3.078   6.461   3.232  1.7750 -0.2935 -0.2227
 8291TIP3   OH246287   3.333   1.134  16.550  0.1480  0.2245 -0.0994
 8291TIP3    H146288   3.369   1.109  16.465 -1.2008  0.7174 -0.8319
 8291TIP3    H246289   3.261   1.073  16.564  1.4343 -0.9628  1.4969
 8292TIP3   OH246290   4.552   6.769  13.972 -0.6579 -0.1755 -0.1475
 8292TIP3    H146291   4.637   6.789  14.011 -1.4326  0.1548  1.3953
 8292TIP3    H246292   4.529   6.847  13.921 -1.3607  0.9081  1.7881
 8293TIP3   OH246293   4.441   5.356   4.729 -0.1074 -0.3003  0.0309
 8293TIP3    H146294   4.529   5.392   4.742  0.3455 -1.2570 -0.3430
 8293TIP3    H246295   4.455   5.261   4.727 -1.1630 -0.4536  0.0425
 8294TIP3   OH246296   2.488   5.990  14.786  0.4002 -0.3700 -0.6213
 8294TIP3    H146297   2.575   5.962  14.815  1.3818  3.0006 -0.0909
 8294TIP3    H246298   2.443   5.909  14.764  2.5019 -2.4265  2.3256
 8295TIP3   OH246299   6.669   5.280  16.962  0.5564 -0.0598 -0.5310
 8295TIP3    H146300   6.662   5.264  16.868 -0.6918 -0.8096 -0.3202
 8295TIP3    H246301   6.738   5.346  16.970  2.4052 -1.7720 -1.7925
 8296TIP3   OH246302   0.737   2.895  12.807 -0.0410  0.3501  0.4284
 8296TIP3    H146303   0.789   2.815  12.801  0.7593  1.0005 -1.6057
 8296TIP3    H246304   0.802   2.966  12.808 -0.7505  1.0192  1.8594
 8297TIP3   OH246305   4.211   1.981   2.986 -0.5453 -0.7919 -0.0552
 8297TIP3    H146306   4.218   2.075   3.004  0.3549 -0.8325 -0.2139
 8297TIP3    H246307   4.134   1.954   3.037 -1.4292  0.2227 -0.8033
 8298TIP3   OH246308   5.739   3.915  11.444  0.2751 -0.7998 -0.3067
 8298TIP3    H146309   5.652   3.953  11.431  0.4460 -0.4632 -0.4732
 8298TIP3    H246310   5.725   3.820  11.442 -0.1168 -0.7418 -0.1358
 8299TIP3   OH246311   0.710   0.662  12.343  0.3564  0.0575 -0.4476
 8299TIP3    H146312   0.730   0.744  12.299  0.5683 -0.6673 -1.7174
 8299TIP3    H246313   0.786   0.645  12.398 -0.2252  1.3412  0.8004
 8300TIP3   OH246314   6.310   4.589   0.317  0.0325 -0.0159 -0.2806
 8300TIP3    H146315   6.322   4.622   0.406  0.1378  2.5032 -1.1885
 8300TIP3    H246316   6.310   4.493   0.326  0.1769  0.2154  2.3856
 8301TIP3   OH246317   1.168   2.273   3.641 -0.0141 -0.1188  0.4387
 8301TIP3    H146318   1.185   2.265   3.735  0.8974  0.2945  0.3145
 8301TIP3    H246319   1.188   2.364   3.621  1.5454 -0.6324 -0.4959
 8302TIP3   OH246320   4.513   3.861  13.239  0.3804  0.6133  0.2822
 8302TIP3    H146321   4.550   3.777  13.266 -2.0823 -0.8982 -0.9208
 8302TIP3    H246322   4.551   3.924  13.301  2.6688 -1.2533  0.8885
 8303TIP3   OH246323   6.022   3.886  11.405  0.6673  0.1054 -0.5314
 8303TIP3    H146324   6.077   3.852  11.476  1.0742 -0.4136 -1.0907
 8303TIP3    H246325   5.933   3.885  11.440  0.8849 -0.0087  0.0177
 8304TIP3   OH246326   4.654   6.024  11.118  0.5523 -0.3492 -0.0570
 8304TIP3    H146327   4.588   6.067  11.173 -1.0526 -1.4491 -1.1036
 8304TIP3    H246328   4.629   6.045  11.028  0.7326 -2.0444 -0.5269
 8305TIP3   OH246329   2.203   4.974   3.431  0.1028  0.5502  0.0083
 8305TIP3    H146330   2.188   5.064   3.404  0.9918  0.7421  0.1179
 8305TIP3    H246331   2.168   4.921   3.359 -1.9008  0.9250  0.6813
 8306TIP3   OH246332   1.165   0.595  13.822  0.2155 -1.0022 -0.1314
 8306TIP3    H146333   1.192   0.612  13.912 -0.4167  1.2462 -0.3555
 8306TIP3    H246334   1.197   0.506  13.804  0.6531 -1.3407  2.1721
 8307TIP3   OH246335   6.241   5.500  15.040  0.0969  0.8913 -0.0796
 8307TIP3    H146336   6.154   5.534  15.063 -0.3434  1.6440 -2.7135
 8307TIP3    H246337   6.292   5.577  15.016  1.4436  0.4297  1.2114
 8308TIP3   OH246338   2.640   1.794   1.882  0.3197  0.0382 -0.6862
 8308TIP3    H146339   2.681   1.878   1.906 -1.7437  0.4987  1.5133
 8308TIP3    H246340   2.710   1.730   1.892  1.8759  1.4472 -2.1715
 8309TIP3   OH246341   4.887   5.659   0.458 -0.6517 -0.6730  0.2641
 8309TIP3    H146342   4.801   5.618   0.441 -2.2460  1.9751  1.6241
 8309TIP3    H246343   4.883   5.685   0.550  1.1561  0.5778  0.0016
 8310TIP3   OH246344   0.484   1.816  15.509  0.7838 -0.2070 -0.2397
 8310TIP3    H146345   0.487   1.828  15.414  1.3942  0.0011 -0.1944
 8310TIP3    H246346   0.535   1.737  15.525  0.0172 -0.6919 -0.1594
 8311TIP3   OH246347   1.294   2.600   3.638  0.1428 -0.2859 -0.5861
 8311TIP3    H146348   1.368   2.548   3.669 -0.1463 -0.1307  0.3668
 8311TIP3    H246349   1.326   2.641   3.558  1.8087  1.4435  0.9108
 8312TIP3   OH246350   6.428   5.048  16.483  0.5324  0.4706  0.4826
 8312TIP3    H146351   6.490   5.013  16.419  1.7614  1.1449  1.2861
 8312TIP3    H246352   6.414   5.138  16.454  0.1351  0.4031  0.4629
 8313TIP3   OH246353   3.945   6.223   4.781  0.1665  0.1115  0.4113
 8313TIP3    H146354   3.880   6.272   4.832  0.4396  2.4632 -1.4149
 8313TIP3    H246355   4.029   6.257   4.811  0.4281 -0.3224  0.1698
 8314TIP3   OH246356   2.615   2.322   3.501 -0.1899 -0.3384 -0.3452
 8314TIP3    H146357   2.699   2.285   3.475 -1.0715 -1.3992 -1.7770
 8314TIP3    H246358   2.601   2.394   3.439 -0.7480 -0.7400 -0.6866
 8315TIP3   OH246359   0.385   6.067   6.039 -0.4485  0.3345 -0.2165
 8315TIP3    H146360   0.297   6.098   6.018 -0.0028  1.1943 -0.8231
 8315TIP3    H246361   0.391   5.982   5.994 -1.3079 -0.1824  0.6241
 8316TIP3   OH246362   3.332   4.600  12.922 -0.0024 -0.0238 -0.4275
 8316TIP3    H146363   3.275   4.531  12.954  1.1604 -1.2881 -1.0301
 8316TIP3    H246364   3.296   4.625  12.837 -0.7945  0.5616  0.0809
 8317TIP3   OH246365   6.623   0.447   0.481  0.3023 -0.2832  0.2129
 8317TIP3    H146366   6.549   0.500   0.450  0.2438 -0.6625 -0.3080
 8317TIP3    H246367   6.627   0.373   0.420  0.1393 -1.0933  1.1723
 8318TIP3   OH246368   5.510   1.226   2.694 -0.0803  0.4011  0.7589
 8318TIP3    H146369   5.513   1.250   2.786 -0.5103  2.1045  0.3410
 8318TIP3    H246370   5.421   1.247   2.666 -0.4414 -1.6131  0.3414
 8319TIP3   OH246371   4.898   4.745  13.162  0.1123  0.2904  0.7143
 8319TIP3    H146372   4.874   4.660  13.125 -0.6957  0.9257 -0.2256
 8319TIP3    H246373   4.863   4.743  13.251 -1.3347  0.2731  0.1543
 8320TIP3   OH246374   3.311   2.873  15.311 -0.2118 -0.1960 -0.0573
 8320TIP3    H146375   3.283   2.839  15.227 -0.2716 -1.2007  0.3602
 8320TIP3    H246376   3.407   2.867  15.308 -0.1286  1.2902 -0.6775
 8321TIP3   OH246377   6.419   1.983   3.434  0.3007 -0.0525  0.4455
 8321TIP3    H146378   6.349   2.035   3.395  2.1282  0.7860 -1.8562
 8321TIP3    H246379   6.460   2.042   3.497  0.4382  0.2833  0.0476
 8322TIP3   OH246380   5.628   5.314  16.366  0.5190  0.2343 -0.6035
 8322TIP3    H146381   5.588   5.401  16.366  0.0249  0.0265  1.0515
 8322TIP3    H246382   5.720   5.330  16.388  0.6483  0.4339 -1.2972
 8323TIP3   OH246383   5.943   5.111  12.072  0.3377 -0.3486  0.2481
 8323TIP3    H146384   5.995   5.182  12.036  0.5658 -0.1063  1.0505
 8323TIP3    H246385   5.995   5.077  12.145 -0.0277 -0.9644  0.2319
 8324TIP3   OH246386   2.668   1.867  11.855  0.1097 -0.0345  0.4413
 8324TIP3    H146387   2.729   1.794  11.844  0.8517  0.7921 -1.1089
 8324TIP3    H246388   2.592   1.844  11.801 -0.2555 -0.3201  1.0811
 8325TIP3   OH246389   4.022   0.872  15.973  0.8116  0.0672  0.1612
 8325TIP3    H146390   4.102   0.924  15.982  0.9318 -0.1667  0.4695
 8325TIP3    H246391   3.989   0.863  16.063  1.0002 -0.7159  0.1547
 8326TIP3   OH246392   3.911   4.589   2.631 -0.6027  0.2047  0.7350
 8326TIP3    H146393   3.875   4.656   2.572 -0.5038  1.3323  1.9347
 8326TIP3    H246394   3.855   4.592   2.708 -0.8493 -1.4065  0.6353
 8327TIP3   OH246395   6.039   1.960   0.462 -0.2799  0.1149 -0.7189
 8327TIP3    H146396   6.113   1.902   0.448 -1.5783 -1.3582 -1.5854
 8327TIP3    H246397   6.005   1.978   0.374  0.0535  2.1488 -0.4666
 8328TIP3   OH246398   6.489   4.454   1.110  0.2525  0.9044 -0.5595
 8328TIP3    H146399   6.544   4.404   1.050 -1.3347 -2.9477  1.0839
 8328TIP3    H246400   6.428   4.501   1.053 -0.9598 -2.3482 -2.0137
 8329TIP3   OH246401   2.635   6.260  14.033 -0.5095 -0.2209  0.2592
 8329TIP3    H146402   2.722   6.230  14.009  0.3244  1.3829  1.1908
 8329TIP3    H246403   2.582   6.179  14.038  1.2514 -1.3526  1.0478
 8330TIP3   OH246404   0.881   3.429  12.481 -0.4425  0.2077  0.3235
 8330TIP3    H146405   0.964   3.461  12.446 -0.1792 -0.5388  0.2509
 8330TIP3    H246406   0.898   3.337  12.504 -0.5062  0.7670  2.7344
 8331TIP3   OH246407   3.436   0.338   5.918  0.1868  0.8822 -0.8417
 8331TIP3    H146408   3.528   0.337   5.945 -0.2266  0.8439  0.6042
 8331TIP3    H246409   3.412   0.246   5.908 -0.4760  0.7605  1.5800
 8332TIP3   OH246410   6.137   0.046   3.971  0.0639  0.3255 -0.2499
 8332TIP3    H146411   6.120   0.103   4.046 -1.3871 -0.7653  0.2701
 8332TIP3    H246412   6.207  -0.013   4.002  2.3360  2.4604 -1.1542
 8333TIP3   OH246413   4.224   1.846  16.493 -0.4451 -0.1796  0.1491
 8333TIP3    H146414   4.201   1.805  16.576  0.9303 -1.1515  0.0597
 8333TIP3    H246415   4.281   1.919  16.517 -1.3975  0.5752  0.1684
 8334TIP3   OH246416   2.295   2.093   1.502  0.5218 -0.6173 -0.0030
 8334TIP3    H146417   2.200   2.084   1.496  0.5831 -1.7472  0.6947
 8334TIP3    H246418   2.323   2.022   1.560  2.0735 -1.9274 -2.2589
 8335TIP3   OH246419   5.909   1.751   1.118 -0.3615  0.1604  0.1214
 8335TIP3    H146420   5.904   1.671   1.066  0.7026 -0.5152  1.0198
 8335TIP3    H246421   5.824   1.757   1.162 -0.7273 -0.0483 -0.5549
 8336TIP3   OH246422   4.543   3.445  16.470  0.5660  0.1198  0.0213
 8336TIP3    H146423   4.455   3.408  16.478  0.0378  1.4838  0.7496
 8336TIP3    H246424   4.594   3.376  16.428 -0.2030 -1.6930  1.9282
 8337TIP3   OH246425   1.757   2.329  15.219  0.7169  0.0704 -0.0840
 8337TIP3    H146426   1.724   2.369  15.299 -0.8620 -1.2049 -0.0790
 8337TIP3    H246427   1.766   2.236  15.240  2.5562  0.0988 -0.6621
 8338TIP3   OH246428   3.579   6.709   0.156 -0.3165 -0.4878 -0.3592
 8338TIP3    H146429   3.637   6.643   0.118 -1.7013 -2.6152  1.0787
 8338TIP3    H246430   3.614   6.792   0.125  1.7401 -1.8599 -1.8963
 8339TIP3   OH246431   2.711   5.736  16.070 -0.0056 -0.3035 -0.8915
 8339TIP3    H146432   2.675   5.693  16.149  1.9852 -0.4312 -0.0272
 8339TIP3    H246433   2.652   5.709  16.000 -1.1111 -1.1989  0.3401
 8340TIP3   OH246434   6.332   6.668  15.069  0.3128 -0.1981  0.1595
 8340TIP3    H146435   6.324   6.658  14.974 -0.6052  0.9473  0.0962
 8340TIP3    H246436   6.289   6.590  15.105  0.1462 -0.3480 -0.3588
 8341TIP3   OH246437   1.124   5.639   1.572  0.5332  0.1850 -0.3057
 8341TIP3    H146438   1.167   5.554   1.587  1.1293  0.4763 -0.3322
 8341TIP3    H246439   1.177   5.681   1.504  0.6681  0.8811  0.2217
 8342TIP3   OH246440   5.011   4.022   2.622 -0.4362  0.1353 -0.1614
 8342TIP3    H146441   5.037   4.114   2.618 -0.0208  0.0100 -0.3035
 8342TIP3    H246442   4.984   4.009   2.713 -1.6095  0.6990 -0.4109
 8343TIP3   OH246443   1.532   1.057  13.129 -0.6749  0.3474  0.5077
 8343TIP3    H146444   1.531   1.150  13.152 -0.3804  0.5353 -0.2219
 8343TIP3    H246445   1.549   1.012  13.212 -1.9093  0.8770  1.0539
 8344TIP3   OH246446   3.443   6.369   5.294 -0.5989  0.1160  0.5997
 8344TIP3    H146447   3.499   6.402   5.365 -1.4207 -0.2318  1.4215
 8344TIP3    H246448   3.421   6.280   5.321  0.2643 -0.5501 -0.8107
 8345TIP3   OH246449   2.617   2.995  15.029  0.1805  0.8002 -0.3332
 8345TIP3    H146450   2.614   3.015  15.123 -0.0900  0.4142 -0.2554
 8345TIP3    H246451   2.540   3.040  14.993 -0.8306 -0.6487 -0.0399
 8346TIP3   OH246452   0.318   0.397  16.568  0.5687  0.0756  0.1643
 8346TIP3    H146453   0.262   0.459  16.520  0.9027 -0.0710 -0.4246
 8346TIP3    H246454   0.347   0.335  16.501  0.6857 -0.3883  0.6507
 8347TIP3   OH246455   2.318   6.641   2.272 -0.5461 -0.4646  0.2911
 8347TIP3    H146456   2.388   6.645   2.337 -0.9806 -0.1898  0.7518
 8347TIP3    H246457   2.355   6.683   2.194  0.7748 -2.8684 -0.4100
 8348TIP3   OH246458   3.067   0.190   5.282 -0.1769  0.2091 -0.3862
 8348TIP3    H146459   3.003   0.187   5.353  0.1973  0.1016 -0.0535
 8348TIP3    H246460   3.035   0.261   5.225 -0.6659  0.0657 -0.2994
 8349TIP3   OH246461   1.563   3.066  13.719 -0.4369 -0.5100  0.0767
 8349TIP3    H146462   1.593   3.042  13.807 -0.2468  0.0670  0.1753
 8349TIP3    H246463   1.626   3.027  13.660  0.5776  0.7615  0.2884
 8350TIP3   OH246464   0.465   0.974   0.800 -0.1434 -0.0233  0.3709
 8350TIP3    H146465   0.468   1.069   0.791 -0.5685 -0.1480 -1.1767
 8350TIP3    H246466   0.375   0.954   0.826  0.0821  0.0177  1.2305
 8351TIP3   OH246467   5.270   6.122  13.185 -0.2721  0.3766 -0.7929
 8351TIP3    H146468   5.258   6.030  13.209  2.2507  0.4533  0.9707
 8351TIP3    H246469   5.189   6.165  13.213 -0.7625 -1.0155 -0.0223
 8352TIP3   OH246470   6.437   2.868  14.955  0.0476 -0.1375  0.6676
 8352TIP3    H146471   6.491   2.816  14.895  0.8041 -0.8083  1.8995
 8352TIP3    H246472   6.357   2.888  14.905  0.9772 -0.0382 -0.8077
 8353TIP3   OH246473   2.782   6.676   1.013 -0.7087 -0.0688 -0.2185
 8353TIP3    H146474   2.776   6.628   0.930  0.5097 -1.6989  0.6264
 8353TIP3    H246475   2.696   6.719   1.022 -1.1015 -0.4540 -1.9592
 8354TIP3   OH246476   6.297   3.992  12.779  0.1729 -0.1764  0.0236
 8354TIP3    H146477   6.281   4.086  12.785 -0.3661 -0.2715  0.1007
 8354TIP3    H246478   6.216   3.952  12.808  0.4049 -0.6682 -0.0011
 8355TIP3   OH246479   1.781   6.022   3.976  0.7443  0.1915 -0.3045
 8355TIP3    H146480   1.769   6.035   4.070  0.6049 -1.2862 -0.0972
 8355TIP3    H246481   1.729   6.091   3.935 -0.1997  0.0864  0.6995
 8356TIP3   OH246482   4.187   4.687  15.051 -0.0883 -0.2316  0.7133
 8356TIP3    H146483   4.192   4.759  15.114 -0.6769  0.0063  0.4888
 8356TIP3    H246484   4.101   4.696  15.011  0.7965  0.4062 -1.0897
 8357TIP3   OH246485   0.091   4.816   0.006  0.0505 -0.2930 -0.3344
 8357TIP3    H146486   0.078   4.878  -0.066 -0.8236  0.7902  0.7315
 8357TIP3    H246487   0.162   4.853   0.057 -1.1545  0.4068  0.8798
 8358TIP3   OH246488   1.146   0.847  12.163 -0.1539  0.5404 -0.3153
 8358TIP3    H146489   1.142   0.844  12.258  0.2252  0.9017 -0.2897
 8358TIP3    H246490   1.216   0.786  12.140 -2.5952 -2.3492 -0.5555
 8359TIP3   OH246491   0.098   3.868  11.959  0.2010  0.3469  0.2942
 8359TIP3    H146492   0.113   3.871  12.053  2.4496  0.2497 -0.0547
 8359TIP3    H246493   0.170   3.817  11.924 -0.6164  0.3848 -1.4959
 8360TIP3   OH246494   6.383   1.126   5.732  0.5597 -0.4746  0.5837
 8360TIP3    H146495   6.472   1.140   5.764  0.4474 -0.4959  0.9118
 8360TIP3    H246496   6.388   1.044   5.684  0.8979 -0.0570 -0.1051
 8361TIP3   OH246497   4.079   6.504  17.007  0.2490  0.5273  0.3802
 8361TIP3    H146498   4.086   6.552  17.090 -1.1042 -1.0483  1.4646
 8361TIP3    H246499   4.103   6.414  17.030  1.8688  0.4948 -1.4055
 8362TIP3   OH246500   1.630   6.139  16.482 -0.0090 -0.1806 -0.2149
 8362TIP3    H146501   1.597   6.218  16.524  0.8304 -0.2371  0.5649
 8362TIP3    H246502   1.724   6.152  16.477  0.1417 -1.1646 -0.0051
 8363TIP3   OH246503   1.906   6.358   1.986  0.6752 -0.6793 -0.4565
 8363TIP3    H146504   1.889   6.452   1.994 -2.2529 -1.1642 -0.4703
 8363TIP3    H246505   1.940   6.347   1.897  1.8468  0.4486 -0.1646
 8364TIP3   OH246506   4.943   0.683   5.203  0.2285 -0.0605 -0.0704
 8364TIP3    H146507   4.916   0.598   5.167 -0.5274 -0.1150  0.6115
 8364TIP3    H246508   4.975   0.664   5.291 -0.1747  0.3930  0.1766
 8365TIP3   OH246509   6.608   4.891  14.294  0.1092  0.4506  0.1243
 8365TIP3    H146510   6.673   4.961  14.304  0.1464  0.4983 -0.4556
 8365TIP3    H246511   6.573   4.904  14.206  1.6340 -1.5772 -0.8066
 8366TIP3   OH246512   2.723   5.448   6.123 -0.1095 -0.2950  0.2070
 8366TIP3    H146513   2.664   5.523   6.130  0.6696  0.2653  0.8740
 8366TIP3    H246514   2.798   5.471   6.178  0.8704 -0.8685 -0.8727
 8367TIP3   OH246515   4.168   6.231  11.515  0.2868 -0.3215 -0.2402
 8367TIP3    H146516   4.237   6.170  11.542 -0.3949 -0.8389  0.3388
 8367TIP3    H246517   4.086   6.185  11.534 -0.2467  1.1332  1.0542
 8368TIP3   OH246518   3.887   2.291  11.563  0.1072 -1.0966  0.7720
 8368TIP3    H146519   3.876   2.366  11.622  0.4202 -0.4831  0.0606
 8368TIP3    H246520   3.897   2.330  11.476 -1.3639 -2.0290  0.1599
 8369TIP3   OH246521   5.392   1.008  11.913 -0.5192  0.5777 -0.1425
 8369TIP3    H146522   5.366   1.010  11.820  0.1395  0.2192 -0.3346
 8369TIP3    H246523   5.469   1.065  11.917 -0.1328  0.0410  0.0579
 8370TIP3   OH246524   1.775   3.444   1.236 -0.1167  0.0890 -0.3771
 8370TIP3    H146525   1.727   3.361   1.226  0.3131 -0.2052 -0.0496
 8370TIP3    H246526   1.832   3.429   1.312  0.4644  0.4423 -0.7346
 8371TIP3   OH246527   5.113   2.847   1.405 -0.6746  0.2217 -0.2536
 8371TIP3    H146528   5.080   2.757   1.408  0.7069 -0.2782  0.5577
 8371TIP3    H246529   5.093   2.882   1.492  1.0741 -0.1638  0.3319
 8372TIP3   OH246530   2.972   4.551   0.724 -0.6312  0.1647  0.6067
 8372TIP3    H146531   3.042   4.487   0.721  0.6554  1.5706 -2.9771
 8372TIP3    H246532   2.902   4.513   0.671  0.2126  1.6896 -1.6987
 8373TIP3   OH246533   5.457   4.731   5.546  0.4551  0.4717 -0.1354
 8373TIP3    H146534   5.521   4.707   5.613  1.1079 -0.1739 -0.9828
 8373TIP3    H246535   5.420   4.648   5.517  0.9617  0.6660 -1.3477
 8374TIP3   OH246536   2.077   5.214   5.115 -0.2931 -0.7894 -0.0126
 8374TIP3    H146537   2.170   5.192   5.122  0.9819  3.9981 -0.0509
 8374TIP3    H246538   2.060   5.215   5.021  0.3721  0.8914 -0.1389
 8375TIP3   OH246539   5.673   1.655   0.445  0.2879 -0.7804  0.0825
 8375TIP3    H146540   5.585   1.631   0.473  0.5399 -0.4620  1.1782
 8375TIP3    H246541   5.731   1.613   0.509  0.7993  1.3995  1.0982
 8376TIP3   OH246542   2.484   3.947  13.749  0.1979 -0.4765  0.8394
 8376TIP3    H146543   2.464   3.862  13.709 -0.9149 -0.3444  1.0984
 8376TIP3    H246544   2.580   3.954  13.744  0.3724 -2.0645  1.4289
 8377TIP3   OH246545   1.061   1.869  13.093  0.2699  0.0404 -0.5460
 8377TIP3    H146546   1.012   1.805  13.042 -2.7990  2.5827 -0.9780
 8377TIP3    H246547   1.145   1.878  13.047 -1.2707  0.0908 -3.4403
 8378TIP3   OH246548   1.509   4.688  14.513 -0.5529  0.3531  0.0770
 8378TIP3    H146549   1.465   4.616  14.560 -0.8123  0.0495 -0.6349
 8378TIP3    H246550   1.474   4.684  14.424  2.4044 -1.2115 -1.1042
 8379TIP3   OH246551   2.564   3.881   2.767 -0.3405 -0.0198  0.3439
 8379TIP3    H146552   2.581   3.792   2.737 -0.5762 -0.1436  0.5744
 8379TIP3    H246553   2.470   3.884   2.782 -0.2898  0.1715  0.6427
 8380TIP3   OH246554   6.513   1.478  16.824  0.1162  0.1646  0.6113
 8380TIP3    H146555   6.566   1.509  16.897 -1.1512 -1.3011  2.2031
 8380TIP3    H246556   6.430   1.450  16.864 -0.6772 -0.5014 -1.4053
 8381TIP3   OH246557   4.985   4.050  10.748  0.5674 -0.4698 -0.4242
 8381TIP3    H146558   5.060   4.043  10.688  1.7326  0.0263  0.9595
 8381TIP3    H246559   4.972   4.144  10.760 -0.8582 -0.5237 -1.3313
 8382TIP3   OH246560   0.094   0.041  11.415 -0.3554  0.9041 -0.4637
 8382TIP3    H146561   0.155   0.108  11.444 -1.2465  1.4871  0.0622
 8382TIP3    H246562   0.125   0.017  11.327 -0.0435  2.0002 -0.6596
 8383TIP3   OH246563   6.647   3.118  15.478  0.0312  0.6511 -0.0579
 8383TIP3    H146564   6.624   3.025  15.486  0.6664  0.6172  1.4521
 8383TIP3    H246565   6.645   3.134  15.384  1.2551 -1.2535 -0.4479
 8384TIP3   OH246566   0.628   0.170   0.239  0.0588 -0.4118  0.1719
 8384TIP3    H146567   0.688   0.140   0.171 -0.4188  0.0786 -0.4736
 8384TIP3    H246568   0.626   0.099   0.303 -2.2561 -2.4513 -2.0588
 8385TIP3   OH246569   5.436   3.981   2.630 -0.1176  0.0428  0.3043
 8385TIP3    H146570   5.374   3.987   2.703 -0.3590  0.2810  0.0839
 8385TIP3    H246571   5.385   3.942   2.559  0.1722 -0.3638  0.3232
 8386TIP3   OH246572   0.898   5.162   3.359 -0.1685 -0.3843  0.0327
 8386TIP3    H146573   0.939   5.202   3.435 -1.4492 -0.4745  0.7886
 8386TIP3    H246574   0.966   5.161   3.292  1.2405 -1.1048  1.4443
 8387TIP3   OH246575   2.546   5.553   2.458  0.3553  0.1414 -0.3591
 8387TIP3    H146576   2.592   5.516   2.533  1.6695  0.5724 -0.9343
 8387TIP3    H246577   2.477   5.607   2.496 -1.2989 -2.4991  0.4877
 8388TIP3   OH246578   6.548   6.772   1.328  0.5065 -0.4468 -0.3518
 8388TIP3    H146579   6.533   6.829   1.403 -2.5582 -0.0826 -1.1749
 8388TIP3    H246580   6.613   6.819   1.275  1.2994  0.1628  1.1346
 8389TIP3   OH246581   5.698   3.508   5.369 -0.1051 -0.2860  0.6214
 8389TIP3    H146582   5.680   3.450   5.443  0.9674 -0.9940  0.3330
 8389TIP3    H246583   5.789   3.490   5.345 -0.6314 -0.5207 -1.2808
 8390TIP3   OH246584   5.196   2.157   5.570 -0.3934  0.4531 -0.6211
 8390TIP3    H146585   5.165   2.228   5.513 -5.9359 -0.9650  0.3827
 8390TIP3    H246586   5.183   2.190   5.659  0.4655 -0.4410 -0.1583
 8391TIP3   OH246587   2.166   0.780   2.152  0.0684  0.2701 -0.0678
 8391TIP3    H146588   2.197   0.865   2.182  0.6453 -0.0898  0.3482
 8391TIP3    H246589   2.103   0.752   2.218  2.2361 -1.0841  1.5079
 8392TIP3   OH246590   3.481   1.475   2.946  0.6206  0.5823 -0.4256
 8392TIP3    H146591   3.531   1.395   2.930  1.8119  1.2882 -0.2999
 8392TIP3    H246592   3.417   1.450   3.013  2.6579  0.3715  1.4995
 8393TIP3   OH246593   5.618   5.372  11.071  0.1645 -0.0343 -0.5026
 8393TIP3    H146594   5.561   5.295  11.058  0.8646 -0.6387 -0.0255
 8393TIP3    H246595   5.689   5.359  11.008  0.1994  0.3121 -0.5322
 8394TIP3   OH246596   3.388   6.190   0.048 -0.0935  0.0600 -1.0156
 8394TIP3    H146597   3.343   6.190  -0.037  0.2917  2.0958 -1.2546
 8394TIP3    H246598   3.330   6.240   0.106 -0.9201 -2.3142  0.2744
 8395TIP3   OH246599   1.350   2.803  14.742 -0.2243  0.4856  0.0771
 8395TIP3    H146600   1.328   2.870  14.677  0.7609  2.6015  1.8848
 8395TIP3    H246601   1.443   2.815  14.758  0.2180 -2.0319 -0.3090
 8396TIP3   OH246602   1.088   1.290   0.995  0.3051  0.4627  0.0299
 8396TIP3    H146603   1.116   1.201   1.017 -3.8568 -0.5696  1.5975
 8396TIP3    H246604   1.045   1.322   1.074 -1.6155  2.4244 -1.7539
 8397TIP3   OH246605   1.996   4.216   2.019 -0.0932 -0.3352 -0.0926
 8397TIP3    H146606   1.919   4.168   2.050 -0.1228 -1.0885 -1.2883
 8397TIP3    H246607   1.977   4.308   2.037 -1.1486 -0.5457 -0.1309
 8398TIP3   OH246608   3.644   1.691   2.906  0.0754 -0.1292 -0.2506
 8398TIP3    H146609   3.691   1.652   2.833  0.2975 -0.3509  0.0098
 8398TIP3    H246610   3.579   1.625   2.931  0.1035 -0.1180 -0.1472
 8399TIP3   OH246611   1.438   5.945  14.941 -0.6260  0.0926  0.7606
 8399TIP3    H146612   1.396   5.872  14.895  2.7850 -0.4113 -1.7579
 8399TIP3    H246613   1.378   6.018  14.931 -1.8309 -1.1062 -0.9677
 8400TIP3   OH246614   2.237   6.695  15.485  0.6705 -0.1076 -0.6492
 8400TIP3    H146615   2.225   6.729  15.396  0.5086 -0.2744 -0.6915
 8400TIP3    H246616   2.315   6.639  15.478  0.8946  0.1933 -0.5955
 8401TIP3   OH246617   3.021   4.569   4.382  0.1074  0.5257 -0.2859
 8401TIP3    H146618   3.077   4.577   4.459  0.1580 -1.0883 -0.1507
 8401TIP3    H246619   2.984   4.657   4.370  0.0961  0.7834  1.5765
 8402TIP3   OH246620   3.620   6.187  11.624  0.4416  0.5955 -0.4567
 8402TIP3    H146621   3.539   6.139  11.638  1.6271 -1.5762 -0.7949
 8402TIP3    H246622   3.634   6.185  11.530  1.5981 -0.2807 -0.2814
 8403TIP3   OH246623   0.016   1.488  14.625 -0.2003 -0.5494 -0.6621
 8403TIP3    H146624   0.018   1.544  14.702  3.5987 -0.4553 -0.7651
 8403TIP3    H246625   0.006   1.399  14.659 -2.0080 -0.2381 -0.3009
 8404TIP3   OH246626   2.918   6.398  11.196  0.1517 -0.4801 -0.6059
 8404TIP3    H146627   3.008   6.368  11.201  0.1416 -0.2962  1.0805
 8404TIP3    H246628   2.888   6.398  11.287 -1.0379  0.9680 -0.9763
 8405TIP3   OH246629   5.545   3.257   1.728  0.3029  0.4743 -0.1425
 8405TIP3    H146630   5.539   3.318   1.654 -0.4500  1.1737  0.4861
 8405TIP3    H246631   5.568   3.312   1.802 -2.7148  0.4067  0.9242
 8406TIP3   OH246632   2.842   5.676   3.654 -0.0845 -0.0567  0.0062
 8406TIP3    H146633   2.912   5.728   3.614 -0.0152 -0.4882 -0.4445
 8406TIP3    H246634   2.798   5.736   3.715 -0.0707  0.5540 -0.5841
 8407TIP3   OH246635   0.955   4.011   1.286 -0.1453  0.1890  0.1932
 8407TIP3    H146636   1.009   4.068   1.340 -1.6468  0.6738  1.2124
 8407TIP3    H246637   0.867   4.017   1.324 -0.2046 -3.3975  0.8261
 8408TIP3   OH246638   1.814   2.880   2.788  0.2689 -0.0386 -0.1099
 8408TIP3    H146639   1.748   2.830   2.741 -0.7319 -0.4415  1.6673
 8408TIP3    H246640   1.805   2.969   2.754 -1.4652 -0.0074  0.3941
 8409TIP3   OH246641   0.663   5.543   5.420  0.1407  0.0731  0.1743
 8409TIP3    H146642   0.607   5.619   5.405  0.0720 -0.0254 -0.0626
 8409TIP3    H246643   0.614   5.489   5.482  0.8145  0.9001  1.4435
 8410TIP3   OH246644   3.874   3.646   3.604  0.0076  0.2887 -0.7054
 8410TIP3    H146645   3.890   3.690   3.520 -0.4986  1.2458 -0.3136
 8410TIP3    H246646   3.935   3.689   3.665 -0.2340  0.1985 -0.3988
 8411TIP3   OH246647   0.111   1.679  11.002  0.1782  0.0862 -0.5142
 8411TIP3    H146648   0.101   1.658  10.909 -1.2416 -0.1356 -0.3204
 8411TIP3    H246649   0.132   1.596  11.043 -2.9387 -0.5654 -0.1128
 8412TIP3   OH246650   2.772   2.592  15.952  0.7267 -0.0199  0.3598
 8412TIP3    H146651   2.693   2.593  16.007  0.6423  0.3038  0.2306
 8412TIP3    H246652   2.747   2.541  15.875  1.3099 -1.7866  1.3105
 8413TIP3   OH246653   4.911   5.732  11.089  0.2388  0.5209  0.5100
 8413TIP3    H146654   4.981   5.783  11.047 -1.4416  1.6781 -0.9432
 8413TIP3    H246655   4.883   5.671  11.020  0.3537 -0.5034  1.3575
 8414TIP3   OH246656   4.481   5.937  12.422  0.0168  0.5634  0.2185
 8414TIP3    H146657   4.539   5.879  12.472 -0.4399 -1.0068 -1.0297
 8414TIP3    H246658   4.398   5.935  12.470 -0.1815 -0.3212 -0.1468
 8415TIP3   OH246659   4.846   3.128   5.330 -0.0029  0.1031  0.0311
 8415TIP3    H146660   4.935   3.091   5.336 -0.1866 -0.0822  1.9476
 8415TIP3    H246661   4.859   3.219   5.305  0.6680 -0.1517 -0.5834
 8416TIP3   OH246662   2.362   3.110  14.853 -0.7351 -0.3225 -0.0391
 8416TIP3    H146663   2.282   3.139  14.809 -1.3368 -1.0905  0.5443
 8416TIP3    H246664   2.375   3.021  14.822 -0.1928 -0.2562 -0.0027
 8417TIP3   OH246665   4.638   4.165  12.095 -0.0268 -0.0166  0.2470
 8417TIP3    H146666   4.659   4.074  12.117  0.9894 -0.4102 -2.1463
 8417TIP3    H246667   4.542   4.166  12.086  0.0342 -1.0711 -0.6104
 8418TIP3   OH246668   3.011   1.033  12.947  0.0685  0.2914 -0.3048
 8418TIP3    H146669   2.928   1.079  12.959  0.0170  1.1265 -3.3476
 8418TIP3    H246670   2.998   0.982  12.867  1.1565 -2.7125  1.3533
 8419TIP3   OH246671   0.800   1.077  16.640 -0.2066 -0.3340 -0.5320
 8419TIP3    H146672   0.867   1.134  16.679 -0.6552 -0.9556  1.2025
 8419TIP3    H246673   0.848   1.022  16.577  0.6914  0.0959 -0.2276
 8420TIP3   OH246674   0.814   4.435  13.245 -0.4239 -0.2333  0.3190
 8420TIP3    H146675   0.783   4.462  13.332  1.9867 -1.3589  1.5865
 8420TIP3    H246676   0.860   4.512  13.211 -0.8711  0.0255  0.3091
 8421TIP3   OH246677   2.006   2.726  15.402 -0.5100  0.1673  0.2489
 8421TIP3    H146678   1.981   2.637  15.376 -0.2588  0.0322  0.4677
 8421TIP3    H246679   1.939   2.782  15.363 -1.3897 -0.2354  1.1693
 8422TIP3   OH246680   6.073   1.957  12.695  0.0848 -1.1144 -0.3517
 8422TIP3    H146681   6.094   1.937  12.604  0.3172 -0.8718 -0.3549
 8422TIP3    H246682   5.979   1.971  12.696  0.4960  2.0440 -1.1699
 8423TIP3   OH246683   1.589   0.359  15.949  0.0322 -0.2719 -0.1736
 8423TIP3    H146684   1.555   0.447  15.935 -0.0053 -0.5658 -1.9585
 8423TIP3    H246685   1.670   0.373  15.999  0.3968  0.8210 -1.0546
 8424TIP3   OH246686   0.838   1.731  14.410  0.0629 -0.6411  0.0351
 8424TIP3    H146687   0.777   1.676  14.361  0.7119  1.3280 -3.1745
 8424TIP3    H246688   0.789   1.759  14.487 -2.2306 -1.1421 -1.1825
 8425TIP3   OH246689   6.672   2.891   2.894  1.5074 -0.4911 -0.1268
 8425TIP3    H146690   6.689   2.970   2.946  0.8563  0.6918 -1.6646
 8425TIP3    H246691   6.753   2.840   2.902  1.3356 -0.4653  2.2180
 8426TIP3   OH246692   1.439   0.359  11.042  0.2810  0.1612 -0.1988
 8426TIP3    H146693   1.513   0.305  11.015  0.9328  0.8952  0.0870
 8426TIP3    H246694   1.365   0.299  11.047  0.6265 -0.3822 -1.5078
 8427TIP3   OH246695   6.507   3.677   2.469 -0.0828  0.1668  0.6636
 8427TIP3    H146696   6.601   3.686   2.484  0.0536  0.7295 -0.4961
 8427TIP3    H246697   6.466   3.725   2.541  0.5392  1.5738  0.0852
 8428TIP3   OH246698   4.913   1.807  10.882 -0.3011  0.3468  0.5633
 8428TIP3    H146699   4.853   1.865  10.927 -0.6408  0.0341  0.5126
 8428TIP3    H246700   4.983   1.864  10.851 -0.9861  0.8295 -0.0971
 8429TIP3   OH246701   5.017   2.507  16.038 -0.7380  0.1217  0.4457
 8429TIP3    H146702   4.962   2.527  16.114  0.6481  1.1231  1.2012
 8429TIP3    H246703   5.075   2.437  16.068 -0.3408  0.3578  0.2237
 8430TIP3   OH246704   3.792   4.068  17.100 -0.2194 -0.0626  0.1435
 8430TIP3    H146705   3.781   4.031  17.013 -1.6418 -0.7462  0.5961
 8430TIP3    H246706   3.863   4.132  17.090 -0.4956  0.0101 -1.5510
 8431TIP3   OH246707   6.740   0.848  14.607 -0.6030 -0.4386  0.0692
 8431TIP3    H146708   6.747   0.790  14.532 -2.5959  1.5468 -1.7292
 8431TIP3    H246709   6.694   0.797  14.673 -0.0988 -1.7435 -0.5834
 8432TIP3   OH246710   0.817   0.826   0.605  0.3809 -0.1774  0.0596
 8432TIP3    H146711   0.723   0.833   0.616  0.5922  1.9639  0.5710
 8432TIP3    H246712   0.839   0.740   0.641 -1.4978 -1.1472 -1.0234
 8433TIP3   OH246713   0.557   2.842   2.381  0.1031 -0.1772 -0.1653
 8433TIP3    H146714   0.602   2.784   2.442  0.2619 -0.6009 -0.6803
 8433TIP3    H246715   0.467   2.846   2.413  0.2757 -0.1008  0.3096
 8434TIP3   OH246716   0.845   5.273   2.242 -0.3363  0.2654  0.1065
 8434TIP3    H146717   0.869   5.347   2.186  0.1512  0.3610  0.4462
 8434TIP3    H246718   0.883   5.293   2.327  0.0015 -0.4832  0.1388
 8435TIP3   OH246719   5.299   0.135  15.812 -0.1107 -0.3018  0.7770
 8435TIP3    H146720   5.366   0.185  15.858  0.6101  0.2587 -0.8836
 8435TIP3    H246721   5.216   0.166  15.849  0.4248  0.7320  1.1083
 8436TIP3   OH246722   0.274   5.139   2.670  0.0056  0.1802 -0.2230
 8436TIP3    H146723   0.253   5.204   2.602  0.4313 -0.6959 -1.2116
 8436TIP3    H246724   0.228   5.170   2.748  0.9208  2.1489 -0.4305
 8437TIP3   OH246725   2.613   4.443  13.815 -0.0396  0.0301  0.4225
 8437TIP3    H146726   2.593   4.375  13.880  1.5909  0.0282  0.9451
 8437TIP3    H246727   2.701   4.473  13.839 -0.4973  1.8918 -0.1820
 8438TIP3   OH246728   4.793   6.410   2.997 -0.4110  0.1747  0.3801
 8438TIP3    H146729   4.732   6.422   3.070  1.0391  0.1550  1.6075
 8438TIP3    H246730   4.812   6.316   2.997  0.2086  0.3005  0.4686
 8439TIP3   OH246731   3.302   4.093   1.592  0.4760  0.1803 -0.4262
 8439TIP3    H146732   3.255   4.173   1.613  0.5212  0.3250 -0.8644
 8439TIP3    H246733   3.251   4.054   1.521 -1.1567 -1.6335  1.6602
 8440TIP3   OH246734   0.318   2.572  14.057 -0.3281  0.0317 -0.7154
 8440TIP3    H146735   0.261   2.649  14.060  0.6299  0.7064  0.2613
 8440TIP3    H246736   0.402   2.602  14.091  0.0170 -1.4788 -0.1929
 8441TIP3   OH246737   6.390   2.132  13.227 -0.1333  0.2531 -0.1346
 8441TIP3    H146738   6.328   2.059  13.235  1.5861 -1.0530  1.7069
 8441TIP3    H246739   6.468   2.093  13.187  0.1822  1.4883 -0.7459
 8442TIP3   OH246740   4.929   2.866   1.628  0.0334 -0.7571 -0.1771
 8442TIP3    H146741   4.867   2.797   1.604 -2.0078  0.0790  2.4604
 8442TIP3    H246742   4.880   2.922   1.688  2.6555  1.2344  0.1732
 8443TIP3   OH246743   5.464   0.854  15.152 -0.0414 -0.1856  0.3584
 8443TIP3    H146744   5.509   0.824  15.073  2.2242  0.8489  1.2231
 8443TIP3    H246745   5.475   0.781  15.214  0.4401  0.0707  0.5731
 8444TIP3   OH246746   3.478   4.389  14.024 -0.7514  0.7452  0.2486
 8444TIP3    H146747   3.468   4.309  14.076  0.5437 -1.0600 -2.1797
 8444TIP3    H246748   3.395   4.436  14.036 -1.7410 -1.2034  1.2805
 8445TIP3   OH246749   6.454   5.280  10.401  0.1336  0.3759  0.0195
 8445TIP3    H146750   6.455   5.259  10.494 -0.4077  0.6625  0.0922
 8445TIP3    H246751   6.368   5.250  10.370  1.1070 -1.6901 -0.8569
 8446TIP3   OH246752   1.271   4.129   4.581  1.0210 -0.4194  0.3288
 8446TIP3    H146753   1.365   4.134   4.596  0.9816  0.3528  0.3121
 8446TIP3    H246754   1.232   4.171   4.657  0.7642  1.4435 -0.7969
 8447TIP3   OH246755   5.122   2.583  14.443 -0.4054  0.5904  0.2191
 8447TIP3    H146756   5.167   2.607  14.362  0.3468 -0.7805  0.2239
 8447TIP3    H246757   5.191   2.581  14.510 -0.3674 -1.8229  0.1646
 8448TIP3   OH246758   3.629   4.916   1.008  0.0375 -0.0579 -0.3246
 8448TIP3    H146759   3.694   4.982   0.985 -0.0971 -0.2025 -1.1597
 8448TIP3    H246760   3.680   4.842   1.039  0.3509 -0.6392 -2.1803
 8449TIP3   OH246761   2.364   1.073  13.081 -0.2410  0.2453 -0.1162
 8449TIP3    H146762   2.277   1.044  13.051  0.3079  1.8667 -3.4708
 8449TIP3    H246763   2.404   0.994  13.118 -2.1814 -1.1118 -0.8430
 8450TIP3   OH246764   2.961   3.392   1.689 -0.0821 -0.1284  0.4455
 8450TIP3    H146765   3.023   3.322   1.667  0.3733  0.3649  0.1323
 8450TIP3    H246766   2.948   3.438   1.607  0.4652  0.8156  0.8774
 8451TIP3   OH246767   1.994   3.867  12.954  0.2260 -0.3917  0.4080
 8451TIP3    H146768   1.990   3.907  13.042  1.1552  2.2225 -0.6757
 8451TIP3    H246769   1.932   3.919  12.902  1.4781 -0.3354 -1.0588
 8452TIP3   OH246770   6.586   4.980  12.652  0.0451  0.0240 -0.2059
 8452TIP3    H146771   6.502   4.936  12.668  0.6524 -1.2754 -0.4843
 8452TIP3    H246772   6.563   5.062  12.609 -1.0976 -0.2830 -0.1905
 8453TIP3   OH246773   1.817   4.895   5.964  0.4095 -0.0614 -0.4344
 8453TIP3    H146774   1.878   4.910   6.036  0.7319 -1.8114 -0.3255
 8453TIP3    H246775   1.737   4.940   5.990  1.3206  1.4155 -0.1290
 8454TIP3   OH246776   0.177   6.045   1.582  0.1214 -0.3417 -0.0350
 8454TIP3    H146777   0.167   5.955   1.612 -1.2922 -0.2522 -0.1963
 8454TIP3    H246778   0.265   6.048   1.546 -0.0517 -1.8516 -0.6371
 8455TIP3   OH246779   1.409   2.178  16.152 -0.3319 -0.1974 -0.2582
 8455TIP3    H146780   1.480   2.114  16.158  0.6668  0.9612  0.6159
 8455TIP3    H246781   1.376   2.170  16.063  2.6585  1.0748 -1.5385
 8456TIP3   OH246782   1.509   0.352   6.357 -0.1185 -0.0708  0.6258
 8456TIP3    H146783   1.574   0.421   6.366  1.1540 -0.6428 -3.3163
 8456TIP3    H246784   1.560   0.272   6.346 -1.5194 -1.0070  0.7096
 8457TIP3   OH246785   5.439   5.757  13.717  0.0688  0.5094 -0.0313
 8457TIP3    H146786   5.469   5.708  13.640 -0.5014  0.8978 -0.5016
 8457TIP3    H246787   5.358   5.714  13.743 -0.5859  1.3716 -0.6183
 8458TIP3   OH246788   2.015   4.635   3.869  0.0290 -0.6098 -0.4164
 8458TIP3    H146789   2.039   4.688   3.945  0.7839 -2.0096  0.3287
 8458TIP3    H246790   2.038   4.689   3.794 -0.4745  0.6736  0.3384
 8459TIP3   OH246791   2.338   6.086  12.660 -0.0424 -0.1581  0.2429
 8459TIP3    H146792   2.426   6.083  12.624  1.1170 -1.3420  2.9908
 8459TIP3    H246793   2.285   6.127  12.592  2.2792 -0.9800 -2.1311
 8460TIP3   OH246794   3.565   4.091  16.148  0.2970 -0.0768 -0.3282
 8460TIP3    H146795   3.624   4.141  16.092 -0.2935  0.9560 -0.0471
 8460TIP3    H246796   3.551   4.009  16.102  1.5494 -0.1312 -0.6372
 8461TIP3   OH246797   2.196   1.256  12.854 -0.2723 -0.4156 -0.1635
 8461TIP3    H146798   2.262   1.231  12.919  0.0501 -0.2763 -0.4401
 8461TIP3    H246799   2.242   1.254  12.770  0.2138  2.8675 -0.0058
 8462TIP3   OH246800   3.485   6.502   1.078 -0.6251 -0.0585  0.2656
 8462TIP3    H146801   3.508   6.454   1.158  0.6859 -2.0547 -1.2456
 8462TIP3    H246802   3.550   6.571   1.072 -1.1304  0.5256  1.2464
 8463TIP3   OH246803   6.307   6.669  12.174  0.3086 -0.2594  0.2263
 8463TIP3    H146804   6.392   6.702  12.144  0.5704 -2.0028 -0.9965
 8463TIP3    H246805   6.249   6.680  12.098 -0.7253  1.4592  1.2368
 8464TIP3   OH246806   2.136   2.779   3.135  0.2753  0.1560  0.1998
 8464TIP3    H146807   2.161   2.706   3.191 -0.8673  1.0473  1.9321
 8464TIP3    H246808   2.050   2.755   3.101  0.1991  0.3755  0.2308
 8465TIP3   OH246809   0.559   0.329   5.538 -0.4326 -0.1715  0.2089
 8465TIP3    H146810   0.597   0.311   5.452 -1.7268 -0.4834 -0.3113
 8465TIP3    H246811   0.623   0.295   5.601  0.5987  0.2055 -0.6144
 8466TIP3   OH246812   1.461   2.885  16.201  0.1470 -0.5945  0.3929
 8466TIP3    H146813   1.367   2.889  16.187  0.2823 -0.8373 -0.6001
 8466TIP3    H246814   1.483   2.972  16.236 -0.2030  0.0009 -0.8588
 8467TIP3   OH246815   0.958   5.751  16.845 -0.0382  0.2935  0.6344
 8467TIP3    H146816   0.898   5.825  16.854  0.5707  0.8413  0.2695
 8467TIP3    H246817   0.941   5.696  16.922  0.1087  1.2536  1.3597
 8468TIP3   OH246818   5.066   0.976   4.764  0.4725  0.0578 -0.0468
 8468TIP3    H146819   4.983   0.985   4.716  0.4686  0.6637  0.0704
 8468TIP3    H246820   5.106   1.063   4.759  1.4633 -0.4222 -0.7607
 8469TIP3   OH246821   1.330   4.587  13.734 -0.2332  0.4002  0.3512
 8469TIP3    H146822   1.368   4.661  13.780  0.1047  0.5806 -0.2092
 8469TIP3    H246823   1.294   4.624  13.654  0.2350 -0.0877 -0.0908
 8470TIP3   OH246824   6.450   0.226   1.160 -0.2063 -0.5102 -0.1403
 8470TIP3    H146825   6.411   0.309   1.187 -0.7825 -0.8063 -0.0586
 8470TIP3    H246826   6.416   0.161   1.221 -0.3430 -0.9312 -0.6578
 8471TIP3   OH246827   1.367   4.261  10.846  0.1246  0.0482 -0.4464
 8471TIP3    H146828   1.305   4.327  10.816  0.7047 -0.3017 -2.5434
 8471TIP3    H246829   1.442   4.311  10.877 -0.1151  0.4029 -0.4344
 8472TIP3   OH246830   5.799   2.504   0.303  0.5229  0.1154  0.1381
 8472TIP3    H146831   5.865   2.436   0.315  0.7587  0.4037  0.4730
 8472TIP3    H246832   5.717   2.462   0.328  0.5626 -0.2745 -0.3714
 8473TIP3   OH246833   3.760   6.140   3.357  0.1319 -0.5332 -0.1197
 8473TIP3    H146834   3.837   6.104   3.313  0.8648 -0.3510  1.0079
 8473TIP3    H246835   3.792   6.170   3.442 -1.1834 -0.4461  0.3587
 8474TIP3   OH246836   4.302   3.264   1.408  0.0055  0.6964 -0.0173
 8474TIP3    H146837   4.299   3.339   1.468  0.6452  1.2031 -0.6159
 8474TIP3    H246838   4.224   3.213   1.430 -0.4897  1.5927  0.3216
 8475TIP3   OH246839   1.403   5.806   3.284 -0.4140 -0.2844  0.0497
 8475TIP3    H146840   1.455   5.727   3.268  1.2674  0.8352 -0.0905
 8475TIP3    H246841   1.317   5.785   3.248  0.0662 -1.9770 -0.1846
 8476TIP3   OH246842   6.382   3.403  13.787  0.0484  0.1745 -0.3090
 8476TIP3    H146843   6.441   3.360  13.725 -0.7155 -3.8040  1.5065
 8476TIP3    H246844   6.304   3.424  13.735  0.5813 -0.4053 -1.3625
 8477TIP3   OH246845   1.669   2.335  12.202 -0.0553  0.0309 -0.3073
 8477TIP3    H146846   1.734   2.295  12.259 -0.7962 -2.5601 -1.1971
 8477TIP3    H246847   1.606   2.376  12.261  0.8412  0.0661  0.6267
 8478TIP3   OH246848   5.324   2.386  16.733 -0.1250  0.2511 -0.6549
 8478TIP3    H146849   5.317   2.480  16.720  1.1214  0.3895 -0.4167
 8478TIP3    H246850   5.407   2.374  16.780 -1.3798 -0.7734  1.3839
 8479TIP3   OH246851   0.716   1.083   1.006 -0.1100 -0.3986  0.4456
 8479TIP3    H146852   0.728   0.996   0.968 -0.5128 -0.5058  0.5627
 8479TIP3    H246853   0.784   1.090   1.073  0.1047 -0.5096  0.2411
 8480TIP3   OH246854   0.629   0.229   1.866 -0.7105  0.1911 -0.6038
 8480TIP3    H146855   0.587   0.240   1.951  0.6012  0.0562  0.0604
 8480TIP3    H246856   0.689   0.156   1.877  0.5890  1.1439 -1.1980
 8481TIP3   OH246857   3.884   5.542  12.828  0.5389 -0.4073 -0.0159
 8481TIP3    H146858   3.871   5.465  12.773 -2.0126 -0.6736  0.8975
 8481TIP3    H246859   3.941   5.512  12.899  0.0252 -1.3067  0.0250
 8482TIP3   OH246860   2.244   4.494  13.763 -0.2539 -0.2056 -0.3387
 8482TIP3    H146861   2.320   4.436  13.763  1.1946  1.6197 -0.9445
 8482TIP3    H246862   2.281   4.581  13.747 -2.2738  0.9948  1.2390
 8483TIP3   OH246863   4.657   5.515  12.796 -0.0547  0.1112  0.0949
 8483TIP3    H146864   4.618   5.439  12.839  0.7097 -0.5836 -0.4160
 8483TIP3    H246865   4.671   5.486  12.705  0.7913  0.6498  0.0493
 8484TIP3   OH246866   4.367   0.524   5.254 -0.2624  0.9897  0.6472
 8484TIP3    H146867   4.326   0.604   5.286 -0.0610  1.0336  0.8006
 8484TIP3    H246868   4.294   0.462   5.243 -0.2669  0.7782  1.7940
 8485TIP3   OH246869   5.937   4.793   0.263  0.2268  0.2104  0.2038
 8485TIP3    H146870   5.989   4.714   0.275  2.0404  0.8433 -2.9539
 8485TIP3    H246871   5.848   4.762   0.249  0.7859 -1.2269 -0.1952
 8486TIP3   OH246872   4.933   5.723   2.455  0.1570  0.4503 -0.6905
 8486TIP3    H146873   4.910   5.754   2.368  1.9994  2.0817 -0.6148
 8486TIP3    H246874   5.002   5.659   2.441 -0.3125 -0.1069 -0.4951
 8487TIP3   OH246875   5.402   3.022   1.270  0.1241 -0.2946 -0.3317
 8487TIP3    H146876   5.495   3.008   1.252  0.1332 -1.1294  0.3255
 8487TIP3    H246877   5.388   2.985   1.358 -1.0171 -1.0363 -0.7994
 8488TIP3   OH246878   3.050   0.835  13.180  0.0548 -0.0080 -0.1305
 8488TIP3    H146879   3.025   0.922  13.149  0.6238  0.2252  0.0502
 8488TIP3    H246880   3.030   0.776  13.107  0.2080  0.3601 -0.4715
 8489TIP3   OH246881   3.877   2.785  15.439  0.0409  0.3752 -0.5025
 8489TIP3    H146882   3.944   2.729  15.479 -0.4871  0.7327  0.9006
 8489TIP3    H246883   3.919   2.870  15.429  0.1567  0.2991 -0.6640
 8490TIP3   OH246884   2.007   4.648   6.033 -0.4529 -0.1451 -0.5589
 8490TIP3    H146885   1.997   4.663   6.127 -1.4406 -0.4124 -0.6185
 8490TIP3    H246886   1.950   4.713   5.992  1.6003  1.3865 -1.0478
 8491TIP3   OH246887   5.088   2.404  12.505  0.4102 -0.4837 -0.2392
 8491TIP3    H146888   5.138   2.483  12.523 -1.1903  0.8035 -1.3631
 8491TIP3    H246889   5.022   2.401  12.575  0.0695 -0.4723 -0.5561
 8492TIP3   OH246890   4.600   0.277  12.712  0.3620  0.4084  0.0940
 8492TIP3    H146891   4.611   0.309  12.622 -2.4381 -2.1500 -1.2273
 8492TIP3    H246892   4.667   0.209  12.721 -1.0849 -1.2016 -1.0272
 8493TIP3   OH246893   2.900   1.121  13.867  0.3355  0.3966  0.4574
 8493TIP3    H146894   2.810   1.089  13.865 -0.0388  1.2130  2.5020
 8493TIP3    H246895   2.952   1.045  13.894  0.1326  0.1492  0.1483
 8494TIP3   OH246896   3.850   0.136  12.980 -0.2781 -0.3073 -0.1701
 8494TIP3    H146897   3.920   0.149  13.044  0.9379 -0.2255 -1.4909
 8494TIP3    H246898   3.804   0.220  12.979  2.0652  1.0222 -2.1657
 8495TIP3   OH246899   2.920   0.705  16.622  0.0493 -0.7835  0.2618
 8495TIP3    H146900   2.830   0.674  16.614 -0.2707  0.3281 -0.4911
 8495TIP3    H246901   2.915   0.780  16.681  0.0357  1.1025 -2.0770
 8496TIP3   OH246902   3.813   0.419   5.024 -0.4799 -0.3962  0.0230
 8496TIP3    H146903   3.806   0.331   5.061 -1.4363 -0.6944 -0.8412
 8496TIP3    H246904   3.733   0.463   5.052 -1.0014 -0.4807 -1.2705
 8497TIP3   OH246905   5.060   0.511  14.131 -0.3438 -0.0405 -0.2222
 8497TIP3    H146906   5.135   0.568  14.147  0.1166 -0.1425 -1.9794
 8497TIP3    H246907   4.997   0.567  14.086 -1.7639  0.3265  2.1145
 8498TIP3   OH246908   2.360   0.239  16.012  0.1342 -0.0951  0.5633
 8498TIP3    H146909   2.407   0.207  15.935  0.5017  0.5915  0.4973
 8498TIP3    H246910   2.402   0.322  16.032 -0.5258  0.1347  0.9947
 8499TIP3   OH246911   6.081   0.205  11.227  0.3274 -0.0742  0.2985
 8499TIP3    H146912   6.162   0.195  11.277 -0.3800 -0.5964  1.3588
 8499TIP3    H246913   6.040   0.118  11.229 -1.5582  0.7953  2.0819
 8500TIP3   OH246914   3.828   0.415  11.112  0.2136 -0.5015  0.6966
 8500TIP3    H146915   3.757   0.448  11.168 -0.9514 -0.1432 -0.9786
 8500TIP3    H246916   3.882   0.493  11.095  0.2780 -0.5056  0.8737
 8501TIP3   OH246917   3.122   0.092  16.714 -0.2234  0.9146 -0.9435
 8501TIP3    H146918   3.033   0.104  16.682 -0.0572  0.7170 -1.4780
 8501TIP3    H246919   3.156   0.016  16.666 -0.2720  0.0689  0.3422
 8502TIP3   OH246920   1.241   2.550   2.394 -0.2067  0.1169  0.6890
 8502TIP3    H146921   1.200   2.636   2.400 -1.3355 -0.2443 -1.3874
 8502TIP3    H246922   1.167   2.488   2.389  0.5900 -0.9039  1.2708
 8503TIP3   OH246923   1.484   0.570   5.780 -0.8236  0.0391 -0.5255
 8503TIP3    H146924   1.396   0.604   5.796 -1.3268 -0.3754 -2.3946
 8503TIP3    H246925   1.471   0.478   5.761 -0.0039  0.0258 -1.0340
 8504TIP3   OH246926   1.258   6.214   1.719  0.0652 -0.1220  0.0127
 8504TIP3    H146927   1.319   6.183   1.651 -1.4126 -0.0512 -1.3722
 8504TIP3    H246928   1.238   6.137   1.771 -0.5909 -0.6957 -1.0657
 8505TIP3   OH246929   5.014   5.064  14.264  0.3652  0.1116  0.0198
 8505TIP3    H146930   5.047   4.976  14.281 -1.5058 -0.5303  0.4012
 8505TIP3    H246931   4.945   5.077  14.329  0.3096  1.6889 -0.3269
 8506TIP3   OH246932   1.566   4.171  13.917  0.2526  0.1112  0.1521
 8506TIP3    H146933   1.481   4.132  13.899  0.6154 -0.8938  0.5764
 8506TIP3    H246934   1.550   4.265  13.919 -0.5094  0.0391 -1.5922
 8507TIP3   OH246935   3.150   6.777  16.353 -0.1425  0.2097  0.0107
 8507TIP3    H146936   3.056   6.788  16.365 -0.5080 -1.4428 -1.0815
 8507TIP3    H246937   3.183   6.753  16.439 -0.2494  3.4838  1.0282
 8508TIP3   OH246938   3.331   0.781  15.809  0.2111 -0.1150 -0.4921
 8508TIP3    H146939   3.355   0.853  15.752 -1.1328  0.4336 -0.3992
 8508TIP3    H246940   3.404   0.720  15.805  0.5737  0.4182 -1.9730
 8509TIP3   OH246941   1.211   2.116  10.902  0.1565 -0.6874 -0.2423
 8509TIP3    H146942   1.292   2.161  10.925 -0.8975  2.0000 -1.6289
 8509TIP3    H246943   1.144   2.183  10.906 -1.5104 -2.1768 -2.1617
 8510TIP3   OH246944   5.603   3.601  14.518 -0.1870  0.1248  0.6531
 8510TIP3    H146945   5.624   3.686  14.556 -0.4799 -0.4593  2.1670
 8510TIP3    H246946   5.635   3.538  14.583  1.8695 -0.9866 -1.3509
 8511TIP3   OH246947   4.670   1.312  13.441 -0.3180 -0.3832  0.3098
 8511TIP3    H146948   4.730   1.289  13.370 -0.3661 -0.4997  0.3061
 8511TIP3    H246949   4.601   1.245  13.436 -0.4520 -0.2444  0.3080
 8512TIP3   OH246950   5.004   4.467   1.440  0.7635  0.5445  0.2225
 8512TIP3    H146951   4.965   4.432   1.360  0.8313  1.4019 -0.1956
 8512TIP3    H246952   4.930   4.480   1.500  0.3765  2.2118 -0.5861
 8513TIP3   OH246953   6.603   5.150   3.438 -0.0480 -0.0069  0.7971
 8513TIP3    H146954   6.643   5.237   3.434  0.2122 -0.1274  0.7629
 8513TIP3    H246955   6.577   5.140   3.529  0.2084 -0.0204  0.8696
 8514TIP3   OH246956   5.271   4.244   2.967 -0.5228  0.0086  0.1872
 8514TIP3    H146957   5.363   4.237   2.991 -0.3914 -1.5541 -0.7245
 8514TIP3    H246958   5.239   4.320   3.017  1.5022  1.2327 -0.3312
 8515TIP3   OH246959   5.270   3.275  13.200 -0.0778  0.2128  0.2837
 8515TIP3    H146960   5.183   3.288  13.237  0.4343  1.2248  1.1430
 8515TIP3    H246961   5.330   3.305  13.268  1.0064 -2.1550  0.4274
 8516TIP3   OH246962   3.670   2.898  15.273  0.2461 -0.4210 -0.1447
 8516TIP3    H146963   3.645   2.948  15.351 -0.1205 -0.8821  0.0397
 8516TIP3    H246964   3.745   2.847  15.302  0.2240 -0.4537 -0.1453
 8517TIP3   OH246965   3.086   6.455  10.956 -0.3888  0.0704 -0.0508
 8517TIP3    H146966   3.022   6.488  10.893  0.3148 -1.0812 -1.3782
 8517TIP3    H246967   3.050   6.371  10.984 -0.3736  0.2812  0.6308
 8518TIP3   OH246968   5.762   4.346   2.778  0.6785 -0.1822  0.1131
 8518TIP3    H146969   5.798   4.434   2.768 -0.3685  0.0014 -2.2956
 8518TIP3    H246970   5.688   4.343   2.717 -1.1553 -1.7422  2.3180
 8519TIP3   OH246971   0.230   3.582   3.697 -0.0323 -0.1615 -0.6511
 8519TIP3    H146972   0.205   3.589   3.605  0.1040 -2.1762 -0.8567
 8519TIP3    H246973   0.219   3.490   3.719  0.1686  0.2397  1.2991
 8520TIP3   OH246974   0.404   5.289  12.997 -0.3246  0.2350  0.0078
 8520TIP3    H146975   0.435   5.344  12.925  0.7255  0.1669  0.4056
 8520TIP3    H246976   0.311   5.312  13.007 -0.0745  1.3965 -0.3108
 8521TIP3   OH246977   4.577   6.557   5.436 -0.6090 -0.5647  0.3117
 8521TIP3    H146978   4.488   6.587   5.453 -0.5512 -0.4077  0.3408
 8521TIP3    H246979   4.592   6.488   5.501 -0.9098 -0.9825 -0.0623
 8522TIP3   OH246980   4.585   4.767   3.910 -0.0240 -0.0848 -0.1813
 8522TIP3    H146981   4.586   4.721   3.826  0.0736  1.6729 -1.1578
 8522TIP3    H246982   4.668   4.813   3.913  0.2925 -0.7313  1.2364
 8523TIP3   OH246983   3.627   1.133   4.233  0.0858 -0.4614  0.4781
 8523TIP3    H146984   3.591   1.181   4.159 -0.4709 -1.1369  0.3070
 8523TIP3    H246985   3.690   1.073   4.195  0.8113  0.1474  0.6977
 8524TIP3   OH246986   5.914   4.433   1.258  0.2381 -0.3524  0.1309
 8524TIP3    H146987   5.875   4.484   1.187  0.0723 -1.4440 -0.5778
 8524TIP3    H246988   5.845   4.424   1.323 -0.5534 -1.8282 -0.8841
 8525TIP3   OH246989   0.990   0.915  13.745  0.4802  0.3987 -0.0187
 8525TIP3    H146990   0.929   0.862  13.796 -0.3980 -1.1829 -2.5528
 8525TIP3    H246991   1.029   0.976  13.807 -2.2778  0.1532  2.0264
 8526TIP3   OH246992   0.552   0.441  12.561 -0.2652  0.3732 -0.2531
 8526TIP3    H146993   0.510   0.408  12.481  1.9799  0.6198 -1.5708
 8526TIP3    H246994   0.646   0.437  12.542  0.2780  0.9635  2.1844
 8527TIP3   OH246995   1.440   2.490  14.572 -0.5328 -0.0192 -0.1434
 8527TIP3    H146996   1.402   2.404  14.591  0.5064 -0.1681  1.3707
 8527TIP3    H246997   1.365   2.544  14.545 -1.9287 -0.2301  3.0598
 8528TIP3   OH246998   5.576   0.279   5.030  0.1653 -0.2364 -0.7065
 8528TIP3    H146999   5.551   0.367   5.058 -3.1506 -1.4338  0.2958
 8528TIP3    H247000   5.543   0.272   4.940 -1.3609 -1.1438 -0.0804
 8529TIP3   OH247001   0.242   6.339  11.288 -0.3003 -0.2734 -0.7099
 8529TIP3    H147002   0.261   6.332  11.194 -0.8191 -2.2402 -0.6913
 8529TIP3    H247003   0.153   6.373  11.292 -0.6319 -1.1106 -0.9462
 8530TIP3   OH247004   3.405   0.012   2.209 -0.4328  0.6634 -0.2384
 8530TIP3    H147005   3.356   0.083   2.250 -0.0971  0.9178 -0.2739
 8530TIP3    H247006   3.439   0.051   2.128  1.2406  1.0037  0.5971
 8531TIP3   OH247007   4.992   0.711  14.526  0.7419  0.3160  0.1344
 8531TIP3    H147008   4.899   0.689  14.537  1.0463 -1.5200 -0.6817
 8531TIP3    H247009   5.037   0.657  14.592  1.4249 -0.7754 -1.1864
 8532TIP3   OH247010   1.780   3.160   2.351  0.1615  0.7175  0.0215
 8532TIP3    H147011   1.753   3.220   2.282 -0.7134  1.4647  0.9951
 8532TIP3    H247012   1.740   3.196   2.431 -1.3318 -1.8067  0.4531
 8533TIP3   OH247013   0.573   1.817   4.552  0.2597  0.0907 -0.3440
 8533TIP3    H147014   0.640   1.769   4.503  0.3943  0.8806 -0.9588
 8533TIP3    H247015   0.618   1.849   4.630  0.5253  0.3353 -0.5927
 8534TIP3   OH247016   5.337   0.505  16.512 -0.5082 -0.5450  0.5755
 8534TIP3    H147017   5.313   0.574  16.449  1.6777  0.8895  1.2416
 8534TIP3    H247018   5.419   0.470  16.477 -0.9768 -1.9953  0.9090
 8535TIP3   OH247019   0.631   2.147  12.013 -0.2315  0.0727 -0.4066
 8535TIP3    H147020   0.567   2.085  11.978 -1.8859  1.3696  0.2584
 8535TIP3    H247021   0.628   2.222  11.954 -0.8608  1.0165  0.7896
 8536TIP3   OH247022   0.750   5.787   2.291 -0.0357 -0.2372  0.2368
 8536TIP3    H147023   0.766   5.881   2.297 -0.4716 -0.0733 -1.0902
 8536TIP3    H247024   0.804   5.759   2.217 -0.0176 -1.0058  0.5422
 8537TIP3   OH247025   4.511   2.726   4.505  0.5933 -0.4992  0.5656
 8537TIP3    H147026   4.494   2.673   4.427  1.1032  0.7682 -0.4261
 8537TIP3    H247027   4.602   2.754   4.495  0.1255  1.1196  0.7290
 8538TIP3   OH247028   6.185   3.833   6.009 -0.3711  0.2121 -0.4085
 8538TIP3    H147029   6.215   3.878   6.088 -0.7827 -0.8541  0.3609
 8538TIP3    H247030   6.094   3.811   6.027 -0.0673 -1.2758 -0.6245
 8539TIP3   OH247031   3.333   5.468  14.302  0.4007  0.2039 -0.3131
 8539TIP3    H147032   3.335   5.461  14.207 -0.4156  1.9035 -0.4731
 8539TIP3    H247033   3.423   5.446  14.329  1.0214  1.1190 -1.5794
 8540TIP3   OH247034   4.643   3.299  16.199  0.3930  0.3604 -0.6263
 8540TIP3    H147035   4.649   3.219  16.252  1.7560  0.5215 -0.5245
 8540TIP3    H247036   4.730   3.310  16.162 -1.0764 -0.9629 -4.7348
 8541TIP3   OH247037   4.811   3.310   2.762 -0.6985 -0.5989  0.0698
 8541TIP3    H147038   4.730   3.284   2.718 -0.7338  0.6017 -0.5809
 8541TIP3    H247039   4.782   3.339   2.849 -0.8284 -1.2719  0.2574
 8542TIP3   OH247040   2.971   3.929  12.496  0.8371  0.4944 -0.0621
 8542TIP3    H147041   2.951   3.887  12.580 -0.1354  1.5125  0.2249
 8542TIP3    H247042   2.946   4.020  12.508  1.8729  0.9264 -1.0599
 8543TIP3   OH247043   2.319   1.874  17.027 -0.1801  0.0827  0.3142
 8543TIP3    H147044   2.344   1.951  17.079 -0.2931  0.4604 -0.1799
 8543TIP3    H247045   2.355   1.800  17.075  1.5505  0.5911 -0.1584
 8544TIP3   OH247046   0.699   2.998  16.629  0.2784 -0.6215  0.4111
 8544TIP3    H147047   0.680   3.087  16.659  0.8850 -0.7113  1.0776
 8544TIP3    H247048   0.716   2.949  16.710 -1.2243 -1.6236  0.1387
 8545TIP3   OH247049   4.319   5.853  11.433  0.7276  0.4448  0.1483
 8545TIP3    H147050   4.406   5.891  11.419 -0.1462  1.8767 -1.7407
 8545TIP3    H247051   4.329   5.762  11.407  1.6534  0.6345 -0.1973
 8546TIP3   OH247052   5.202   6.195   0.983 -0.7373  0.0408  0.6156
 8546TIP3    H147053   5.200   6.288   0.959 -2.4942 -0.4568 -1.3676
 8546TIP3    H247054   5.281   6.162   0.940 -0.3843  0.5180  0.8925
 8547TIP3   OH247055   2.326   3.170   0.314 -0.2372 -0.1588  0.1943
 8547TIP3    H147056   2.346   3.079   0.290  0.2333 -0.5223  1.9581
 8547TIP3    H247057   2.244   3.165   0.363  0.0167  0.3199  0.6732
 8548TIP3   OH247058   2.976   6.233  15.728  0.2577 -0.5451 -0.4250
 8548TIP3    H147059   2.918   6.289  15.781  0.7436 -1.1252  0.7326
 8548TIP3    H247060   2.918   6.195  15.662 -0.6955 -1.1419  0.7383
 8549TIP3   OH247061   1.942   3.865  11.541 -0.2088  0.3952 -0.0225
 8549TIP3    H147062   1.878   3.848  11.472  0.8392  1.5394 -1.2981
 8549TIP3    H247063   1.997   3.786  11.543 -1.1415 -0.2412  0.5064
 8550TIP3   OH247064   2.436   5.197  15.341  0.2138  0.4477  0.0354
 8550TIP3    H147065   2.376   5.178  15.270 -0.3836 -0.3767  0.7456
 8550TIP3    H247066   2.521   5.166  15.310  0.1324  0.9386 -0.6796
 8551TIP3   OH247067   2.722   0.440  13.630  0.3125 -0.4045  0.2111
 8551TIP3    H147068   2.707   0.496  13.706 -3.6643  1.0380 -1.5531
 8551TIP3    H247069   2.656   0.371  13.638  1.0064 -1.2233 -1.0323
 8552TIP3   OH247070   4.816   1.689   5.784  0.1057 -0.1732  0.3829
 8552TIP3    H147071   4.895   1.642   5.757  0.5829  1.0635 -0.4241
 8552TIP3    H247072   4.822   1.774   5.739 -3.0622 -1.0917 -1.9441
 8553TIP3   OH247073   4.269   4.311  15.895  0.2693  0.2723 -0.2635
 8553TIP3    H147074   4.327   4.243  15.930 -0.3073  0.6368  1.4558
 8553TIP3    H247075   4.188   4.265  15.875 -0.6330  0.6614  2.2781
 8554TIP3   OH247076   1.805   1.488  11.818  0.6410  0.1712 -0.2532
 8554TIP3    H147077   1.872   1.514  11.881 -0.0744  2.8774 -0.5625
 8554TIP3    H247078   1.848   1.495  11.733  0.4287  0.3831 -0.3441
 8555TIP3   OH247079   5.309   6.392  14.825 -0.3482  0.4090 -0.0327
 8555TIP3    H147080   5.225   6.407  14.869  0.0885  1.5102  0.4495
 8555TIP3    H247081   5.374   6.414  14.891  0.3285 -0.6248 -0.3455
 8556TIP3   OH247082   2.614   5.776   4.090  0.3207  0.0276 -0.0515
 8556TIP3    H147083   2.698   5.732   4.079  1.0734  1.8339 -1.8198
 8556TIP3    H247084   2.555   5.708   4.120  2.0518 -1.6136 -0.3050
 8557TIP3   OH247085   6.054   5.278   0.958 -0.1914 -0.1187  0.0044
 8557TIP3    H147086   6.117   5.260   0.888 -0.4866  0.0863 -0.3092
 8557TIP3    H247087   6.101   5.335   1.018  0.0389 -0.2431 -0.0557
 8558TIP3   OH247088   0.615   3.664   3.921  0.3976  0.0546  0.3122
 8558TIP3    H147089   0.670   3.730   3.878  0.6010 -0.9775 -1.0430
 8558TIP3    H247090   0.590   3.604   3.850  0.5202 -1.5302  1.5931
 8559TIP3   OH247091   3.264   4.462   0.640  0.0683 -0.2662  0.2680
 8559TIP3    H147092   3.257   4.468   0.735  1.1820  0.8542  0.2768
 8559TIP3    H247093   3.327   4.392   0.624  0.6115  0.2027  0.3654
 8560TIP3   OH247094   3.003   0.514  16.338  0.9144 -0.0169 -0.2366
 8560TIP3    H147095   2.929   0.574  16.336  1.5087  0.7050 -1.1147
 8560TIP3    H247096   3.053   0.534  16.258  1.8238 -0.7830  0.1196
 8561TIP3   OH247097   4.330   0.305   1.043 -0.3924 -0.3301 -0.5497
 8561TIP3    H147098   4.289   0.218   1.044  0.9261 -0.9735 -1.1430
 8561TIP3    H247099   4.413   0.292   0.998  1.3629  0.5610  2.2668
 8562TIP3   OH247100   5.773   4.144  10.769 -0.7565 -0.5311 -0.2051
 8562TIP3    H147101   5.779   4.239  10.775 -0.2945 -0.4496 -1.8673
 8562TIP3    H247102   5.680   4.127  10.758 -0.8625 -0.2953  0.2802
 8563TIP3   OH247103   5.723   3.998   0.235  0.6435  0.3649  0.1808
 8563TIP3    H147104   5.744   4.021   0.325 -1.5172  0.7792  0.6053
 8563TIP3    H247105   5.734   3.903   0.230 -0.7055  0.1397  1.2975
 8564TIP3   OH247106   0.402   4.198   0.487  0.0219  0.0730  0.0071
 8564TIP3    H147107   0.364   4.275   0.529  0.0827  0.3831 -0.4933
 8564TIP3    H247108   0.430   4.230   0.401  0.1443 -0.4826 -0.1591
 8565TIP3   OH247109   0.640   1.096   6.321  0.2943 -0.0328  0.2790
 8565TIP3    H147110   0.703   1.143   6.376 -1.1819  0.8724  1.2407
 8565TIP3    H247111   0.658   1.128   6.232  0.6206  0.8633  0.6591
 8566TIP3   OH247112   4.894   2.617  13.423  0.3853  0.9961  0.0205
 8566TIP3    H147113   4.897   2.700  13.470  4.4638  1.1414 -0.3279
 8566TIP3    H247114   4.945   2.632  13.344  1.2310 -1.8294 -0.0259
 8567TIP3   OH247115   0.601   3.945  11.568 -0.0879 -0.5884  0.0880
 8567TIP3    H147116   0.540   4.019  11.570  1.5150  0.7685  0.4521
 8567TIP3    H247117   0.556   3.875  11.614 -1.6298  0.1656 -0.2296
 8568TIP3   OH247118   0.972   3.645   0.016 -0.3767  0.0771  0.1308
 8568TIP3    H147119   1.040   3.710  -0.002 -0.6432  0.7412  1.4358
 8568TIP3    H247120   0.902   3.666  -0.046 -0.7073  1.4233  0.9427
 8569TIP3   OH247121   2.405   6.624   4.084 -0.1260  0.3048 -0.0880
 8569TIP3    H147122   2.366   6.711   4.089  0.0545  0.3758  0.0777
 8569TIP3    H247123   2.498   6.638   4.102  0.2868  0.3842 -2.1052
 8570TIP3   OH247124   4.986   4.999   2.005  0.0668  0.1727  1.2004
 8570TIP3    H147125   4.956   5.087   1.980  0.0512 -0.1414  0.0785
 8570TIP3    H247126   5.041   4.971   1.932 -1.8323 -1.6987  0.4387
 8571TIP3   OH247127   6.316   4.270   0.063 -0.4978  0.4560 -0.0837
 8571TIP3    H147128   6.337   4.303   0.150 -2.8255  2.2936 -0.1591
 8571TIP3    H247129   6.326   4.346   0.006 -0.5036 -0.3449 -1.1594
 8572TIP3   OH247130   4.008   1.882  10.752 -1.0809  0.0389  0.2722
 8572TIP3    H147131   3.999   1.908  10.661  0.0402 -0.5247  0.0013
 8572TIP3    H247132   3.979   1.791  10.755  0.7238 -0.5721  0.0966
 8573TIP3   OH247133   3.035   3.152   4.782 -0.3675  0.2682 -0.2160
 8573TIP3    H147134   3.107   3.123   4.837 -0.6331 -0.5305 -0.2793
 8573TIP3    H247135   2.993   3.221   4.833  1.3638  1.8276 -0.8596
 8574TIP3   OH247136   1.394   1.986  16.821  0.3998  0.0467 -0.1026
 8574TIP3    H147137   1.335   2.038  16.766 -0.5856 -0.9036  0.0444
 8574TIP3    H247138   1.347   1.905  16.837  0.4460  0.5166  2.6011
 8575TIP3   OH247139   2.271   4.797   4.637 -0.0193  0.0057 -0.5070
 8575TIP3    H147140   2.278   4.720   4.580 -0.4739  0.2996 -0.9666
 8575TIP3    H247141   2.212   4.856   4.590 -2.1759 -0.6618  1.2929
 8576TIP3   OH247142   1.402   1.983  13.446 -0.0884 -0.2673  0.2995
 8576TIP3    H147143   1.355   2.065  13.463  0.0473  0.0374 -0.8091
 8576TIP3    H247144   1.450   1.999  13.365 -0.1788 -1.4962 -0.0027
 8577TIP3   OH247145   5.463   2.193  17.116 -0.0770 -0.3100 -0.6716
 8577TIP3    H147146   5.370   2.172  17.103 -0.5012  0.2078  1.3360
 8577TIP3    H247147   5.490   2.135  17.187  0.8236  0.4078 -0.4219
 8578TIP3   OH247148   3.788   1.088   3.626 -0.0961  0.1194 -0.8914
 8578TIP3    H147149   3.715   1.127   3.577 -0.2449  0.9931  0.0119
 8578TIP3    H247150   3.865   1.106   3.574 -0.4276 -0.1235 -1.4683
 8579TIP3   OH247151   2.672   3.825   3.034 -0.6872 -0.1324 -0.4008
 8579TIP3    H147152   2.762   3.806   3.008 -0.0242  1.5549  0.5647
 8579TIP3    H247153   2.622   3.826   2.952  0.1706 -1.0217 -0.9414
 8580TIP3   OH247154   6.462   3.766   0.957  0.3339 -0.3693 -1.0378
 8580TIP3    H147155   6.556   3.754   0.942  0.9239  2.7083 -0.0272
 8580TIP3    H247156   6.430   3.804   0.876  0.0681 -0.7936 -1.1344
 8581TIP3   OH247157   1.307   1.566  14.180 -0.5922  0.4127 -0.1779
 8581TIP3    H147158   1.300   1.599  14.270 -2.2031  0.6102 -0.3691
 8581TIP3    H247159   1.301   1.471  14.189 -2.0544  0.4912 -0.1760
 8582TIP3   OH247160   3.427   4.550   0.039 -0.1132 -0.2285 -0.3790
 8582TIP3    H147161   3.457   4.641   0.029  1.6974 -0.8402 -0.6945
 8582TIP3    H247162   3.342   4.558   0.083  0.6421  1.5435  0.8277
 8583TIP3   OH247163   0.203   1.661   0.809  0.1082  0.7940 -0.0157
 8583TIP3    H147164   0.110   1.680   0.820  0.2481  1.1145  0.6741
 8583TIP3    H247165   0.206   1.589   0.746 -0.6370  0.4108  0.3811
 8584TIP3   OH247166   2.132   5.667  13.346 -0.2102  0.3271  0.2888
 8584TIP3    H147167   2.167   5.592  13.394 -0.3770  0.6231  0.8654
 8584TIP3    H247168   2.177   5.663  13.261  0.4144  0.0751  0.6277
 8585TIP3   OH247169   4.217   4.737  16.958 -0.4298  0.3731 -0.3239
 8585TIP3    H147170   4.273   4.803  16.998 -2.0074  0.0619  2.5049
 8585TIP3    H247171   4.278   4.678  16.913  1.3554  1.0980  1.0778
 8586TIP3   OH247172   2.942   4.786   4.869  0.1464 -0.5024 -0.6003
 8586TIP3    H147173   3.016   4.765   4.926 -1.1773 -0.7232  1.1051
 8586TIP3    H247174   2.953   4.878   4.848 -0.0957 -0.0171  1.2537
 8587TIP3   OH247175   3.586   5.311   5.780  0.2992 -0.3146  0.3877
 8587TIP3    H147176   3.596   5.287   5.872  0.3587 -0.1670  0.4183
 8587TIP3    H247177   3.607   5.230   5.732  1.7561  0.0150  0.4509
 8588TIP3   OH247178   3.552   4.658   2.253 -0.3015 -0.6594 -0.0296
 8588TIP3    H147179   3.499   4.584   2.282  1.6088 -1.6165  1.1433
 8588TIP3    H247180   3.607   4.622   2.183 -0.6894  0.1518 -0.7667
 8589TIP3   OH247181   6.694   0.992   1.962  0.1754 -0.0565 -0.1418
 8589TIP3    H147182   6.619   0.939   1.933 -1.2522  1.6514  0.3475
 8589TIP3    H247183   6.740   0.936   2.024 -1.0195 -0.9337 -0.0242
 8590TIP3   OH247184   0.749   3.889  16.376  0.3503 -0.0319 -0.1444
 8590TIP3    H147185   0.688   3.815  16.369  0.3106  0.1104 -1.3124
 8590TIP3    H247186   0.825   3.864  16.324  0.8107  0.2926  0.3577
 8591TIP3   OH247187   0.846   0.362   6.276  0.2821  0.0695  0.0630
 8591TIP3    H147188   0.900   0.284   6.271  1.7984  1.1108  0.0166
 8591TIP3    H247189   0.782   0.342   6.345  0.2835 -1.4246 -0.3633
 8592TIP3   OH247190   0.455   6.172   3.781 -0.0960  0.5255  0.3341
 8592TIP3    H147191   0.366   6.174   3.747  0.1052 -0.6364 -0.2597
 8592TIP3    H247192   0.453   6.232   3.856 -1.2766  0.7842  0.1052
 8593TIP3   OH247193   5.336   3.128  11.050  0.1259 -0.3928 -0.0821
 8593TIP3    H147194   5.431   3.131  11.045  0.1522  0.0114  0.5151
 8593TIP3    H247195   5.307   3.115  10.960  0.6964  0.8089 -0.4471
 8594TIP3   OH247196   1.059   3.985   2.758 -0.1568  0.8072 -0.1017
 8594TIP3    H147197   0.971   3.995   2.795  0.5592  1.0386  1.5738
 8594TIP3    H247198   1.116   4.032   2.819  1.3125 -0.4957 -0.4412
 8595TIP3   OH247199   5.221   0.782  11.509 -0.4231 -0.2865 -0.5334
 8595TIP3    H147200   5.208   0.794  11.603  0.9361  1.3607 -0.5231
 8595TIP3    H247201   5.135   0.759  11.475 -1.6094  2.2540  0.6567
 8596TIP3   OH247202   4.296   4.150   6.444  0.1271 -0.0675 -0.0520
 8596TIP3    H147203   4.362   4.198   6.493  0.2891  0.5218 -0.8401
 8596TIP3    H247204   4.218   4.153   6.500  0.5393 -0.1091  0.5324
 8597TIP3   OH247205   3.952   3.876  14.730  0.1359 -0.1924 -0.7211
 8597TIP3    H147206   3.994   3.927  14.661  1.1117  0.9905  0.7220
 8597TIP3    H247207   4.025   3.833  14.776 -0.3137  0.7573  0.9212
 8598TIP3   OH247208   5.770   2.185   2.431 -0.5636  0.3408  0.1700
 8598TIP3    H147209   5.835   2.256   2.424 -0.6259  0.2714 -1.2401
 8598TIP3    H247210   5.822   2.105   2.433 -0.6134  0.2508 -1.5706
 8599TIP3   OH247211   0.184   0.645   5.597  0.0131  0.1257 -0.1173
 8599TIP3    H147212   0.115   0.672   5.657  0.2216  0.0883  0.1394
 8599TIP3    H247213   0.154   0.676   5.511 -0.9665 -1.0883 -0.2205
 8600TIP3   OH247214   1.464   2.031  12.268 -0.1049 -0.0410 -0.3571
 8600TIP3    H147215   1.384   2.061  12.313 -0.2510 -0.9904  0.0526
 8600TIP3    H247216   1.507   1.974  12.333  0.4270 -0.2698 -0.9078
 8601TIP3   OH247217   0.382   2.799  17.045 -0.2610  0.1447  0.1266
 8601TIP3    H147218   0.439   2.772  16.974 -1.2978  1.7605 -1.3568
 8601TIP3    H247219   0.305   2.837  17.002 -0.5265  1.9517  2.0748
 8602TIP3   OH247220   0.273   6.636  14.122  0.8442 -0.5596 -0.5149
 8602TIP3    H147221   0.193   6.687  14.108 -0.3812 -2.4256 -0.3966
 8602TIP3    H247222   0.292   6.597  14.036 -0.2429 -2.7635  0.2150
 8603TIP3   OH247223   3.115   2.442   4.912 -0.2323 -0.2141  0.1182
 8603TIP3    H147224   3.146   2.389   4.985 -1.0451 -2.1333 -0.8925
 8603TIP3    H247225   3.192   2.456   4.857 -0.1534 -0.9362  0.0399
 8604TIP3   OH247226   0.387   5.491  12.232 -0.0018 -0.3040 -0.4090
 8604TIP3    H147227   0.384   5.519  12.323  1.9027  2.1599 -1.0374
 8604TIP3    H247228   0.318   5.542  12.190 -0.5625 -1.0824 -0.4286
 8605TIP3   OH247229   2.303   4.150  14.327  0.1063  0.9889 -0.7268
 8605TIP3    H147230   2.370   4.216  14.343 -0.6411  1.3169  1.2019
 8605TIP3    H247231   2.220   4.194  14.347 -0.5811  0.1692 -1.6852
 8606TIP3   OH247232   2.266   1.861   1.688  0.9158  0.2537  0.6355
 8606TIP3    H147233   2.265   1.839   1.781  3.7669 -1.5845  0.3016
 8606TIP3    H247234   2.359   1.859   1.664  0.3783  2.3867 -1.8813
 8607TIP3   OH247235   6.550   1.815  14.791 -0.3940  0.3533  0.1294
 8607TIP3    H147236   6.457   1.793  14.799 -0.4164 -0.0083 -1.0332
 8607TIP3    H247237   6.556   1.866  14.710  0.4610  0.1645  0.0676
 8608TIP3   OH247238   0.157   6.049  12.799 -0.3715 -0.2440 -0.2109
 8608TIP3    H147239   0.109   6.127  12.828  0.0389  0.6179 -1.8009
 8608TIP3    H247240   0.118   5.977  12.849 -3.1233  0.4807 -1.2254
 8609TIP3   OH247241   6.388   4.338   1.467  0.1540 -0.5082  0.0740
 8609TIP3    H147242   6.389   4.429   1.439  1.4912 -0.6619 -0.3985
 8609TIP3    H247243   6.381   4.288   1.385  0.8621 -0.8659  0.2283
 8610TIP3   OH247244   1.920   3.330   1.450 -0.0549 -0.1822  0.0792
 8610TIP3    H147245   1.915   3.238   1.477 -0.5019 -0.0171  0.5710
 8610TIP3    H247246   1.926   3.379   1.532 -1.2112  0.3083 -0.1083
 8611TIP3   OH247247   3.642   3.619   5.974 -0.4931  0.1547 -0.1530
 8611TIP3    H147248   3.730   3.628   6.009 -0.9038 -0.5830  1.1073
 8611TIP3    H247249   3.589   3.680   6.026 -1.5998 -2.8268  2.3875
 8612TIP3   OH247250   5.839   2.978  17.187 -0.0074  0.3003  0.2928
 8612TIP3    H147251   5.920   2.997  17.234  1.2907 -0.1079 -1.7292
 8612TIP3    H247252   5.777   2.954  17.255  1.9600 -0.7190  1.7838
 8613TIP3   OH247253   5.145   1.253  11.537  0.1989 -0.3095  0.0345
 8613TIP3    H147254   5.105   1.259  11.624 -0.5388 -0.5368 -0.2875
 8613TIP3    H247255   5.198   1.333  11.529 -0.4460  0.1501  0.3325
 8614TIP3   OH247256   2.543   2.097   6.465 -0.7133  0.2814 -0.0836
 8614TIP3    H147257   2.481   2.028   6.491 -0.4212  0.0534  0.0131
 8614TIP3    H247258   2.515   2.174   6.514 -0.4686 -0.0188  0.5306
 8615TIP3   OH247259   5.964   4.970   2.538  0.0232  0.1142  0.7210
 8615TIP3    H147260   5.879   4.972   2.493  0.8884  2.0482 -0.9254
 8615TIP3    H247261   6.010   4.896   2.499 -0.0724  0.4335 -0.0144
 8616TIP3   OH247262   3.928   1.621   0.764 -0.0268  0.1602 -0.1630
 8616TIP3    H147263   3.857   1.684   0.758  0.6224  0.9227  0.0443
 8616TIP3    H247264   3.898   1.546   0.713 -1.2787  0.1825  0.5333
 8617TIP3   OH247265   6.593   6.136   4.655  0.3661  0.0228 -0.4101
 8617TIP3    H147266   6.507   6.095   4.671 -0.7047  1.4044 -2.4337
 8617TIP3    H247267   6.602   6.199   4.726  0.3198 -1.0350  0.5612
 8618TIP3   OH247268   5.704   4.225  13.655  0.4798 -0.6736 -0.0959
 8618TIP3    H147269   5.714   4.262  13.567  1.9040  2.0163  1.1394
 8618TIP3    H247270   5.613   4.195  13.658  0.0218  0.4304 -2.0400
 8619TIP3   OH247271   1.705   2.305   0.542 -0.0992 -0.5513 -0.1185
 8619TIP3    H147272   1.658   2.380   0.505  0.1770 -0.2830  0.0737
 8619TIP3    H247273   1.700   2.318   0.636 -0.6975 -1.1725 -0.0582
 8620TIP3   OH247274   2.885   4.488  11.236  0.5889 -0.4199 -0.1493
 8620TIP3    H147275   2.826   4.498  11.311  1.6733  0.2699  0.6128
 8620TIP3    H247276   2.972   4.509  11.270  1.5059 -2.7783 -0.9129
 8621TIP3   OH247277   4.356   5.937   2.467  0.4264 -0.3036 -0.1086
 8621TIP3    H147278   4.294   5.932   2.394 -0.1285 -1.7567  0.4396
 8621TIP3    H247279   4.354   5.850   2.506  1.7600  0.0533  0.7984
 8622TIP3   OH247280   2.907   6.768   3.641 -0.4121 -0.0216  0.4264
 8622TIP3    H147281   2.897   6.729   3.554 -0.1941  0.2336  0.2867
 8622TIP3    H247282   2.882   6.860   3.629  2.0319  0.6268  0.0778
 8623TIP3   OH247283   3.558   6.557   5.515  0.2830 -0.3186  0.0009
 8623TIP3    H147284   3.590   6.571   5.604  1.9535 -0.6271 -0.5323
 8623TIP3    H247285   3.635   6.569   5.459 -0.8504  0.3841 -1.4544
 8624TIP3   OH247286   6.757   2.248   0.885  0.0411  0.1410  0.2596
 8624TIP3    H147287   6.768   2.339   0.913  0.5562  0.3615 -0.6442
 8624TIP3    H247288   6.845   2.211   0.889 -0.6684 -1.4423  4.3300
 8625TIP3   OH247289   3.388   4.863  14.308  0.8088  0.0460  0.2888
 8625TIP3    H147290   3.350   4.911  14.234  0.8415 -0.8705 -0.3418
 8625TIP3    H247291   3.354   4.907  14.385 -0.7234 -0.1010 -0.2666
 8626TIP3   OH247292   3.905   5.390   3.235  0.3381  0.4464 -0.2147
 8626TIP3    H147293   3.989   5.347   3.252  0.6215  0.2572 -1.9926
 8626TIP3    H247294   3.897   5.456   3.304  0.4192 -1.6760  1.8991
 8627TIP3   OH247295   5.791   2.655   5.285  0.5538 -0.0909  0.7658
 8627TIP3    H147296   5.832   2.621   5.364  1.0184 -1.5979 -0.1139
 8627TIP3    H247297   5.730   2.722   5.317  0.0488 -1.3219  2.4698
 8628TIP3   OH247298   6.356   2.272  12.822 -0.8357 -0.0176  0.3438
 8628TIP3    H147299   6.314   2.357  12.834  0.0175  0.2906  1.2134
 8628TIP3    H247300   6.441   2.281  12.866 -1.6828 -2.0411  2.5253
 8629TIP3   OH247301   5.960   0.048   0.738  0.2187 -0.2274  0.1993
 8629TIP3    H147302   5.967   0.070   0.645 -1.3941  0.2422  0.1644
 8629TIP3    H247303   5.894   0.110   0.771 -1.4253 -2.3623  0.9949
 8630TIP3   OH247304   4.366   4.551   5.045  0.3117 -0.8730 -0.0287
 8630TIP3    H147305   4.275   4.525   5.055 -0.1068  0.0863 -1.2845
 8630TIP3    H247306   4.376   4.570   4.952  1.1174  1.5655  0.5229
 8631TIP3   OH247307   5.904   4.316   3.370  0.3615 -0.3081 -0.8744
 8631TIP3    H147308   5.864   4.390   3.324 -0.3733 -0.5071 -0.5711
 8631TIP3    H247309   5.973   4.285   3.311  0.0954  0.0727 -1.3928
 8632TIP3   OH247310   3.234   4.831   1.120 -0.3092 -0.0214  0.0709
 8632TIP3    H147311   3.197   4.841   1.033 -0.9246  1.9496  0.5254
 8632TIP3    H247312   3.175   4.880   1.177  0.2812 -0.9810  1.5362
 8633TIP3   OH247313   5.560   3.723   5.889  0.2314 -0.4454 -0.8242
 8633TIP3    H147314   5.507   3.749   5.964  0.4808 -1.0482 -0.4372
 8633TIP3    H247315   5.520   3.642   5.857  2.0745 -2.0180  0.7094
 8634TIP3   OH247316   2.705   2.786   1.079  0.3884  0.1627 -0.5492
 8634TIP3    H147317   2.695   2.843   1.002  0.2738 -1.6590 -1.9235
 8634TIP3    H247318   2.697   2.697   1.044 -1.2084 -0.6703  1.8021
 8635TIP3   OH247319   2.198   0.966  11.842  0.2179  0.1267  0.2503
 8635TIP3    H147320   2.168   0.886  11.885 -0.3214 -0.7010 -1.6390
 8635TIP3    H247321   2.226   0.938  11.755  0.1046  1.9775 -0.3990
 8636TIP3   OH247322   3.222   3.263   0.452 -0.0040 -0.2560  0.2963
 8636TIP3    H147323   3.292   3.318   0.490 -0.5513 -0.0659  1.0428
 8636TIP3    H247324   3.193   3.312   0.375  1.5379 -0.9417 -0.7487
 8637TIP3   OH247325   3.010   5.915   2.626 -0.1537 -0.0013 -0.2243
 8637TIP3    H147326   2.991   5.962   2.544  1.3165  1.2259  0.1122
 8637TIP3    H247327   2.934   5.934   2.682  0.2459  1.7436 -0.2218
 8638TIP3   OH247328   1.975   3.637  15.957  0.3610  0.1680 -0.2036
 8638TIP3    H147329   1.957   3.709  15.896  1.0765  0.5581  0.0485
 8638TIP3    H247330   2.022   3.678  16.030 -3.9812  0.5268  2.6255
 8639TIP3   OH247331   5.593   5.613  13.523 -0.8693 -0.2232  0.0280
 8639TIP3    H147332   5.673   5.659  13.500 -1.0113 -0.1440 -0.3061
 8639TIP3    H247333   5.567   5.568  13.443 -0.0440 -1.9197  0.6879
 8640TIP3   OH247334   4.400   2.880   0.742 -0.7693  0.0258  0.8463
 8640TIP3    H147335   4.434   2.947   0.801 -0.3043  0.1659  0.4206
 8640TIP3    H247336   4.454   2.887   0.663 -0.7904 -0.7703  0.7546
 8641TIP3   OH247337   5.365   1.020   4.436  0.4782 -0.3813  0.6165
 8641TIP3    H147338   5.446   1.026   4.385 -0.1052  3.1699 -0.0489
 8641TIP3    H247339   5.295   1.024   4.370 -0.2614 -0.0680  1.4118
 8642TIP3   OH247340   6.271   1.074   6.146  0.3401  0.5461 -0.4277
 8642TIP3    H147341   6.274   1.004   6.081  0.5997 -1.7515  1.9904
 8642TIP3    H247342   6.187   1.118   6.130 -0.4355 -1.1666 -1.1006
 8643TIP3   OH247343   3.418   0.120   9.986 -0.1216  0.6708  0.5444
 8643TIP3    H147344   3.388   0.167   9.908  0.5236  1.4546  0.7583
 8643TIP3    H247345   3.371   0.037   9.984  1.6968 -0.3877 -2.0487
 8644TIP3   OH247346   4.057   1.493  17.164 -0.3503 -0.1567 -0.1575
 8644TIP3    H147347   4.088   1.415  17.211  1.2051  0.9349  0.6470
 8644TIP3    H247348   3.971   1.511  17.204 -0.6100 -1.2980 -0.1701
 8645TIP3   OH247349   5.607   4.191  12.535 -0.5916  0.5228  0.2029
 8645TIP3    H147350   5.569   4.251  12.600 -0.6405 -1.5388  2.1215
 8645TIP3    H247351   5.634   4.115  12.586 -1.3289 -1.4793 -2.3182
 8646TIP3   OH247352   1.599   5.210  15.665  0.6077 -0.0605 -0.4689
 8646TIP3    H147353   1.669   5.163  15.619 -0.3720  0.0399 -2.1122
 8646TIP3    H247354   1.607   5.300  15.634  0.7939  0.3084  0.6253
 8647TIP3   OH247355   0.485   3.007  12.395 -0.2120 -0.5050 -0.1625
 8647TIP3    H147356   0.510   3.088  12.350  0.3707  0.4605  1.8485
 8647TIP3    H247357   0.389   3.007  12.392 -0.1506 -1.4326 -3.0668
 8648TIP3   OH247358   5.212   6.586   3.090 -0.2559  0.5257  0.0240
 8648TIP3    H147359   5.233   6.504   3.134  0.2390  0.0855 -1.0257
 8648TIP3    H247360   5.142   6.624   3.143 -0.8868 -0.8473  0.1905
 8649TIP3   OH247361   6.627   1.083  13.956  0.3423 -0.2908  0.5698
 8649TIP3    H147362   6.702   1.137  13.982  0.7273 -0.7120  0.3485
 8649TIP3    H247363   6.573   1.141  13.902 -0.2585  0.4702  1.9607
 8650TIP3   OH247364   0.921   3.586  16.679 -0.7335 -0.0039  0.1152
 8650TIP3    H147365   0.977   3.608  16.753 -1.2805 -0.2406  0.6075
 8650TIP3    H247366   0.952   3.643  16.608  1.1169 -1.2231 -0.0757
 8651TIP3   OH247367   5.307   2.298  10.977  0.0121 -0.0998 -0.0632
 8651TIP3    H147368   5.335   2.357  10.907  0.5885  0.6143  0.7606
 8651TIP3    H247369   5.214   2.283  10.960 -0.2108  1.2884 -0.1094
 8652TIP3   OH247370   2.071   4.167   5.372 -0.2897 -0.4847 -0.1082
 8652TIP3    H147371   1.988   4.209   5.349 -1.2389 -2.3259 -0.1677
 8652TIP3    H247372   2.047   4.102   5.438  0.8955 -1.8880 -1.0181
 8653TIP3   OH247373   6.092   0.012  15.238  0.3441 -0.6168  0.0157
 8653TIP3    H147374   6.171   0.063  15.222 -0.9733  2.1161  1.7311
 8653TIP3    H247375   6.047   0.009  15.154  1.0887 -0.0794 -0.4040
 8654TIP3   OH247376   4.821   2.421   2.898  0.3602  0.3844  0.2403
 8654TIP3    H147377   4.877   2.490   2.863  1.0061 -0.1097  0.2875
 8654TIP3    H247378   4.880   2.368   2.952  0.1062 -0.8431 -0.6831
 8655TIP3   OH247379   2.707   0.045  16.887 -0.2446 -0.0189  0.6145
 8655TIP3    H147380   2.738   0.014  16.802 -1.9710  0.4412 -0.2114
 8655TIP3    H247381   2.772   0.015  16.949  1.9392  1.0730 -1.0770
 8656TIP3   OH247382   1.927   5.902   0.231 -0.1830  0.6580  0.0605
 8656TIP3    H147383   2.014   5.863   0.236 -0.5409 -0.3143 -1.2074
 8656TIP3    H247384   1.915   5.925   0.139 -0.0509  3.6236  0.7322
 8657TIP3   OH247385   4.208   3.716  14.769  0.0317 -0.4212  0.1293
 8657TIP3    H147386   4.261   3.785  14.730 -2.9154  0.3795 -2.6774
 8657TIP3    H247387   4.257   3.689  14.846  1.9436  3.8410  0.5469
 8658TIP3   OH247388   0.521   6.624   2.035  0.6651  0.4735 -0.0598
 8658TIP3    H147389   0.434   6.646   2.002  0.7674  0.5787 -0.2611
 8658TIP3    H247390   0.566   6.586   1.959  0.5839 -0.1667  0.2051
 8659TIP3   OH247391   1.258   6.206  13.611 -0.0730 -0.1709  0.5773
 8659TIP3    H147392   1.261   6.178  13.703 -1.9118 -0.1442  0.6543
 8659TIP3    H247393   1.199   6.281  13.611 -0.4860 -0.4974 -0.7249
 8660TIP3   OH247394   0.397   4.431   0.780 -0.4556  0.6896 -0.2934
 8660TIP3    H147395   0.441   4.467   0.857  0.2253  0.0915 -0.3975
 8660TIP3    H247396   0.330   4.372   0.816 -0.4108  0.7258 -0.1516
 8661TIP3   OH247397   1.009   0.870   3.289 -0.4381 -0.5371  0.4837
 8661TIP3    H147398   1.070   0.806   3.254  0.4713  1.3886 -1.5328
 8661TIP3    H247399   0.927   0.822   3.300  0.7531 -2.5121  0.8390
 8662TIP3   OH247400   4.266   5.316   2.051 -0.4245  0.0058 -0.0631
 8662TIP3    H147401   4.194   5.330   1.990  0.1890 -1.3606 -1.1287
 8662TIP3    H247402   4.254   5.227   2.083  0.3534  0.0368  0.3375
 8663TIP3   OH247403   4.019   5.487   6.727  0.5682 -0.3663  0.3032
 8663TIP3    H147404   3.927   5.496   6.749  0.8760  1.3741  0.9367
 8663TIP3    H247405   4.024   5.508   6.633  0.0956 -2.1175 -0.1311
 8664TIP3   OH247406   3.034   2.457  12.780  0.1883 -0.1027 -0.4636
 8664TIP3    H147407   3.107   2.433  12.722  1.7861  2.1622  0.5663
 8664TIP3    H247408   2.959   2.465  12.721  1.2191 -0.3549 -1.8500
 8665TIP3   OH247409   3.692   3.581  16.053  0.0857 -0.5345  0.0633
 8665TIP3    H147410   3.723   3.517  15.990 -0.4189 -0.6944 -0.0258
 8665TIP3    H247411   3.602   3.554  16.073 -0.3130  0.4401 -0.3723
 8666TIP3   OH247412   5.951   3.985  14.653 -0.5437 -0.4610  0.0185
 8666TIP3    H147413   5.879   4.046  14.666 -1.5568 -1.8801  1.1862
 8666TIP3    H247414   5.938   3.917  14.719  0.8358 -1.6979 -0.9365
 8667TIP3   OH247415   0.124   4.331   4.976  0.0253  0.1185  0.0134
 8667TIP3    H147416   0.147   4.239   4.968 -0.2287  0.0394  0.2020
 8667TIP3    H247417   0.084   4.339   5.062 -0.2686  0.3373 -0.1406
 8668TIP3   OH247418   4.329   0.522  13.635 -0.2269  0.0329  0.6569
 8668TIP3    H147419   4.387   0.452  13.604 -0.7559  0.0483 -0.3816
 8668TIP3    H247420   4.245   0.480  13.648 -0.8585  0.6993 -1.1097
 8669TIP3   OH247421   1.689   5.246   0.182  0.0923  0.4423  0.1811
 8669TIP3    H147422   1.702   5.205   0.097 -2.0878 -0.4185  0.2170
 8669TIP3    H247423   1.619   5.310   0.167  2.7698  3.5330  0.3396
 8670TIP3   OH247424   5.555   1.586   2.986 -0.1294  0.0259  0.1724
 8670TIP3    H147425   5.561   1.678   2.959  0.7693 -0.3658 -1.0122
 8670TIP3    H247426   5.616   1.579   3.059  1.1572 -0.0250 -0.8888
 8671TIP3   OH247427   4.189   0.363  14.010  0.0036  0.4085 -0.0903
 8671TIP3    H147428   4.172   0.444  13.962  0.4665  0.2891 -0.4591
 8671TIP3    H247429   4.275   0.334  13.979 -1.0895 -1.3711 -1.5556
 8672TIP3   OH247430   3.606   1.628  13.442  0.3266 -0.5451  0.4335
 8672TIP3    H147431   3.641   1.704  13.487  0.5050 -0.0734 -0.4823
 8672TIP3    H247432   3.511   1.643  13.440  0.3081 -0.6298  0.7710
 8673TIP3   OH247433   2.879   1.656  11.185  0.6680  0.1564 -0.1225
 8673TIP3    H147434   2.946   1.594  11.215  1.3330  0.5154 -0.8403
 8673TIP3    H247435   2.920   1.742  11.195 -0.4140  0.5223  1.2849
 8674TIP3   OH247436   2.952   2.092  16.008 -0.7780  0.1811 -0.1401
 8674TIP3    H147437   2.893   2.163  16.034  0.6122  1.1125  0.5395
 8674TIP3    H247438   2.989   2.121  15.925 -1.3619 -0.4759 -0.6433
 8675TIP3   OH247439   1.752   2.193   4.989 -0.3106 -0.3567  0.1561
 8675TIP3    H147440   1.833   2.245   4.990 -1.8154  2.0542 -0.0958
 8675TIP3    H247441   1.751   2.149   5.074  1.6596 -1.0938 -0.1687
 8676TIP3   OH247442   6.000   2.174  14.228 -0.1925  0.3422 -0.4543
 8676TIP3    H147443   5.948   2.168  14.309  0.7370 -1.8823  0.0331
 8676TIP3    H247444   6.091   2.169  14.258  0.1526 -0.6896 -1.6389
 8677TIP3   OH247445   0.457   3.469   2.197 -0.0022  0.1894 -0.6205
 8677TIP3    H147446   0.470   3.402   2.130  0.4631 -0.0477 -0.2986
 8677TIP3    H247447   0.364   3.463   2.220 -0.2607  0.5700 -1.5539
 8678TIP3   OH247448   3.437   4.201   5.586 -0.7531 -0.6680 -0.0594
 8678TIP3    H147449   3.530   4.218   5.576 -1.0562  0.5116 -0.9618
 8678TIP3    H247450   3.420   4.217   5.679 -0.3441  0.5604 -0.1940
 8679TIP3   OH247451   3.257   6.256  16.652 -0.9426 -0.6588 -0.4738
 8679TIP3    H147452   3.221   6.288  16.569 -2.1909  0.3996  0.4546
 8679TIP3    H247453   3.255   6.161  16.643 -2.9026 -0.6115 -0.9291
 8680TIP3   OH247454   3.057   4.025  12.158  0.0866 -0.5469  0.7378
 8680TIP3    H147455   2.965   4.005  12.172  0.2007  0.3080  2.8549
 8680TIP3    H247456   3.104   3.947  12.186  0.0218 -1.0460 -0.4981
 8681TIP3   OH247457   6.608   4.561  10.290  0.3202  0.0184 -0.3330
 8681TIP3    H147458   6.580   4.605  10.370 -0.4264 -0.7028 -0.1846
 8681TIP3    H247459   6.618   4.469  10.316  0.3922 -0.1593 -0.9854
 8682TIP3   OH247460   4.038   3.176   5.194 -1.1420 -0.2625 -0.4571
 8682TIP3    H147461   4.077   3.090   5.177 -0.2960 -0.5222  2.5302
 8682TIP3    H247462   4.104   3.224   5.243 -2.7482  1.0249  0.5125
 8683TIP3   OH247463   2.688   3.633  13.732  0.4045  0.5414  0.8381
 8683TIP3    H147464   2.594   3.615  13.743  0.1597  1.4032  0.2187
 8683TIP3    H247465   2.714   3.674  13.815  0.7709 -1.7575  1.9100
 8684TIP3   OH247466   6.200   5.662   1.538  0.3735 -0.3264 -0.0150
 8684TIP3    H147467   6.265   5.596   1.517 -1.9304 -2.9466  0.7999
 8684TIP3    H247468   6.203   5.724   1.465  2.0719 -1.7106 -1.1376
 8685TIP3   OH247469   6.492   1.575  14.285  0.1952 -0.2257  0.3173
 8685TIP3    H147470   6.420   1.516  14.306 -0.0436 -0.7829 -2.0323
 8685TIP3    H247471   6.456   1.663  14.298 -0.7154 -0.5089 -0.3005
 8686TIP3   OH247472   4.671   5.984   0.547  0.0332  0.2391 -0.5356
 8686TIP3    H147473   4.733   5.917   0.576  1.5809  0.6241 -2.8667
 8686TIP3    H247474   4.597   5.935   0.512  0.4410 -0.2296 -0.7446
 8687TIP3   OH247475   5.030   0.982   0.957 -0.8245  0.0822 -0.2129
 8687TIP3    H147476   5.003   0.969   0.866  0.7858 -0.0220 -0.6911
 8687TIP3    H247477   5.093   1.054   0.953 -0.1934 -0.4006  0.7069
 8688TIP3   OH247478   5.361   3.550  14.653 -0.2928  0.0867  0.4054
 8688TIP3    H147479   5.306   3.491  14.601  2.0454 -2.7697  1.0464
 8688TIP3    H247480   5.417   3.593  14.589 -0.2394 -0.3683  0.1380
 8689TIP3   OH247481   3.072   1.953  13.007  0.3009 -0.0444  0.5251
 8689TIP3    H147482   3.045   2.044  12.993 -0.8659 -0.0839  2.3362
 8689TIP3    H247483   3.087   1.947  13.101  0.8314 -1.6126  0.3561
 8690TIP3   OH247484   2.984   5.210   5.361 -0.5609  0.2326  0.0284
 8690TIP3    H147485   2.955   5.120   5.346  1.4630 -0.4393  0.0099
 8690TIP3    H247486   3.017   5.210   5.451 -0.2727  0.8694 -0.0764
 8691TIP3   OH247487   6.350   6.699  10.637 -0.4254 -0.2240 -0.3334
 8691TIP3    H147488   6.373   6.625  10.692  0.5994 -0.2556 -0.7891
 8691TIP3    H247489   6.416   6.699  10.568  0.6488  2.1338  0.6251
 8692TIP3   OH247490   5.528   3.952  12.019  0.5873 -0.0969 -0.1438
 8692TIP3    H147491   5.435   3.970  12.021  0.3535 -1.2626 -0.1322
 8692TIP3    H247492   5.567   4.025  11.971 -0.3493  0.2669 -0.3401
 8693TIP3   OH247493   3.226   2.627   3.341  0.4167  0.4925 -0.0472
 8693TIP3    H147494   3.222   2.643   3.435  0.1465 -1.2050  0.2470
 8693TIP3    H247495   3.170   2.551   3.327  1.2021  0.1475 -1.4387
 8694TIP3   OH247496   4.500   0.921   4.712 -0.3143 -0.5283  0.0887
 8694TIP3    H147497   4.525   0.892   4.625 -2.2467 -0.4802 -0.4960
 8694TIP3    H247498   4.411   0.890   4.724 -0.8591  1.3398  1.1833
 8695TIP3   OH247499   1.415   0.953  12.337 -0.4421  0.1407 -0.0848
 8695TIP3    H147500   1.331   0.948  12.382  0.1790 -0.0729  1.0912
 8695TIP3    H247501   1.479   0.933  12.405  0.5850  0.7290 -0.8631
 8696TIP3   OH247502   3.469   6.755  17.111 -0.6960 -0.2733 -0.5409
 8696TIP3    H147503   3.408   6.694  17.151 -0.7457  0.1165 -0.0277
 8696TIP3    H247504   3.447   6.753  17.017 -0.2909 -1.5073 -0.6159
 8697TIP3   OH247505   1.890   3.071   3.353  0.4750  0.3809  0.0337
 8697TIP3    H147506   1.963   3.129   3.330 -0.4054  0.8817 -1.5924
 8697TIP3    H247507   1.864   3.032   3.269 -2.5386  1.8865  0.2140
 8698TIP3   OH247508   6.194   2.993  16.645  0.1884 -0.2285 -0.3865
 8698TIP3    H147509   6.119   3.025  16.595 -1.5283 -1.5011  1.2961
 8698TIP3    H247510   6.164   2.910  16.682  2.6999 -1.1217 -0.2745
 8699TIP3   OH247511   5.040   0.628   0.846  0.5119 -0.1414  0.2931
 8699TIP3    H147512   5.084   0.544   0.841 -0.0919 -0.4728  0.4830
 8699TIP3    H247513   5.092   0.686   0.790 -0.2063 -1.1485 -1.4817
 8700TIP3   OH247514   5.639   0.898   2.338 -0.0550  0.2041  0.6995
 8700TIP3    H147515   5.619   0.804   2.340  0.6517  0.0774  1.8752
 8700TIP3    H247516   5.662   0.920   2.428 -0.5588  1.5933  0.4962
 8701TIP3   OH247517   0.349   1.605   1.948 -0.1618  0.6395  0.1652
 8701TIP3    H147518   0.386   1.692   1.936  1.1483 -0.0714 -1.1502
 8701TIP3    H247519   0.423   1.546   1.937 -1.6515 -0.8290 -2.6405
 8702TIP3   OH247520   3.352   4.838  13.083  0.3887 -0.1430  0.4853
 8702TIP3    H147521   3.352   4.762  13.025 -1.9072 -0.2931  0.6494
 8702TIP3    H247522   3.304   4.905  13.036  1.5102  0.8880  0.7818
 8703TIP3   OH247523   6.656   3.344   2.753  0.3017 -0.0297 -0.4258
 8703TIP3    H147524   6.560   3.347   2.749  0.3922  2.2741 -1.8338
 8703TIP3    H247525   6.684   3.337   2.662  1.4853  1.8410 -0.2487
 8704TIP3   OH247526   3.382   2.024   2.230 -0.1809 -0.0202 -0.7571
 8704TIP3    H147527   3.444   2.066   2.289 -0.9310  0.8648 -0.5922
 8704TIP3    H247528   3.299   2.068   2.247 -0.8798 -1.2579 -0.9035
 8705TIP3   OH247529   0.727   3.321  17.019 -0.4027  0.2674 -0.6126
 8705TIP3    H147530   0.768   3.368  17.092 -0.7974 -0.0988 -0.1483
 8705TIP3    H247531   0.771   3.353  16.941 -0.4978  1.2301 -0.2718
 8706TIP3   OH247532   1.220   5.031   0.797  0.1475 -0.2608  0.6407
 8706TIP3    H147533   1.273   4.973   0.852 -0.9531 -3.2372 -1.3142
 8706TIP3    H247534   1.277   5.054   0.724  0.3953  0.6764  1.1253
 8707TIP3   OH247535   4.194   4.408   5.848 -0.3394  0.3398 -0.1433
 8707TIP3    H147536   4.237   4.406   5.762  1.5417 -3.1176  0.7720
 8707TIP3    H247537   4.101   4.402   5.827  0.0555  0.1066 -1.9963
 8708TIP3   OH247538   1.119   2.432  11.656  0.1296  0.2079  0.2930
 8708TIP3    H147539   1.084   2.480  11.732  1.3572  2.0755 -0.2891
 8708TIP3    H247540   1.051   2.369  11.634 -1.3125  1.3356  1.4189
 8709TIP3   OH247541   4.841   4.731  11.877 -0.2085 -0.5577 -0.0950
 8709TIP3    H147542   4.851   4.797  11.808 -0.0924 -1.2788 -0.7711
 8709TIP3    H247543   4.781   4.772  11.939  1.0860  0.8074  0.2850
 8710TIP3   OH247544   6.128   6.321  14.083  0.1950  0.3930  0.1462
 8710TIP3    H147545   6.051   6.335  14.139 -0.7102  1.2656 -1.2818
 8710TIP3    H247546   6.198   6.298  14.144 -0.9938  0.4388  1.5553
 8711TIP3   OH247547   3.867   4.323  16.221 -0.2688  0.3702  0.1175
 8711TIP3    H147548   3.861   4.242  16.171 -0.2730 -0.3377  1.2366
 8711TIP3    H247549   3.780   4.332  16.260 -0.6719  1.6066 -1.0431
 8712TIP3   OH247550   5.987   3.193  14.468  0.1968 -0.2125  0.5197
 8712TIP3    H147551   6.075   3.162  14.447 -0.1956 -0.2843 -1.0907
 8712TIP3    H247552   6.001   3.273  14.518  1.1974  0.9752 -1.5811
 8713TIP3   OH247553   0.289   5.242  12.187  0.0941 -0.0059  0.0972
 8713TIP3    H147554   0.261   5.220  12.276 -1.2308  0.3174 -0.2176
 8713TIP3    H247555   0.323   5.331  12.195 -0.3111  0.1426  0.2363
 8714TIP3   OH247556   0.541   4.017  15.632 -0.4153  0.6117 -0.3284
 8714TIP3    H147557   0.583   4.091  15.676 -0.2001  0.1979  0.1805
 8714TIP3    H247558   0.605   3.946  15.640 -1.2873 -0.0763  0.6051
 8715TIP3   OH247559   2.812   3.127  11.893 -1.0580  0.2758  0.2169
 8715TIP3    H147560   2.727   3.130  11.937 -0.2999  1.4681  1.6466
 8715TIP3    H247561   2.876   3.131  11.964  0.2017 -1.1319 -0.8265
 8716TIP3   OH247562   3.465   5.817   3.148 -0.5754 -0.2269 -0.2353
 8716TIP3    H147563   3.463   5.903   3.191 -0.6292 -0.0338 -0.6225
 8716TIP3    H247564   3.494   5.836   3.059 -1.0759 -0.5492 -0.4690
 8717TIP3   OH247565   4.196   1.545  15.173 -0.1345  0.2477 -0.1775
 8717TIP3    H147566   4.222   1.488  15.101  1.7137  0.8023  0.0197
 8717TIP3    H247567   4.259   1.525  15.242 -1.4508  0.2372  1.0383
 8718TIP3   OH247568   1.105   5.730  13.334  0.1274  0.2805 -0.7869
 8718TIP3    H147569   1.055   5.734  13.252 -1.3530  1.7408  0.1535
 8718TIP3    H247570   1.069   5.655  13.380  0.2354  0.0846 -1.0209
 8719TIP3   OH247571   2.222   1.649  15.617  0.1116 -0.1782 -0.0002
 8719TIP3    H147572   2.269   1.705  15.680  0.3650  1.0235 -1.2385
 8719TIP3    H247573   2.189   1.577  15.670  0.2588  0.8519  1.5417
 8720TIP3   OH247574   4.308   3.407  11.953  0.2467 -0.4251 -0.3622
 8720TIP3    H147575   4.325   3.424  12.046  1.3183  2.1366 -0.9828
 8720TIP3    H247576   4.385   3.359  11.922  1.5663  1.8352 -0.7050
 8721TIP3   OH247577   3.753   1.527   5.028  0.2444  0.1421  0.5343
 8721TIP3    H147578   3.670   1.570   5.051  0.0357 -0.5010  1.0036
 8721TIP3    H247579   3.799   1.591   4.974 -0.7629  0.3295 -0.1264
 8722TIP3   OH247580   1.205   1.533  14.692 -0.1861 -0.4106  0.4750
 8722TIP3    H147581   1.180   1.591  14.620  1.1254 -0.3312  0.0756
 8722TIP3    H247582   1.141   1.551  14.761 -0.0626  1.2013  0.1865
 8723TIP3   OH247583   4.587   5.563  14.474  0.4323 -0.3881 -0.3733
 8723TIP3    H147584   4.627   5.646  14.447  0.1734 -0.4572 -0.9910
 8723TIP3    H247585   4.493   5.579  14.466  0.3952 -0.9646 -1.1979
 8724TIP3   OH247586   4.768   1.111   1.964  0.3415 -0.1509 -0.0473
 8724TIP3    H147587   4.692   1.146   1.918  0.7060  0.7850  0.0374
 8724TIP3    H247588   4.772   1.162   2.045  0.7474 -0.5637  0.1961
 8725TIP3   OH247589   4.490   0.322   5.875  0.0647 -0.1836  0.0618
 8725TIP3    H147590   4.477   0.386   5.945 -1.2799  0.6753 -0.9356
 8725TIP3    H247591   4.561   0.358   5.822  0.7051 -0.5539  0.6678
 8726TIP3   OH247592   5.441   6.290  16.449 -0.0511  0.0540 -0.0528
 8726TIP3    H147593   5.495   6.232  16.395  0.6422  0.7382 -0.1162
 8726TIP3    H247594   5.454   6.377  16.411 -0.8853  0.2887  0.1900
 8727TIP3   OH247595   6.264   6.359  16.446  0.1438  0.0305 -0.1936
 8727TIP3    H147596   6.171   6.363  16.427 -0.0744 -1.5479  0.4844
 8727TIP3    H247597   6.298   6.291  16.388  0.5635 -0.5995  0.7784
 8728TIP3   OH247598   2.631   4.931   2.925 -0.1407  0.6661  0.1289
 8728TIP3    H147599   2.561   4.889   2.975  2.4361 -2.2505  1.4361
 8728TIP3    H247600   2.603   4.923   2.834 -3.1896  2.8088  0.8249
 8729TIP3   OH247601   6.510   5.697  14.819 -0.7761  0.3740  0.6968
 8729TIP3    H147602   6.574   5.628  14.838 -1.2273  0.1251  1.3695
 8729TIP3    H247603   6.475   5.721  14.905 -0.7426  1.3307  0.4484
 8730TIP3   OH247604   0.481   0.830  13.257 -0.2741 -0.3181  0.4701
 8730TIP3    H147605   0.414   0.772  13.295 -0.5538  0.8002  1.7400
 8730TIP3    H247606   0.518   0.780  13.185 -2.2193 -1.1208 -0.0075
 8731TIP3   OH247607   4.176   0.021   1.477 -0.3679  0.0682 -0.1202
 8731TIP3    H147608   4.223   0.074   1.413  0.1591  0.5559  0.6617
 8731TIP3    H247609   4.101  -0.013   1.429  0.6000 -0.4549 -1.3008
 8732TIP3   OH247610   3.713   4.445  13.871  0.2897  0.4873  0.4574
 8732TIP3    H147611   3.641   4.459  13.933 -0.0892 -0.3711  0.2303
 8732TIP3    H247612   3.785   4.497  13.905 -0.1733  0.6693  1.1713
 8733TIP3   OH247613   3.898   6.209  16.127  0.8253 -0.0508  0.0371
 8733TIP3    H147614   3.853   6.286  16.092 -0.3442 -0.1895  1.2191
 8733TIP3    H247615   3.969   6.245  16.181  0.6376  0.1837  0.1228
 8734TIP3   OH247616   5.369   0.533  15.486 -0.0631  0.7481  0.4357
 8734TIP3    H147617   5.457   0.537  15.523  1.2254  1.0459 -2.4874
 8734TIP3    H247618   5.355   0.439  15.469 -0.0343  0.7603  0.3400
 8735TIP3   OH247619   1.094   0.538   2.412 -0.5972 -0.5033  0.4782
 8735TIP3    H147620   1.000   0.556   2.412 -0.1822  1.9470 -1.1638
 8735TIP3    H247621   1.121   0.549   2.503 -1.5886  0.6169  0.6507
 8736TIP3   OH247622   5.846   1.659  12.827 -0.2397 -0.2465 -0.0921
 8736TIP3    H147623   5.843   1.755  12.831 -0.3437 -0.3028  1.0933
 8736TIP3    H247624   5.940   1.639  12.820  0.1143 -0.1985  3.5851
 8737TIP3   OH247625   6.477   2.877   0.824 -0.0511 -0.0034 -0.5802
 8737TIP3    H147626   6.405   2.824   0.857 -0.5682  0.6050 -0.7049
 8737TIP3    H247627   6.539   2.815   0.787  1.1105 -0.8139  2.5747
 8738TIP3   OH247628   4.675   4.372  14.026 -0.2050 -0.1246  0.0992
 8738TIP3    H147629   4.716   4.320  14.095  0.2970 -2.8895 -2.1968
 8738TIP3    H247630   4.581   4.358  14.038 -0.1366 -0.2353  0.5098
 8739TIP3   OH247631   6.312   0.680  11.576  0.1094  0.1079 -0.2917
 8739TIP3    H147632   6.374   0.632  11.631  0.5237  0.1979 -0.6716
 8739TIP3    H247633   6.230   0.631  11.583  0.3749 -0.3227 -0.2133
 8740TIP3   OH247634   1.911   5.305  15.510  0.0171 -0.0572  0.5515
 8740TIP3    H147635   1.914   5.300  15.605 -0.9567  0.8498  0.6479
 8740TIP3    H247636   1.855   5.231  15.484 -0.0281 -0.0827  0.7188
 8741TIP3   OH247637   2.726   4.099   1.632  0.0821 -0.1098 -0.2441
 8741TIP3    H147638   2.746   4.149   1.712  0.7424  0.0360 -0.4981
 8741TIP3    H247639   2.670   4.157   1.581 -4.4869 -2.0352  2.2653
 8742TIP3   OH247640   6.564   5.397   2.252 -0.0574 -0.2694  0.3638
 8742TIP3    H147641   6.640   5.350   2.287  0.4330 -0.4067 -0.8603
 8742TIP3    H247642   6.575   5.487   2.282  1.4668  0.0709 -1.1944
 8743TIP3   OH247643   5.545   1.870  13.260  0.4680  0.4360 -0.0852
 8743TIP3    H147644   5.568   1.821  13.339  1.1273  1.2686  0.2477
 8743TIP3    H247645   5.589   1.823  13.189 -0.7636 -0.7690 -0.0666
 8744TIP3   OH247646   1.373   3.468  16.839  0.0458  0.3802  0.2301
 8744TIP3    H147647   1.293   3.487  16.790 -0.8877 -0.7758  1.2809
 8744TIP3    H247648   1.442   3.467  16.772 -1.4031 -2.5150 -1.3069
 8745TIP3   OH247649   6.317   1.427   3.409 -0.2629  0.2193 -0.2669
 8745TIP3    H147650   6.379   1.355   3.422  0.2824  0.6944 -0.2005
 8745TIP3    H247651   6.348   1.497   3.467 -0.8838  0.4510 -0.2041
 8746TIP3   OH247652   5.119   2.789   0.141  0.2973 -0.2048 -0.1019
 8746TIP3    H147653   5.172   2.721   0.182  0.6317  0.1259  0.0167
 8746TIP3    H247654   5.081   2.837   0.214  1.5837  0.9265 -0.1508
 8747TIP3   OH247655   0.785   2.438  13.843  0.2783 -0.4130  0.2667
 8747TIP3    H147656   0.873   2.460  13.873  0.2243 -0.3079  0.3501
 8747TIP3    H247657   0.732   2.441  13.923  0.0921  0.0721  0.1288
 8748TIP3   OH247658   5.707   1.560  16.945 -0.1471  0.2261  0.0286
 8748TIP3    H147659   5.619   1.522  16.936 -0.3426  0.0583  2.4064
 8748TIP3    H247660   5.692   1.654  16.933 -0.4763  0.0938 -0.6473
 8749TIP3   OH247661   0.980   1.632  16.661 -0.3348  0.4475 -0.4867
 8749TIP3    H147662   0.931   1.581  16.597  1.3262 -0.2470 -1.2377
 8749TIP3    H247663   0.926   1.709  16.677 -1.5142 -0.1462 -1.5236
 8750TIP3   OH247664   4.803   0.630  13.141  0.2803 -0.5460 -0.0086
 8750TIP3    H147665   4.844   0.588  13.216  0.4380  2.0129  1.3970
 8750TIP3    H247666   4.760   0.707  13.177  0.9250  1.1252 -2.6345
 8751TIP3   OH247667   4.862   6.558   0.763 -0.2477 -0.6447 -0.0354
 8751TIP3    H147668   4.788   6.509   0.798 -0.7211  0.6149  0.7581
 8751TIP3    H247669   4.901   6.499   0.699 -0.6011 -2.1750  1.1414
 8752TIP3   OH247670   2.530   4.938  11.201 -0.0979  0.1090 -0.3716
 8752TIP3    H147671   2.463   4.890  11.251 -0.2939  1.3864  0.6055
 8752TIP3    H247672   2.521   4.904  11.112 -1.6738 -0.1514 -0.1434
 8753TIP3   OH247673   5.562   1.569  13.996  0.2927  0.8229  0.2186
 8753TIP3    H147674   5.495   1.517  13.951 -0.2152  1.6100  0.0465
 8753TIP3    H247675   5.571   1.528  14.082  1.2089 -0.6433 -0.5589
 8754TIP3   OH247676   1.557   2.213   3.493 -0.7450  0.1775  0.4171
 8754TIP3    H147677   1.481   2.156   3.494 -0.9770  0.4868  0.4693
 8754TIP3    H247678   1.628   2.161   3.531 -1.1485  0.2022  1.2050
 8755TIP3   OH247679   3.294   6.066  10.939  0.2098 -0.1075 -0.5393
 8755TIP3    H147680   3.332   6.141  10.892 -0.8441  1.7133  1.4050
 8755TIP3    H247681   3.278   6.001  10.871  1.7469  1.1805 -2.1958
 8756TIP3   OH247682   2.357   1.878  12.415  0.2900 -0.2021  0.1328
 8756TIP3    H147683   2.344   1.823  12.338 -1.1265  1.4740 -0.8370
 8756TIP3    H247684   2.271   1.914  12.434  0.2870 -1.7423  3.4263
 8757TIP3   OH247685   6.553   2.995  15.181 -0.2969 -0.3225 -0.4268
 8757TIP3    H147686   6.585   3.075  15.141  2.6233 -1.4723 -0.4725
 8757TIP3    H247687   6.536   2.936  15.107 -0.7747 -0.3555 -0.2931
 8758TIP3   OH247688   4.305   5.517  14.960 -0.0815 -0.0225 -0.0483
 8758TIP3    H147689   4.314   5.593  14.903  0.1677  0.8793  1.1916
 8758TIP3    H247690   4.260   5.550  15.038  0.0999 -1.1164  0.5308
 8759TIP3   OH247691   0.250   1.199   1.831 -0.1199  0.2308  0.4344
 8759TIP3    H147692   0.263   1.238   1.918  0.0759 -1.4951  1.1847
 8759TIP3    H247693   0.205   1.116   1.848  0.5586 -0.4520 -1.0652
 8760TIP3   OH247694   2.436   0.063   4.362 -0.1835  0.7682 -0.0721
 8760TIP3    H147695   2.419   0.156   4.375  3.4422  1.5649 -0.5023
 8760TIP3    H247696   2.489   0.038   4.437 -0.1667 -0.6639 -0.5546
 8761TIP3   OH247697   5.026   3.164  14.273  0.3328  0.5052 -0.2778
 8761TIP3    H147698   5.099   3.153  14.334 -1.6886  2.5817  2.6906
 8761TIP3    H247699   4.954   3.116  14.312 -0.8331  1.3004 -1.3857
 8762TIP3   OH247700   1.030   1.304   1.299 -0.0635 -0.4020  0.1219
 8762TIP3    H147701   1.035   1.260   1.384  0.2469  0.1830  0.4063
 8762TIP3    H247702   0.953   1.360   1.305  0.6517  0.5728  0.4709
 8763TIP3   OH247703   3.572   1.103   4.599  0.4994  0.1280  0.0071
 8763TIP3    H147704   3.646   1.158   4.626 -0.0749  0.5697  0.7011
 8763TIP3    H247705   3.599   1.065   4.515  2.1313 -0.9321  0.9969
 8764TIP3   OH247706   4.912   4.843   2.872  0.0666 -0.4419  0.4993
 8764TIP3    H147707   4.897   4.846   2.777 -2.1607 -1.6330  0.7735
 8764TIP3    H247708   4.851   4.907   2.907  1.2568  0.3713  1.1193
 8765TIP3   OH247709   1.484   4.539  11.148  0.1454 -0.1167  0.3186
 8765TIP3    H147710   1.398   4.507  11.175 -1.1329  2.6116 -0.3390
 8765TIP3    H247711   1.492   4.513  11.056 -0.1630 -0.0186  0.2651
 8766TIP3   OH247712   0.912   1.829   0.820 -0.0597  0.0001  0.1686
 8766TIP3    H147713   0.895   1.738   0.796 -0.9093  0.3973 -0.7979
 8766TIP3    H247714   0.940   1.870   0.739 -1.3456  0.9845  0.2062
 8767TIP3   OH247715   5.588   0.356  12.418 -0.0467  0.2980  0.1525
 8767TIP3    H147716   5.596   0.338  12.324 -0.4154  1.9133 -0.2023
 8767TIP3    H247717   5.497   0.337  12.438 -0.4748  1.8478 -0.2547
 8768TIP3   OH247718   2.802   0.623  11.347  0.5770  0.5411 -0.1542
 8768TIP3    H147719   2.714   0.634  11.309  1.0424  0.4912 -1.2675
 8768TIP3    H247720   2.789   0.632  11.441 -0.7700 -0.3409 -0.2402
 8769TIP3   OH247721   4.215   5.877  14.187 -0.0178  0.0591  0.0876
 8769TIP3    H147722   4.189   5.821  14.114 -0.1241  0.1285  0.0718
 8769TIP3    H247723   4.228   5.964  14.148  0.2084  0.0318  0.1034
 8770TIP3   OH247724   0.272   5.269   0.248 -0.2013 -0.0272  0.0194
 8770TIP3    H147725   0.182   5.281   0.276 -0.6398 -1.5789 -0.6514
 8770TIP3    H247726   0.320   5.249   0.329 -0.7116 -0.5005  0.2072
 8771TIP3   OH247727   6.632   3.677   1.256 -0.5858 -0.1888 -0.2374
 8771TIP3    H147728   6.537   3.680   1.268 -0.3830  1.0866  1.2712
 8771TIP3    H247729   6.645   3.693   1.163 -1.8423 -0.1457 -0.4194
 8772TIP3   OH247730   3.597   0.813  11.846  0.1640  0.5331  0.5342
 8772TIP3    H147731   3.612   0.725  11.812 -0.1975  1.6199 -2.6152
 8772TIP3    H247732   3.506   0.813  11.874  0.9581 -0.8998  3.2618
 8773TIP3   OH247733   2.422   2.738   6.104  0.1561  0.1227 -0.5867
 8773TIP3    H147734   2.413   2.654   6.148 -0.2306  0.2865 -0.3500
 8773TIP3    H247735   2.404   2.803   6.172  0.8832  0.4094 -0.6619
 8774TIP3   OH247736   6.103   4.714  16.627  0.4132  0.2100  0.6498
 8774TIP3    H147737   6.078   4.658  16.701  0.9453  0.2471  0.8663
 8774TIP3    H247738   6.062   4.798  16.645  0.5423  0.2188  0.9108
 8775TIP3   OH247739   5.842   2.325   5.457 -0.3479  0.7255  0.1066
 8775TIP3    H147740   5.789   2.384   5.511  0.6097 -0.5681  2.5555
 8775TIP3    H247741   5.915   2.378   5.427 -0.5895  1.3285  0.5786
 8776TIP3   OH247742   3.967   2.081   1.544 -0.2459 -0.0211  0.5692
 8776TIP3    H147743   3.976   2.037   1.628 -0.5841  0.3588  0.8095
 8776TIP3    H247744   4.047   2.132   1.534 -0.3887  0.2574  0.8525
 8777TIP3   OH247745   0.908   3.401   2.381 -0.3185  0.0609 -0.1131
 8777TIP3    H147746   0.928   3.424   2.290 -1.2574  1.9016  0.1188
 8777TIP3    H247747   0.814   3.384   2.382 -0.6297  1.6350  0.7901
 8778TIP3   OH247748   6.147   3.926   5.108  0.3447  0.3218  0.3516
 8778TIP3    H147749   6.105   4.010   5.089 -0.9058 -0.7677 -1.9708
 8778TIP3    H247750   6.178   3.895   5.023  1.7895 -1.0454  1.3499
 8779TIP3   OH247751   6.614   4.288  12.654  0.2759 -0.0025  0.2823
 8779TIP3    H147752   6.618   4.337  12.737 -0.4704  0.7490 -0.1164
 8779TIP3    H247753   6.670   4.337  12.594  2.2565 -1.5480  0.8339
 8780TIP3   OH247754   3.351   1.430  10.985 -0.7562 -0.2206 -0.3911
 8780TIP3    H147755   3.394   1.394  11.063  0.3493  1.3578 -0.2363
 8780TIP3    H247756   3.412   1.412  10.914 -0.5793  0.5688 -0.4489
 8781TIP3   OH247757   5.569   0.088   2.774  0.7229  0.0078 -0.2512
 8781TIP3    H147758   5.542   0.014   2.829 -0.3413  0.1366 -0.5949
 8781TIP3    H247759   5.664   0.090   2.782  0.7906 -1.5875 -0.4645
 8782TIP3   OH247760   1.636   3.016   6.065 -0.4550 -0.1084 -0.1561
 8782TIP3    H147761   1.567   3.003   6.130 -0.5493  1.2912  0.0550
 8782TIP3    H247762   1.641   2.934   6.017  0.4782 -1.6221  2.4508
 8783TIP3   OH247763   6.557   2.394  14.582  0.3096 -0.3207 -0.4341
 8783TIP3    H147764   6.574   2.451  14.657  2.3478 -0.8662 -0.4587
 8783TIP3    H247765   6.632   2.335  14.579  0.0988 -0.5101 -2.7223
 8784TIP3   OH247766   6.569   5.936  14.699  0.9409 -0.1509  0.0866
 8784TIP3    H147767   6.655   5.938  14.657  0.1021  0.9164 -1.6608
 8784TIP3    H247768   6.553   5.844  14.717  2.0720 -0.4425 -0.3460
 8785TIP3   OH247769   1.109   0.080  15.848 -0.0940 -0.1299  0.0704
 8785TIP3    H147770   1.197   0.055  15.819 -0.2186 -1.0290  0.4457
 8785TIP3    H247771   1.116   0.173  15.868  1.3943 -0.6913  2.3661
 8786TIP3   OH247772   1.631   3.224   1.170 -0.0423 -0.3677 -0.0955
 8786TIP3    H147773   1.552   3.253   1.216  0.0562  0.3177 -0.3671
 8786TIP3    H247774   1.633   3.129   1.185 -1.7908 -0.6341 -1.4518
 8787TIP3   OH247775   2.944   2.614   1.793  0.4641  0.2064  0.1450
 8787TIP3    H147776   2.931   2.565   1.875 -0.3000 -1.9016 -1.1846
 8787TIP3    H247777   2.985   2.551   1.734 -1.8822  0.6799 -2.1019
 8788TIP3   OH247778   0.087   2.430   3.804 -0.6294 -0.0567  0.2184
 8788TIP3    H147779   0.165   2.480   3.827 -1.0327  0.1339  1.2196
 8788TIP3    H247780   0.115   2.371   3.735  0.3484  0.1552  0.4311
 8789TIP3   OH247781   5.741   2.997  16.942  0.2412  0.0762 -0.0883
 8789TIP3    H147782   5.751   2.906  16.916  0.6118 -0.1265  0.7230
 8789TIP3    H247783   5.794   3.005  17.022  0.9119  1.2033 -0.6163
 8790TIP3   OH247784   5.315   6.761  16.530 -0.4314  0.6886 -0.3650
 8790TIP3    H147785   5.368   6.837  16.505 -0.7772  0.8295 -0.6771
 8790TIP3    H247786   5.275   6.787  16.613 -1.3672  1.2614 -0.9816
 8791TIP3   OH247787   0.364   4.719  16.290  0.3010  0.1623 -0.4500
 8791TIP3    H147788   0.383   4.662  16.364 -0.5614  0.4038 -0.0412
 8791TIP3    H247789   0.294   4.674  16.243  0.9442 -0.0649 -1.2115
 8792TIP3   OH247790   1.770   3.195   1.720 -0.8646 -0.0186  0.1810
 8792TIP3    H147791   1.706   3.125   1.709 -1.1615  0.1379  0.8765
 8792TIP3    H247792   1.798   3.217   1.631 -1.7523 -0.1135 -0.1249
 8793TIP3   OH247793   6.309   1.507   6.323 -0.8187 -0.3597  0.2255
 8793TIP3    H147794   6.359   1.572   6.273 -3.0691  0.9380 -0.4449
 8793TIP3    H247795   6.290   1.550   6.406 -0.5714 -0.9439  0.5824
 8794TIP3   OH247796   4.166   6.174   3.647 -0.1594  0.4785 -0.3079
 8794TIP3    H147797   4.197   6.178   3.737  2.1337 -0.2108 -1.0091
 8794TIP3    H247798   4.231   6.224   3.597 -1.0530  0.3318 -1.6551
 8795TIP3   OH247799   4.849   5.790  11.960  0.0469 -0.1034  0.2613
 8795TIP3    H147800   4.850   5.878  11.923 -0.5786  0.7868  2.3197
 8795TIP3    H247801   4.891   5.736  11.893 -0.1166  1.6348 -1.2933
 8796TIP3   OH247802   3.949   5.557   4.794  0.1334  0.0730 -0.3479
 8796TIP3    H147803   3.905   5.609   4.861 -3.0449  0.3023 -2.5053
 8796TIP3    H247804   3.970   5.474   4.837 -4.3290 -0.8668  0.2733
 8797TIP3   OH247805   3.381   1.721  10.628 -0.0981 -0.7535 -0.2373
 8797TIP3    H147806   3.299   1.745  10.585  0.1493  0.6380  0.0425
 8797TIP3    H247807   3.409   1.642  10.583 -1.7737 -1.4416 -0.1108
 8798TIP3   OH247808   6.225   3.123  10.882 -0.1290 -0.3254 -0.0695
 8798TIP3    H147809   6.200   3.215  10.887  2.5100  0.3248  2.2153
 8798TIP3    H247810   6.153   3.077  10.924 -1.6699  0.5978 -1.5972
 8799TIP3   OH247811   5.039   0.374   6.163  0.5266  0.7650  0.2696
 8799TIP3    H147812   5.040   0.455   6.112  0.5577  1.0434  0.7106
 8799TIP3    H247813   4.981   0.316   6.114 -1.6063  1.9617  1.3274
 8800TIP3   OH247814   0.599   3.044  16.984 -0.5183  0.3552  0.2296
 8800TIP3    H147815   0.643   3.127  16.968 -0.3114 -0.1950 -2.2446
 8800TIP3    H247816   0.668   2.978  16.972 -1.9165 -0.5103 -3.5560
 8801TIP3   OH247817   4.693   1.597  13.964 -0.2610 -0.4491  0.1308
 8801TIP3    H147818   4.772   1.575  14.014 -0.3204 -1.4014 -0.1678
 8801TIP3    H247819   4.720   1.667  13.905  0.6590 -1.5154 -0.7287
 8802TIP3   OH247820   3.845   3.064  14.076  0.2537 -0.1336 -0.6292
 8802TIP3    H147821   3.880   3.017  14.000  0.4077  0.4455 -0.9182
 8802TIP3    H247822   3.922   3.101  14.119  0.2831 -1.4842  0.5030
 8803TIP3   OH247823   2.298   6.453   3.803  0.1887 -0.1405  0.0061
 8803TIP3    H147824   2.361   6.525   3.808 -1.4482  1.4143 -1.2246
 8803TIP3    H247825   2.303   6.411   3.889  1.1608  1.4530  0.7486
 8804TIP3   OH247826   6.760   5.675  16.607 -0.5077  0.4305 -0.0675
 8804TIP3    H147827   6.725   5.638  16.525 -1.1316  0.1544  0.3187
 8804TIP3    H247828   6.725   5.618  16.675  1.0625 -0.1042  0.3034
 8805TIP3   OH247829   1.229   0.011   6.593  0.2039  0.0351 -0.6519
 8805TIP3    H147830   1.255   0.101   6.574  2.6178 -0.3362  0.6555
 8805TIP3    H247831   1.139   0.004   6.560  0.3639  2.5870 -1.7281
 8806TIP3   OH247832   0.144   1.107   3.989  0.5469  0.1215 -0.2849
 8806TIP3    H147833   0.221   1.128   3.936  1.4192  0.0566  0.9421
 8806TIP3    H247834   0.179   1.059   4.064 -0.7084 -0.0400  0.2063
 8807TIP3   OH247835   2.581   1.683   3.309 -0.3009  0.1236  0.2649
 8807TIP3    H147836   2.641   1.743   3.264 -0.6599 -0.1876 -0.6397
 8807TIP3    H247837   2.604   1.596   3.277 -2.6025  0.1813 -1.7379
 8808TIP3   OH247838   1.175   2.733  15.989 -0.2129  0.4491 -0.2216
 8808TIP3    H147839   1.250   2.737  15.930  1.0924 -0.8830  1.2913
 8808TIP3    H247840   1.188   2.652  16.039 -2.8573 -0.0010 -0.1789
 8809TIP3   OH247841   3.475   2.452  12.103 -0.0605  0.3545  0.5631
 8809TIP3    H147842   3.426   2.411  12.031  0.0361 -0.7811  1.1439
 8809TIP3    H247843   3.482   2.544  12.077 -1.9846  0.4094  0.1905
 8810TIP3   OH247844   2.365   3.480   2.421 -0.5411  0.3452  0.4666
 8810TIP3    H147845   2.354   3.415   2.491 -1.2705 -0.5956 -0.4971
 8810TIP3    H247846   2.441   3.531   2.447  1.1178 -2.0115  0.4272
 8811TIP3   OH247847   5.179   3.350  14.552  0.7939  0.0695  0.1516
 8811TIP3    H147848   5.143   3.335  14.639  2.6606 -0.7297  0.8137
 8811TIP3    H247849   5.207   3.263  14.522 -1.3941  0.0519 -1.9709
 8812TIP3   OH247850   0.869   2.387   2.772  0.6707 -0.4003 -0.3829
 8812TIP3    H147851   0.859   2.316   2.834  0.9928  1.4976  1.9220
 8812TIP3    H247852   0.922   2.452   2.818 -0.4011  1.7408 -2.0607
 8813TIP3   OH247853   6.689   6.736  14.604 -0.1867  0.2025  0.1678
 8813TIP3    H147854   6.754   6.678  14.644  0.9066 -0.4917 -2.4925
 8813TIP3    H247855   6.622   6.747  14.671 -1.5392 -5.9297  0.1101
 8814TIP3   OH247856   0.244   2.058  12.054  0.1199 -0.6397 -0.7307
 8814TIP3    H147857   0.226   1.966  12.075 -0.4668 -0.5493 -0.8164
 8814TIP3    H247858   0.162   2.090  12.017  0.1357  0.0789 -0.1668
 8815TIP3   OH247859   2.395   1.660   4.951 -0.0917 -0.2547  0.0055
 8815TIP3    H147860   2.369   1.587   4.894 -0.0879 -1.4594  1.5231
 8815TIP3    H247861   2.484   1.637   4.979 -0.3862 -0.0413  1.1076
 8816TIP3   OH247862   6.518   6.359  15.878 -0.1575 -0.3154 -0.1361
 8816TIP3    H147863   6.479   6.393  15.958 -0.8161 -0.2486 -0.4776
 8816TIP3    H247864   6.447   6.362  15.814  0.5192  0.1758 -0.8733
 8817TIP3   OH247865   0.863   2.245   2.543  0.4281 -0.7502 -0.1335
 8817TIP3    H147866   0.946   2.198   2.544  0.8011 -0.0797  0.2907
 8817TIP3    H247867   0.861   2.295   2.625 -0.3669 -0.7211 -0.1591
 8818TIP3   OH247868   6.403   2.672  16.323 -0.1561 -0.3306  0.3737
 8818TIP3    H147869   6.389   2.761  16.355  0.9563 -0.0124 -0.0138
 8818TIP3    H247870   6.391   2.617  16.400 -2.1847  0.0159  0.3536
 8819TIP3   OH247871   6.707   1.332  15.205 -0.0069  0.2866  0.2097
 8819TIP3    H147872   6.785   1.321  15.151  0.2732 -1.1864  0.8974
 8819TIP3    H247873   6.634   1.311  15.147  0.1807  0.5039 -0.1048
 8820TIP3   OH247874   0.566   6.518  13.293 -0.4764 -0.3007  0.5771
 8820TIP3    H147875   0.562   6.471  13.377  0.3675 -1.7965 -0.1975
 8820TIP3    H247876   0.651   6.562  13.294 -0.9048  0.5438  0.9321
 8821TIP3   OH247877   1.190   1.950   6.755  0.1458 -0.0624 -0.2171
 8821TIP3    H147878   1.183   2.040   6.724  1.8609 -0.2572 -1.2117
 8821TIP3    H247879   1.187   1.896   6.676  1.5889 -0.7245  0.1615
 8822TIP3   OH247880   6.616   3.086   0.956  0.7757  0.1360  0.1877
 8822TIP3    H147881   6.584   3.169   0.922  0.5081  0.6083  1.5692
 8822TIP3    H247882   6.568   3.020   0.906 -0.2995  0.8176  0.3002
 8823TIP3   OH247883   0.145   3.594   3.414 -0.7941  0.3473  0.6621
 8823TIP3    H147884   0.166   3.687   3.413 -0.1348  0.2111 -1.9170
 8823TIP3    H247885   0.196   3.558   3.341 -0.6331 -2.1156  1.9559
 8824TIP3   OH247886   1.446   1.764  13.068  0.0658 -0.1063 -0.0603
 8824TIP3    H147887   1.417   1.689  13.120  0.2312 -1.1220 -1.4188
 8824TIP3    H247888   1.380   1.772  12.999  0.0952  0.9525  0.0220
 8825TIP3   OH247889   3.665   6.169  13.529  0.1504 -0.1498 -0.4402
 8825TIP3    H147890   3.614   6.233  13.578 -0.0674 -0.1656 -0.6380
 8825TIP3    H247891   3.729   6.220  13.481  0.5230 -0.1559  0.0502
 8826TIP3   OH247892   5.140   2.099  13.325 -0.6836 -0.7062  0.0604
 8826TIP3    H147893   5.084   2.175  13.307  0.9442  0.2166 -1.3113
 8826TIP3    H247894   5.214   2.135  13.374  1.2487 -0.9349 -2.5600
 8827TIP3   OH247895   0.066   4.072   2.056  0.4323 -0.1133  0.4030
 8827TIP3    H147896   0.045   4.007   2.122  0.9514 -1.4694 -0.7401
 8827TIP3    H247897  -0.014   4.079   2.003  0.2702  0.4223  0.7133
 8828TIP3   OH247898   6.536   0.607   5.129 -0.7497 -0.0529 -0.6434
 8828TIP3    H147899   6.476   0.675   5.099  0.2931  1.1222 -0.1169
 8828TIP3    H247900   6.480   0.544   5.175 -1.4462  1.5613  0.7680
 8829TIP3   OH247901   1.880   4.486   4.207 -0.5471 -0.0171 -0.0782
 8829TIP3    H147902   1.843   4.435   4.280  1.8663 -0.0206  1.2005
 8829TIP3    H247903   1.846   4.444   4.128 -0.9878 -1.7341  1.0049
 8830TIP3   OH247904   0.122   5.083  11.995  0.6563 -0.0287 -0.3915
 8830TIP3    H147905   0.105   5.142  12.068  0.2002 -1.5481  0.7518
 8830TIP3    H247906   0.081   5.126  11.920  0.7313  1.3241  0.3214
 8831TIP3   OH247907   1.744   0.651   2.161  0.5326  0.4721  0.5999
 8831TIP3    H147908   1.819   0.658   2.220  1.3488  0.3363 -0.4124
 8831TIP3    H247909   1.717   0.741   2.145  2.0766  0.6571 -1.0541
 8832TIP3   OH247910   2.732   0.029  12.624 -0.0293  0.0426  0.4806
 8832TIP3    H147911   2.677   0.087  12.676 -0.1408 -0.6728  1.1783
 8832TIP3    H247912   2.809   0.081  12.602 -0.5119  0.7160  0.3898
 8833TIP3   OH247913   5.160   3.840   2.498 -0.4170  0.5269  0.0764
 8833TIP3    H147914   5.099   3.896   2.546 -2.2705 -1.4257  0.0739
 8833TIP3    H247915   5.113   3.757   2.488  3.1445 -1.8542  2.1415
 8834TIP3   OH247916   0.320   6.658   1.872 -0.1231  0.5708 -0.4591
 8834TIP3    H147917   0.240   6.711   1.866 -0.3369  0.3608  0.4328
 8834TIP3    H247918   0.303   6.582   1.817  0.9139  2.3064 -3.3176
 8835TIP3   OH247919   3.884   4.080  12.254 -0.3298 -0.0692 -0.2925
 8835TIP3    H147920   3.975   4.081  12.285 -0.2200 -3.7923 -0.2378
 8835TIP3    H247921   3.892   4.083  12.158 -0.3703  3.5433 -0.2498
 8836TIP3   OH247922   3.850   5.207  13.363 -0.2723  0.0414 -0.1920
 8836TIP3    H147923   3.929   5.195  13.311  0.4693 -0.9376  1.1005
 8836TIP3    H247924   3.839   5.301  13.370  0.2604  0.1761 -1.1568
 8837TIP3   OH247925   2.182   5.594   3.689  0.1885 -0.0735  0.2422
 8837TIP3    H147926   2.269   5.557   3.705  0.7133  1.5370  1.1992
 8837TIP3    H247927   2.198   5.668   3.631 -0.4859  0.5286  0.8200
 8838TIP3   OH247928   3.296   6.440   6.149 -0.9220 -0.2794  0.0708
 8838TIP3    H147929   3.360   6.424   6.079 -0.8279  0.4525 -0.0103
 8838TIP3    H247930   3.307   6.366   6.209 -0.5925 -0.6006 -0.3830
 8839TIP3   OH247931   5.638   4.055  11.791 -0.1893  0.0588  0.4622
 8839TIP3    H147932   5.727   4.056  11.755  0.0769  0.8084  1.1250
 8839TIP3    H247933   5.582   4.082  11.719  0.2416  0.6620  0.3508
 8840TIP3   OH247934   4.501   6.396  14.901 -0.5440 -0.0807 -0.2534
 8840TIP3    H147935   4.553   6.328  14.858 -0.8042  1.0516 -2.4157
 8840TIP3    H247936   4.494   6.366  14.992  1.0028 -1.9472 -0.7015
 8841TIP3   OH247937   0.069   2.515   0.683 -0.8817  0.2171  0.1874
 8841TIP3    H147938   0.116   2.490   0.604 -1.1365  0.6256 -0.0992
 8841TIP3    H247939   0.049   2.432   0.726 -0.8301 -0.0167 -0.2303
 8842TIP3   OH247940   0.891   0.849   3.626  0.2435 -0.6087  0.0801
 8842TIP3    H147941   0.910   0.926   3.572 -1.6488 -1.1452 -1.3942
 8842TIP3    H247942   0.924   0.775   3.575 -1.9970 -1.1679 -0.5958
 8843TIP3   OH247943   2.407   1.948   5.431  0.0511  0.6671 -0.1280
 8843TIP3    H147944   2.323   1.978   5.396 -0.3405 -0.7606 -0.4401
 8843TIP3    H247945   2.429   1.871   5.379  1.5639  1.0269 -0.0427
 8844TIP3   OH247946   3.266   2.941  16.324  0.4707  0.4016  0.1099
 8844TIP3    H147947   3.178   2.959  16.291  0.4525  0.7995  0.3715
 8844TIP3    H247948   3.318   3.016  16.296  0.4168  0.8193  1.1236
 8845TIP3   OH247949   4.384   5.760  13.076  0.1242 -0.3307 -1.2872
 8845TIP3    H147950   4.392   5.666  13.087 -1.8082 -0.2774  0.8114
 8845TIP3    H247951   4.462   5.797  13.119 -0.5422 -0.8432  0.3902
 8846TIP3   OH247952   4.811   2.143  15.785 -0.3598  0.5200 -0.4207
 8846TIP3    H147953   4.755   2.220  15.775  0.8072  1.4702  0.2958
 8846TIP3    H247954   4.839   2.122  15.696 -1.7819  0.0846 -0.7783
 8847TIP3   OH247955   0.289   0.446  13.808 -0.3276 -0.4550  0.2254
 8847TIP3    H147956   0.361   0.508  13.797 -0.2076 -0.5345  0.5640
 8847TIP3    H247957   0.230   0.465  13.735 -0.0117 -0.3270  0.0024
 8848TIP3   OH247958   0.148   3.046   3.412 -0.1616 -0.2326 -0.6696
 8848TIP3    H147959   0.148   3.142   3.412  0.5711 -0.2210 -1.8199
 8848TIP3    H247960   0.207   3.022   3.341  2.9543 -1.5433  2.2006
 8849TIP3   OH247961   6.107   3.963   3.169  0.1728  0.4084  0.2434
 8849TIP3    H147962   6.171   3.918   3.114 -0.2757 -0.1085  0.1482
 8849TIP3    H247963   6.159   3.996   3.243  0.2878 -1.4504  1.0200
 8850TIP3   OH247964   5.606   4.407  15.686  0.2327  0.6188 -0.5943
 8850TIP3    H147965   5.585   4.325  15.731  0.6971  0.8760  0.1034
 8850TIP3    H247966   5.679   4.443  15.735 -0.2917  1.7029 -0.5962
 8851TIP3   OH247967   1.208   3.279   5.267  1.0567 -0.1700  0.4826
 8851TIP3    H147968   1.200   3.363   5.312  1.2618  0.9614 -1.5076
 8851TIP3    H247969   1.122   3.239   5.276  0.1860  1.3776 -0.6219
 8852TIP3   OH247970   6.407   2.211  11.566  0.1163  0.0661 -0.1951
 8852TIP3    H147971   6.422   2.118  11.582 -0.1547  0.1964  0.8582
 8852TIP3    H247972   6.490   2.253  11.591  0.6355  0.0026 -1.7498
 8853TIP3   OH247973   4.312   3.399  15.624  0.5764  0.1210  0.0989
 8853TIP3    H147974   4.330   3.491  15.605 -0.7551  0.1568 -1.0185
 8853TIP3    H247975   4.290   3.361  15.539  1.1415 -1.2396  0.5561
 8854TIP3   OH247976   4.347   3.823  17.185  0.1622 -0.2199  0.3578
 8854TIP3    H147977   4.278   3.757  17.183  0.2413 -0.2862 -0.5239
 8854TIP3    H247978   4.419   3.783  17.137  0.0331  0.6997 -0.6192
 8855TIP3   OH247979   2.420   3.895   4.206 -0.0111  0.3804  0.6556
 8855TIP3    H147980   2.462   3.977   4.232  0.8341  0.6775 -1.5277
 8855TIP3    H247981   2.378   3.916   4.122 -1.5823 -0.8599  1.1036
 8856TIP3   OH247982   3.929   1.703   1.045  0.2821  0.0879 -0.2052
 8856TIP3    H147983   4.012   1.750   1.048 -1.3643  3.2431 -1.6384
 8856TIP3    H247984   3.928   1.661   0.960 -0.3871  1.6876 -1.0140
 8857TIP3   OH247985   4.532   5.213   4.985  0.3432 -0.0536 -0.2911
 8857TIP3    H147986   4.531   5.307   4.968  0.8358  0.0630  0.2747
 8857TIP3    H247987   4.625   5.191   4.989  0.2313 -0.4314  0.2712
 8858TIP3   OH247988   2.005   3.210  13.596 -0.2279  0.4572 -0.3026
 8858TIP3    H147989   2.083   3.191  13.545  1.0944 -0.1311  1.8684
 8858TIP3    H247990   2.024   3.293  13.639 -0.8692  0.4037  0.0908
 8859TIP3   OH247991   2.149   2.315   2.084 -0.1421  0.4437 -0.2319
 8859TIP3    H147992   2.083   2.249   2.100  0.7483 -0.8858 -1.8341
 8859TIP3    H247993   2.134   2.343   1.993  0.4252  1.3398 -0.0584
 8860TIP3   OH247994   5.704   5.004  14.300 -0.1131  0.3196 -0.0461
 8860TIP3    H147995   5.797   4.983  14.309 -0.0925 -0.3125 -1.5572
 8860TIP3    H247996   5.661   4.956  14.370  0.7275  0.7923  0.7906
 8861TIP3   OH247997   4.438   5.852   4.433 -0.2625 -0.0412  0.4245
 8861TIP3    H147998   4.470   5.937   4.462 -2.4942  1.2352 -0.7483
 8861TIP3    H247999   4.399   5.813   4.511  0.5807  0.0622  0.9112
 8862TIP3   OH248000   4.380   0.789   6.292  0.3612 -0.0329 -0.0516
 8862TIP3    H148001   4.443   0.770   6.224  0.2165 -2.0251  0.3316
 8862TIP3    H248002   4.335   0.868   6.263 -0.4092 -1.4226 -2.7771
 8863TIP3   OH248003   4.505   3.289  14.559 -0.4234 -0.5383 -0.0551
 8863TIP3    H148004   4.516   3.368  14.613  0.9373 -0.5337 -0.3140
 8863TIP3    H248005   4.493   3.323  14.470 -1.5632 -0.5812  0.0742
 8864TIP3   OH248006   3.708   1.793  13.627  0.5400 -0.3736 -0.5441
 8864TIP3    H148007   3.793   1.760  13.656  1.3556  0.9442 -1.4145
 8864TIP3    H248008   3.718   1.888  13.626 -1.1212 -0.1814 -0.1317
 8865TIP3   OH248009   1.790   1.937  13.565 -0.4599  0.4227 -0.0235
 8865TIP3    H148010   1.731   1.934  13.640 -0.1626  0.7544  0.2255
 8865TIP3    H248011   1.783   1.850  13.526  0.8599 -0.4449  1.5453
 8866TIP3   OH248012   2.086   5.952  16.474 -0.4876 -0.6372 -0.4801
 8866TIP3    H148013   2.031   6.029  16.459 -1.4533 -1.0036  1.0846
 8866TIP3    H248014   2.086   5.940  16.569  1.6435 -1.1356 -0.5024
 8867TIP3   OH248015   3.037   1.222   2.108  0.5604  0.1806  0.0346
 8867TIP3    H148016   3.050   1.282   2.035  0.6405 -1.6835 -1.5173
 8867TIP3    H248017   2.947   1.239   2.138  0.5290  0.9542 -0.5061
 8868TIP3   OH248018   0.698   6.394   3.835  0.2048 -0.2695 -0.3928
 8868TIP3    H148019   0.640   6.326   3.870  0.6107  0.2710  1.3984
 8868TIP3    H248020   0.770   6.399   3.898  1.1074  0.5648 -1.4624
 8869TIP3   OH248021   3.261   5.828  11.260 -0.0939  0.0405  0.2506
 8869TIP3    H148022   3.170   5.857  11.262 -0.3765 -0.8276  0.4111
 8869TIP3    H248023   3.273   5.778  11.341  0.0819 -1.0963 -0.4513
 8870TIP3   OH248024   6.050   1.126  16.350 -0.2884  0.5243 -0.1505
 8870TIP3    H148025   6.055   1.031  16.350  3.1936  0.5922  2.1315
 8870TIP3    H248026   6.075   1.152  16.261  0.3145 -0.6373 -0.3225
 8871TIP3   OH248027   3.844   3.163   1.996 -0.2818  0.2072  0.1466
 8871TIP3    H148028   3.842   3.186   1.903 -0.6999  0.1709  0.1453
 8871TIP3    H248029   3.801   3.237   2.039 -0.7762 -0.1267  0.2349
 8872TIP3   OH248030   2.167   5.561  13.982  0.3549  0.5385  0.1901
 8872TIP3    H148031   2.204   5.590  13.898  0.2043 -0.6805 -0.3083
 8872TIP3    H248032   2.078   5.597  13.982  0.0972 -0.0784 -0.5237
 8873TIP3   OH248033   4.404   2.796   1.373  0.1276  0.3629  0.4139
 8873TIP3    H148034   4.325   2.765   1.328 -0.6004  1.4431  0.9302
 8873TIP3    H248035   4.464   2.821   1.303  0.0959 -0.6455  0.0152
 8874TIP3   OH248036   3.058   6.344  14.803 -0.3477  0.3271 -1.0485
 8874TIP3    H148037   3.039   6.355  14.710  1.1074 -1.6068 -1.6041
 8874TIP3    H248038   3.017   6.261  14.826  1.7370 -0.6138 -0.6665
 8875TIP3   OH248039   0.447   6.775  15.385  0.1532  0.2159 -0.3083
 8875TIP3    H148040   0.429   6.867  15.407  0.9992  0.4014 -0.3855
 8875TIP3    H248041   0.435   6.770  15.290 -0.6952  0.0520 -0.2038
 8876TIP3   OH248042   1.041   1.009   4.777  0.4953 -0.0867 -0.1933
 8876TIP3    H148043   1.073   1.099   4.779 -1.2932  0.5692 -0.7668
 8876TIP3    H248044   0.966   1.008   4.837  0.5957 -1.2433 -0.0640
 8877TIP3   OH248045   1.607   6.425   0.727 -0.5368 -0.1607 -0.2616
 8877TIP3    H148046   1.574   6.371   0.655  0.0274 -2.5609  1.2089
 8877TIP3    H248047   1.535   6.427   0.790 -0.7921  1.3870 -0.5816
 8878TIP3   OH248048   6.236   4.041  13.036 -0.0778 -1.0939  0.3184
 8878TIP3    H148049   6.272   3.996  12.960  0.1806 -0.3280 -0.0196
 8878TIP3    H248050   6.186   3.973  13.082 -0.2999 -1.5512 -0.5694
 8879TIP3   OH248051   5.968   5.074  15.572 -0.3979  0.5259 -0.3787
 8879TIP3    H148052   5.914   5.141  15.531 -0.8137  0.0977 -0.5358
 8879TIP3    H248053   5.951   4.995  15.521  0.5905  0.4491 -0.6158
 8880TIP3   OH248054   4.622   0.648  12.862  0.4314  0.2104 -0.4389
 8880TIP3    H148055   4.631   0.742  12.843  0.4986  0.1285 -0.8275
 8880TIP3    H248056   4.701   0.609  12.826  0.3589 -0.0073 -0.3618
 8881TIP3   OH248057   3.366   0.605  15.439  0.4017 -0.0309 -0.2876
 8881TIP3    H148058   3.317   0.595  15.357  1.2535  1.3444 -0.9665
 8881TIP3    H248059   3.312   0.662  15.493 -0.3256 -1.2150  0.2610
 8882TIP3   OH248060   1.672   0.351   2.674  0.4366  0.1201  0.0366
 8882TIP3    H148061   1.734   0.420   2.698 -0.2627  1.0617 -0.8546
 8882TIP3    H248062   1.678   0.345   2.579  0.0275 -0.6199  0.0524
 8883TIP3   OH248063   5.064   3.714   5.657  0.4674  0.1847  0.1281
 8883TIP3    H148064   4.996   3.648   5.668 -0.6699  1.4443  0.9998
 8883TIP3    H248065   5.143   3.665   5.633 -0.4875 -1.4032  0.1711
 8884TIP3   OH248066   5.294   1.393  14.152 -0.1393  0.0702 -0.3488
 8884TIP3    H148067   5.343   1.407  14.233  2.1899 -1.9321 -1.3566
 8884TIP3    H248068   5.264   1.480  14.127 -0.2560  0.8170  2.2488
 8885TIP3   OH248069   5.557   2.279  12.130  0.0885 -0.0309  0.6155
 8885TIP3    H148070   5.567   2.368  12.096 -0.8128 -0.2878 -0.3599
 8885TIP3    H248071   5.525   2.229  12.055  0.1914 -1.0842  1.2727
 8886TIP3   OH248072   5.335   1.382  12.148  0.6479 -0.0447  0.1902
 8886TIP3    H148073   5.260   1.332  12.114  1.0617  0.0393 -0.8706
 8886TIP3    H248074   5.322   1.384  12.243 -0.4396 -0.4460  0.0549
 8887TIP3   OH248075   0.287   4.614   3.200  0.7511 -0.5652 -0.0843
 8887TIP3    H148076   0.364   4.650   3.155  1.1966  0.7052  1.6748
 8887TIP3    H248077   0.216   4.674   3.177  0.3655 -1.4848 -1.3387
 8888TIP3   OH248078   5.785   5.281   3.383 -0.1696 -0.2343  0.0278
 8888TIP3    H148079   5.836   5.219   3.436 -0.0260  0.0838  0.2632
 8888TIP3    H248080   5.825   5.276   3.296  1.3832  1.2571  0.6114
 8889TIP3   OH248081   4.996   3.208   3.134  0.5940  0.6520 -0.2544
 8889TIP3    H148082   5.066   3.150   3.162  0.3143  0.2257 -0.4363
 8889TIP3    H248083   4.993   3.197   3.039 -1.4451 -1.3141 -0.0081
 8890TIP3   OH248084   2.636   2.400   0.959  0.8261  0.2571 -0.0272
 8890TIP3    H148085   2.563   2.421   0.901 -0.0411  0.8896  1.2507
 8890TIP3    H248086   2.712   2.397   0.902 -0.1630 -0.1882 -1.3528
 8891TIP3   OH248087   1.535   2.801   2.290  0.0675  0.0358  0.6876
 8891TIP3    H148088   1.499   2.750   2.362  1.9339  1.3570  2.6235
 8891TIP3    H248089   1.496   2.887   2.299  0.3504  0.2259  0.1317
 8892TIP3   OH248090   6.287   4.034   3.757  0.5613  0.1031 -0.2931
 8892TIP3    H148091   6.239   4.092   3.698  1.0494  1.0239  0.1923
 8892TIP3    H248092   6.305   4.088   3.834 -0.4007 -1.2031  0.8686
 8893TIP3   OH248093   3.793   0.287  16.857  0.5489  0.1709 -0.1042
 8893TIP3    H148094   3.770   0.212  16.801 -1.4880  0.1355  0.7304
 8893TIP3    H248095   3.773   0.257  16.946  2.8809  0.5571  0.5836
 8894TIP3   OH248096   4.825   2.502   3.663  0.2170 -0.2422 -0.2895
 8894TIP3    H148097   4.832   2.533   3.572 -0.4555 -0.6272 -0.4762
 8894TIP3    H248098   4.733   2.477   3.672  0.4458 -0.8591  0.2915
 8895TIP3   OH248099   3.338   4.159  15.905  0.2835  0.7402 -0.5758
 8895TIP3    H148100   3.280   4.144  15.831  1.7577 -0.9078 -1.4068
 8895TIP3    H248101   3.411   4.209  15.869  0.5699  0.7248 -0.0257
 8896TIP3   OH248102   4.730   1.156  14.277 -0.9216  0.7920 -0.4354
 8896TIP3    H148103   4.799   1.091  14.293  3.0911  4.3694 -2.2238
 8896TIP3    H248104   4.681   1.121  14.203  1.8325  0.2125 -2.0412
 8897TIP3   OH248105   4.072   2.780   3.068  0.2541 -0.0605 -0.3556
 8897TIP3    H148106   4.064   2.867   3.105 -0.4708 -0.3401  0.1489
 8897TIP3    H248107   4.133   2.790   2.995  2.0824  0.4006  1.2105
 8898TIP3   OH248108   4.160   1.296  15.589 -0.2740 -0.3746 -0.0414
 8898TIP3    H148109   4.104   1.305  15.667 -1.3600 -1.4778 -0.6772
 8898TIP3    H248110   4.117   1.229  15.537  1.8113 -1.4313 -0.4385
 8899TIP3   OH248111   3.616   2.065   1.749  0.3989 -0.2876 -0.7591
 8899TIP3    H148112   3.654   1.978   1.735 -0.5306 -0.7628 -0.3868
 8899TIP3    H248113   3.544   2.070   1.685 -0.6735 -0.4937  0.4073
 8900TIP3   OH248114   6.671   5.170  17.229 -0.1349  0.4060 -0.9414
 8900TIP3    H148115   6.626   5.088  17.248 -1.4325  1.0890 -0.9587
 8900TIP3    H248116   6.672   5.176  17.133  1.8411 -0.5909 -0.9920
 8901TIP3   OH248117   0.416   0.220  16.362  0.1712  0.0182  0.9400
 8901TIP3    H148118   0.394   0.142  16.312  1.1232  1.8083 -2.3961
 8901TIP3    H248119   0.504   0.204  16.395 -0.6659 -1.3896  2.6007
 8902TIP3   OH248120   4.836   3.784   4.946 -0.6069  0.5222  0.0946
 8902TIP3    H148121   4.844   3.820   5.034 -4.6615  1.7326  0.0792
 8902TIP3    H248122   4.784   3.704   4.958  0.0534 -0.0968 -1.0567
 8903TIP3   OH248123   0.316   4.979  14.603 -0.1467 -0.2716 -0.0455
 8903TIP3    H148124   0.343   5.069  14.620  1.3319 -0.2622 -2.1886
 8903TIP3    H248125   0.398   4.929  14.608 -0.7499 -1.2929 -0.2501
 8904TIP3   OH248126   1.694   1.867  17.192  0.4549 -0.1937 -0.1690
 8904TIP3    H148127   1.718   1.827  17.108  0.5599 -1.8968  0.6589
 8904TIP3    H248128   1.601   1.849  17.201  0.8081 -1.6101  0.9054
 8905TIP3   OH248129   5.165   4.621   1.235  0.0266 -0.5536  0.0581
 8905TIP3    H148130   5.208   4.546   1.278 -0.6719 -1.0819 -0.1481
 8905TIP3    H248131   5.111   4.581   1.167  1.6998  0.3345 -1.8316
 8906TIP3   OH248132   1.941   5.622  11.554  0.2067 -0.4025  0.4906
 8906TIP3    H148133   1.947   5.677  11.476 -1.1454  2.7589  2.4764
 8906TIP3    H248134   1.993   5.545  11.534  3.4617  2.2891 -1.9088
 8907TIP3   OH248135   0.304   0.628  13.339 -0.0526  0.0031 -0.6478
 8907TIP3    H148136   0.280   0.676  13.418  0.2442  0.9869 -1.1515
 8907TIP3    H248137   0.383   0.580  13.363 -0.7767 -0.8524  0.0856
 8908TIP3   OH248138   5.883   2.447  12.275 -1.0572 -0.0237 -0.0965
 8908TIP3    H148139   5.832   2.516  12.231 -1.5198 -0.2238  0.1231
 8908TIP3    H248140   5.949   2.422  12.211  0.3602  1.9912  0.5247
 8909TIP3   OH248141   5.948   2.347   5.872 -0.0143  0.1640 -0.3915
 8909TIP3    H148142   5.928   2.274   5.814 -0.6664  0.9526 -1.1665
 8909TIP3    H248143   6.026   2.387   5.834  0.8339 -0.6198  0.5003
 8910TIP3   OH248144   4.984   5.387  16.066  0.1194  0.5351  0.1264
 8910TIP3    H148145   5.044   5.403  16.138  0.5882 -1.6100  0.2655
 8910TIP3    H248146   4.948   5.300  16.084 -0.2273  0.2404 -1.8930
 8911TIP3   OH248147   1.563   3.422  14.396  0.8366 -0.1747  0.1719
 8911TIP3    H148148   1.499   3.421  14.325  0.9054 -0.8306  0.1142
 8911TIP3    H248149   1.648   3.422  14.352  0.8783  0.8510  0.2478
 8912TIP3   OH248150   0.122   2.582   5.426  0.0549  0.5910 -0.2135
 8912TIP3    H148151   0.088   2.604   5.513 -0.7207  1.4419 -0.7194
 8912TIP3    H248152   0.052   2.531   5.385 -0.0527  1.1601 -0.7476
 8913TIP3   OH248153   1.243   2.130   2.855 -0.2056 -0.5007 -0.1652
 8913TIP3    H148154   1.199   2.082   2.785 -2.1960 -0.0025  0.7139
 8913TIP3    H248155   1.287   2.063   2.907  2.9009 -0.7369 -2.9197
 8914TIP3   OH248156   0.197   0.212   2.652 -0.0796  0.1275 -0.5359
 8914TIP3    H148157   0.105   0.214   2.677  0.3867  2.9886  1.0882
 8914TIP3    H248158   0.236   0.146   2.709 -0.2532  2.2092  2.0761
 8915TIP3   OH248159   3.125   6.611   2.198  0.0261  0.1105  0.0494
 8915TIP3    H148160   3.153   6.520   2.192  0.4166  0.1528  1.2112
 8915TIP3    H248161   3.204   6.658   2.224 -0.3659  0.6802  0.2032
 8916TIP3   OH248162   1.978   5.332  13.254  0.3306  0.0220 -0.4352
 8916TIP3    H148163   1.917   5.273  13.208 -1.4462  0.1393  1.7020
 8916TIP3    H248164   1.982   5.297  13.343  1.1505  1.7299  0.2010
 8917TIP3   OH248165   2.786   6.133  14.294 -0.1774  0.2373  0.1648
 8917TIP3    H148166   2.852   6.088  14.240 -0.9193  0.2210 -0.7424
 8917TIP3    H248167   2.823   6.133  14.382  0.2463 -1.3653  0.0098
 8918TIP3   OH248168   5.242   3.475  12.567 -0.7936 -0.2987  0.0859
 8918TIP3    H148169   5.165   3.434  12.606  1.6522 -2.4217  2.9312
 8918TIP3    H248170   5.275   3.409  12.505 -0.2194 -0.1796  0.2619
 8919TIP3   OH248171   2.162   1.423   5.906 -0.1643 -0.2721 -0.0246
 8919TIP3    H148172   2.139   1.331   5.922 -0.2434 -0.3929 -0.7677
 8919TIP3    H248173   2.250   1.433   5.942 -0.4397 -0.4542  0.6956
 8920TIP3   OH248174   2.379   1.758  14.539 -0.1502  0.2497 -0.0593
 8920TIP3    H148175   2.407   1.683  14.591  2.8342  1.5742  0.3675
 8920TIP3    H248176   2.334   1.719  14.463  1.0022 -1.9477  0.3391
 8921TIP3   OH248177   5.063   1.341   3.037 -0.0595 -0.2964 -0.2769
 8921TIP3    H148178   5.142   1.287   3.041  0.5611  0.5662 -0.6148
 8921TIP3    H248179   4.992   1.278   3.028  0.7702 -1.0310 -2.2338
 8922TIP3   OH248180   0.262   2.465   2.753 -0.0771  0.2667  0.0498
 8922TIP3    H148181   0.323   2.425   2.814  0.5639  0.7832 -0.2466
 8922TIP3    H248182   0.311   2.472   2.671  0.1790  2.6073  0.3756
 8923TIP3   OH248183   3.771   0.595   1.533  0.2828  0.3086 -0.1852
 8923TIP3    H148184   3.676   0.581   1.537  0.5917 -2.2885 -0.7556
 8923TIP3    H248185   3.798   0.603   1.624 -0.4406  0.7282 -0.0016
 8924TIP3   OH248186   2.528   2.344  14.817 -0.3104 -0.2292  0.1825
 8924TIP3    H148187   2.453   2.388  14.777 -0.3317  0.4741  0.9829
 8924TIP3    H248188   2.573   2.302  14.743 -1.1179 -0.1050 -0.3865
 8925TIP3   OH248189   3.465   1.195  11.157  0.2713 -0.2245  0.2297
 8925TIP3    H148190   3.449   1.111  11.114 -1.7440  0.3213 -0.1334
 8925TIP3    H248191   3.558   1.214  11.139 -0.2885 -0.4227 -3.1292
 8926TIP3   OH248192   4.977   0.367  12.288  0.2608  0.3802 -0.1525
 8926TIP3    H148193   4.924   0.308  12.341  0.9737  0.4589  0.6676
 8926TIP3    H248194   4.963   0.338  12.197 -1.8710  0.9838 -0.0357
 8927TIP3   OH248195   4.343   3.987   1.199 -0.1371 -0.2301  0.6740
 8927TIP3    H148196   4.349   3.979   1.103 -1.3173  0.6895  0.5048
 8927TIP3    H248197   4.330   4.080   1.214 -0.4460 -0.4366  1.7021
 8928TIP3   OH248198   3.640   1.920  12.909 -0.3788  0.1740  0.6182
 8928TIP3    H148199   3.605   1.984  12.847 -0.8709  0.1130  0.8346
 8928TIP3    H248200   3.563   1.880  12.948 -0.0680  0.1487  1.2068
 8929TIP3   OH248201   1.916   1.802  11.935  0.4138  0.0554 -0.3343
 8929TIP3    H148202   1.864   1.814  11.855  1.0289  2.5192 -0.4264
 8929TIP3    H248203   2.002   1.773  11.904  0.6655  1.0545 -0.5921
 8930TIP3   OH248204   5.518   5.609  10.992 -0.1566  0.2459 -0.2657
 8930TIP3    H148205   5.575   5.630  10.919 -0.2043  1.2422 -0.0214
 8930TIP3    H248206   5.542   5.519  11.016  1.9830  0.9556  0.4325
 8931TIP3   OH248207   6.021   4.885  16.035 -0.4249 -0.5786  0.6506
 8931TIP3    H148208   6.071   4.813  15.998 -1.2190 -0.8418  0.0732
 8931TIP3    H248209   5.930   4.867  16.010 -0.5348  1.0226 -0.1877
 8932TIP3   OH248210   4.475   2.489   4.349  0.0266  0.4282  0.3793
 8932TIP3    H148211   4.471   2.486   4.444 -0.8123 -0.7970  0.3141
 8932TIP3    H248212   4.435   2.407   4.320  0.9918  0.4156 -1.0108
 8933TIP3   OH248213   6.565   0.380  15.704  0.1455 -0.3800 -0.3843
 8933TIP3    H148214   6.547   0.292  15.737 -0.5162 -1.6252 -3.8564
 8933TIP3    H248215   6.660   0.389  15.711  0.2540 -1.5006 -0.2865
 8934TIP3   OH248216   3.457   2.289  14.199  0.0798  0.1079  0.3579
 8934TIP3    H148217   3.552   2.277  14.204  0.0074 -0.1346  1.2880
 8934TIP3    H248218   3.442   2.328  14.113  0.8331 -1.7927 -0.6730
 8935TIP3   OH248219   4.356   0.475  10.663  1.0896 -0.0623 -0.5950
 8935TIP3    H148220   4.316   0.391  10.641 -2.5208  1.5477 -0.6350
 8935TIP3    H248221   4.288   0.521  10.713  2.0502  3.7761 -2.6435
 8936TIP3   OH248222   2.103   5.913  16.753 -0.7974 -0.0063 -0.0015
 8936TIP3    H148223   2.025   5.898  16.807 -1.2861  0.1470 -0.6574
 8936TIP3    H248224   2.139   5.996  16.786 -1.4189  0.3799 -0.2818
 8937TIP3   OH248225   6.499   1.190   1.150  0.1513  0.2821  0.1368
 8937TIP3    H148226   6.443   1.124   1.108 -2.3490  2.8108 -0.5880
 8937TIP3    H248227   6.569   1.205   1.087 -0.1732 -0.4844 -0.4192
 8938TIP3   OH248228   1.470   0.612  14.158 -0.1825  0.2144  0.1384
 8938TIP3    H148229   1.516   0.670  14.098  0.9411 -0.4476  0.3525
 8938TIP3    H248230   1.516   0.621  14.242 -0.7947 -0.0161  0.5097
 8939TIP3   OH248231   5.100   2.541   4.087 -0.2573  0.3905 -0.1115
 8939TIP3    H148232   5.034   2.545   4.018 -0.8582  1.6405  0.5198
 8939TIP3    H248233   5.076   2.465   4.139 -1.1976  0.8402  0.1125
 8940TIP3   OH248234   2.415   5.641   2.066 -0.1400 -0.5370  0.0923
 8940TIP3    H148235   2.499   5.645   2.111 -1.0096  2.4271  1.6015
 8940TIP3    H248236   2.352   5.672   2.131 -1.9110  0.5185 -2.0698
 8941TIP3   OH248237   4.258   2.090  11.646 -0.4966  0.0671  0.0928
 8941TIP3    H148238   4.330   2.046  11.692 -2.0622 -2.5761  0.1205
 8941TIP3    H248239   4.300   2.134  11.572  0.9944 -2.5754 -0.6812
 8942TIP3   OH248240   1.293   5.733  14.809 -0.5774 -0.5372 -0.0560
 8942TIP3    H148241   1.283   5.641  14.785  1.5160 -0.4752 -1.3293
 8942TIP3    H248242   1.261   5.781  14.732 -0.1748 -0.2382 -0.0418
 8943TIP3   OH248243   2.088   1.170   2.111  0.0002 -0.1516 -0.5204
 8943TIP3    H148244   2.125   1.183   2.024 -1.3809 -0.2532 -1.1439
 8943TIP3    H248245   2.047   1.254   2.133 -0.4756 -0.4158 -0.3827
 8944TIP3   OH248246   4.042   2.938  11.502 -0.1402  0.0636  0.1755
 8944TIP3    H148247   4.057   3.029  11.529 -0.2125  0.0634  0.2163
 8944TIP3    H248248   4.111   2.889  11.548 -1.0683 -0.1111  1.4131
 8945TIP3   OH248249   2.080   1.383  13.777  0.3186 -0.3931  0.5484
 8945TIP3    H148250   2.140   1.400  13.704 -0.4445 -4.1441 -1.0379
 8945TIP3    H248251   2.012   1.449  13.768  1.4314  0.6028 -0.7498
 8946TIP3   OH248252   5.383   3.229   5.190  0.6165  0.3887 -0.2206
 8946TIP3    H148253   5.319   3.237   5.261  0.2570 -1.1216 -0.3443
 8946TIP3    H248254   5.434   3.151   5.212  0.2119 -0.3600 -1.8219
 8947TIP3   OH248255   0.750   3.061   4.389  0.2720  0.4095  0.6444
 8947TIP3    H148256   0.789   3.082   4.304 -0.3619  2.1449  0.7733
 8947TIP3    H248257   0.752   2.965   4.393  2.6404  0.3829 -0.2278
 8948TIP3   OH248258   5.243   1.783   1.679 -0.5138  0.2248  0.2410
 8948TIP3    H148259   5.188   1.842   1.628  0.1756  1.0069  0.3882
 8948TIP3    H248260   5.255   1.707   1.622  1.2865  1.6165 -1.3181
 8949TIP3   OH248261   1.379   2.817  12.456 -0.4230 -0.0980 -0.4032
 8949TIP3    H148262   1.425   2.754  12.512  0.8299  0.1577 -1.1344
 8949TIP3    H248263   1.409   2.797  12.367 -1.6637  0.1288 -0.8931
 8950TIP3   OH248264   1.529   1.534  14.806 -0.1508  0.1261 -0.6496
 8950TIP3    H148265   1.461   1.601  14.801 -0.1367  0.3643  1.8339
 8950TIP3    H248266   1.486   1.460  14.850  0.6455 -0.4341 -0.8116
 8951TIP3   OH248267   0.278   2.755  16.450  0.1101  0.1117 -0.9066
 8951TIP3    H148268   0.369   2.741  16.476 -0.1336 -1.5573 -0.8896
 8951TIP3    H248269   0.234   2.672  16.471 -1.4596  0.9675 -0.7229
 8952TIP3   OH248270   0.798   0.606   4.863  0.1367 -0.1919  0.2196
 8952TIP3    H148271   0.868   0.598   4.927  3.9404  1.9890 -3.3641
 8952TIP3    H248272   0.773   0.516   4.842  1.3945 -0.9843  2.0294
 8953TIP3   OH248273   0.577   0.661  12.723  0.0419 -0.1301 -0.0532
 8953TIP3    H148274   0.562   0.586  12.665  3.6926 -1.7212  0.9263
 8953TIP3    H248275   0.607   0.731  12.664  0.5042 -0.6938 -0.4908
 8954TIP3   OH248276   0.126   6.479  15.535 -0.1738 -0.0922 -0.6982
 8954TIP3    H148277   0.117   6.551  15.472  0.9301  1.6671  1.0999
 8954TIP3    H248278   0.062   6.498  15.603  2.0893  0.7993  1.2471
 8955TIP3   OH248279   4.131   0.169  13.059 -0.4163 -0.0099  0.1258
 8955TIP3    H148280   4.118   0.107  12.987  1.6131 -0.0566 -0.2375
 8955TIP3    H248281   4.115   0.119  13.138  1.7610 -1.1640 -0.1434
 8956TIP3   OH248282   4.112   4.195   1.636 -0.5068 -0.3822  0.0421
 8956TIP3    H148283   4.146   4.265   1.693  0.4346  0.2021 -1.1969
 8956TIP3    H248284   4.185   4.176   1.576 -1.2084 -1.5302 -0.4610
 8957TIP3   OH248285   4.713   0.888   2.517 -0.7810 -0.0661  0.4575
 8957TIP3    H148286   4.803   0.855   2.517 -0.5983  0.4329  0.1242
 8957TIP3    H248287   4.673   0.848   2.439  0.1640  2.4466 -1.3711
 8958TIP3   OH248288   1.342   5.540   4.413 -0.0268  0.4655  0.8584
 8958TIP3    H148289   1.260   5.517   4.370  0.7222 -0.7087  0.0291
 8958TIP3    H248290   1.344   5.487   4.493 -0.2964  0.8507  1.1208
 8959TIP3   OH248291   0.312   2.997  15.827  0.0101  0.2231  0.5965
 8959TIP3    H148292   0.274   2.961  15.747 -1.2153  2.6932  0.0359
 8959TIP3    H248293   0.245   2.980  15.894 -0.8394  1.9628  0.2063
 8960TIP3   OH248294   1.687   5.660  12.685 -0.7425 -0.1582 -0.8921
 8960TIP3    H148295   1.721   5.593  12.745  1.9762  1.8969 -0.0793
 8960TIP3    H248296   1.661   5.611  12.607  0.5365 -2.2382 -0.0422
 8961TIP3   OH248297   3.237   1.183   1.688 -0.2997 -0.1460  0.2717
 8961TIP3    H148298   3.195   1.251   1.740 -3.1514 -0.9659 -0.8252
 8961TIP3    H248299   3.273   1.229   1.612 -1.0259  0.3366  0.2160
 8962TIP3   OH248300   1.771   0.246  12.578  0.1280 -0.3174 -0.6733
 8962TIP3    H148301   1.785   0.338  12.556  1.3015 -1.0576 -3.2159
 8962TIP3    H248302   1.683   0.243  12.616  0.8495  2.1389  1.2568
 8963TIP3   OH248303   3.550   2.714  15.483 -0.2859 -0.2844 -0.5114
 8963TIP3    H148304   3.563   2.809  15.478 -0.1640 -0.3686 -1.9149
 8963TIP3    H248305   3.530   2.698  15.575 -0.7251  1.1613 -0.3396
 8964TIP3   OH248306   6.426   5.080   5.010  0.3948  0.0884 -0.1399
 8964TIP3    H148307   6.381   4.997   4.994 -0.5695  0.4027  0.8700
 8964TIP3    H248308   6.360   5.147   4.992  0.7365  0.5915  0.4317
 8965TIP3   OH248309   0.658   5.302  12.101 -0.2528 -0.6069 -0.3441
 8965TIP3    H148310   0.746   5.298  12.139 -0.1556  0.7075 -0.4263
 8965TIP3    H248311   0.614   5.225  12.138  0.5918 -0.6933  0.5337
 8966TIP3   OH248312   4.349   2.255  15.297  0.3155 -0.2894 -0.2993
 8966TIP3    H148313   4.373   2.194  15.367  0.8874  0.0107 -0.2304
 8966TIP3    H248314   4.334   2.199  15.221  0.5861 -0.5384 -0.1710
 8967TIP3   OH248315   0.751   6.477   2.414 -0.4375 -0.0064  0.2362
 8967TIP3    H148316   0.709   6.561   2.395  1.0381  0.6410 -0.2050
 8967TIP3    H248317   0.690   6.434   2.474 -2.7225  0.0278 -1.9806
 8968TIP3   OH248318   1.230   4.221  14.002 -0.1417  0.1309 -0.0904
 8968TIP3    H148319   1.245   4.313  14.023 -2.0311  0.3204  0.5114
 8968TIP3    H248320   1.287   4.172  14.062  1.9697  0.9223 -1.4090
 8969TIP3   OH248321   0.082   1.514   2.020 -0.0671 -0.6483 -0.1468
 8969TIP3    H148322   0.104   1.426   2.050  0.4163 -0.3473  0.3732
 8969TIP3    H248323   0.166   1.557   2.005 -0.2753  0.2941  1.2441
 8970TIP3   OH248324   1.891   6.390   6.173  0.2231  0.0507  0.0986
 8970TIP3    H148325   1.859   6.330   6.105  1.8666  1.4990 -2.0013
 8970TIP3    H248326   1.870   6.345   6.256 -2.1283 -1.5922 -1.3112
 8971TIP3   OH248327   5.803   4.248  16.885 -0.1540 -0.0046  0.2049
 8971TIP3    H148328   5.864   4.279  16.951  1.1287 -1.8669 -0.0573
 8971TIP3    H248329   5.830   4.157  16.868 -1.1276  0.0942 -2.0699
 8972TIP3   OH248330   3.063   1.764   3.664 -0.0985  0.2614 -0.0252
 8972TIP3    H148331   3.068   1.720   3.749  1.9604 -0.6857 -0.5923
 8972TIP3    H248332   3.115   1.843   3.675  1.7186 -0.7668 -0.8795
 8973TIP3   OH248333   5.396   6.458  16.662  0.6226 -0.3991  0.6650
 8973TIP3    H148334   5.360   6.427  16.579 -0.4348  0.7329  0.6930
 8973TIP3    H248335   5.371   6.391  16.726  1.1456 -1.1001  0.1433
 8974TIP3   OH248336   2.890   0.280  10.965 -0.3567 -0.5464  0.2672
 8974TIP3    H148337   2.934   0.271  10.880 -0.9563 -0.1391 -0.0915
 8974TIP3    H248338   2.955   0.322  11.021 -0.0976 -0.4491 -0.0996
 8975TIP3   OH248339   3.852   5.780  13.158  0.1146  0.1451  0.2663
 8975TIP3    H148340   3.802   5.750  13.082  0.6110 -1.6038  0.6166
 8975TIP3    H248341   3.804   5.858  13.188 -1.9040 -0.9859  0.0675
 8976TIP3   OH248342   4.854   0.043   0.327 -1.1495  0.0517 -0.0939
 8976TIP3    H148343   4.877  -0.047   0.309  1.7963  0.3092  2.0340
 8976TIP3    H248344   4.797   0.038   0.405  0.3037  0.0929  0.9950
 8977TIP3   OH248345   3.822   5.668   1.785  0.0580  0.0051  0.5498
 8977TIP3    H148346   3.789   5.645   1.872 -1.4712 -1.9412 -0.5202
 8977TIP3    H248347   3.747   5.657   1.727  1.4653 -0.2787 -1.2654
 8978TIP3   OH248348   5.614   5.418  11.355  0.3480  0.1375 -0.0685
 8978TIP3    H148349   5.635   5.404  11.262  1.0267 -0.1639  0.1254
 8978TIP3    H248350   5.519   5.411  11.359  0.4317 -1.4248 -0.4917
 8979TIP3   OH248351   4.415   4.481   1.507 -0.8108  0.1816 -0.7962
 8979TIP3    H148352   4.471   4.558   1.494  0.2983 -0.4526  0.1195
 8979TIP3    H248353   4.401   4.477   1.601 -0.9886 -0.6504 -0.8502
 8980TIP3   OH248354   5.853   2.633  14.914 -0.3009  0.4415 -0.6092
 8980TIP3    H148355   5.811   2.637  14.828 -2.1114  2.3178  0.3290
 8980TIP3    H248356   5.926   2.695  14.909 -1.5824  1.9864 -0.1765
 8981TIP3   OH248357   6.654   6.113   0.229 -0.2637 -0.0188 -0.0990
 8981TIP3    H148358   6.563   6.130   0.205 -0.9259 -0.1011  2.2930
 8981TIP3    H248359   6.685   6.196   0.265  0.4969 -0.1082 -0.5480
 8982TIP3   OH248360   4.731   4.768   0.510 -0.1102 -0.6994  0.9469
 8982TIP3    H148361   4.694   4.688   0.472 -0.4818  0.1124 -0.4246
 8982TIP3    H248362   4.654   4.820   0.533  0.1422 -0.5573  1.4708
 8983TIP3   OH248363   0.876   5.515   2.124  0.4655  0.6811  0.1141
 8983TIP3    H148364   0.787   5.546   2.108  0.8956  1.4521 -0.8488
 8983TIP3    H248365   0.918   5.515   2.038  0.5379 -2.5199  0.0785
 8984TIP3   OH248366   1.356   6.227  11.745 -0.6787  0.2702 -0.4738
 8984TIP3    H148367   1.411   6.188  11.814 -0.6765  0.0900 -0.5774
 8984TIP3    H248368   1.358   6.321  11.763 -0.0808  0.2948 -0.6631
 8985TIP3   OH248369   2.451   2.827   2.991  0.3077  0.1520 -0.3524
 8985TIP3    H148370   2.495   2.910   3.010  2.0749 -0.2973 -2.2623
 8985TIP3    H248371   2.362   2.852   2.968  0.5855  1.4398 -0.0863
 8986TIP3   OH248372   5.498   0.420  10.873  0.2096  0.3235  0.1213
 8986TIP3    H148373   5.491   0.486  10.804 -0.6450 -0.7942 -0.8922
 8986TIP3    H248374   5.579   0.373  10.853  0.6655  0.8707  0.6704
 8987TIP3   OH248375   2.970   2.567   3.546  0.1942  0.2904  0.8080
 8987TIP3    H148376   3.003   2.651   3.577 -1.5798  1.0586  0.6888
 8987TIP3    H248377   2.936   2.586   3.458  0.0549 -0.6197  0.6598
 8988TIP3   OH248378   3.430   0.746  11.371 -0.5843 -0.2191  0.3459
 8988TIP3    H148379   3.457   0.759  11.280 -1.2574  2.2733  0.4700
 8988TIP3    H248380   3.350   0.693  11.365 -2.2017  2.2877 -0.7071
 8989TIP3   OH248381   0.427   0.639  12.950  0.1259  0.1029 -0.0234
 8989TIP3    H148382   0.477   0.638  12.869  0.7953 -0.4889  0.3969
 8989TIP3    H248383   0.369   0.715  12.941  0.7732  0.5202 -0.6999
 8990TIP3   OH248384   1.733   5.839   4.773  0.0093  0.2403 -0.3184
 8990TIP3    H148385   1.812   5.812   4.819 -1.3783 -2.7297  0.4353
 8990TIP3    H248386   1.738   5.794   4.688  0.7355  2.7694 -1.7023
 8991TIP3   OH248387   1.625   3.806  13.659 -0.1149  0.2359  0.7260
 8991TIP3    H148388   1.624   3.803  13.755  1.0968  0.6779  0.7715
 8991TIP3    H248389   1.575   3.885  13.637 -0.0293  0.3706  1.0132
 8992TIP3   OH248390   4.504   5.364  13.584 -0.1146  0.0142  0.0380
 8992TIP3    H148391   4.537   5.445  13.624 -1.7034  0.1775  1.0273
 8992TIP3    H248392   4.534   5.294  13.643 -0.9351  0.1001  0.5536
 8993TIP3   OH248393   4.889   3.445  12.444  0.2752 -0.0481 -0.2881
 8993TIP3    H148394   4.973   3.455  12.400 -1.4021  1.7144 -3.1973
 8993TIP3    H248395   4.846   3.373  12.398 -0.2179 -0.3191  0.5735
 8994TIP3   OH248396   1.484   1.798   5.065  0.2610 -1.2669 -0.2339
 8994TIP3    H148397   1.446   1.729   5.118  0.3796 -0.9803  0.2294
 8994TIP3    H248398   1.434   1.876   5.087 -1.0970 -1.5790 -2.1444
 8995TIP3   OH248399   0.202   1.025  13.466  0.2620 -0.5242  0.0944
 8995TIP3    H148400   0.153   1.108  13.464 -2.2695 -2.0114 -1.9921
 8995TIP3    H248401   0.134   0.958  13.472  2.2212 -2.5337  0.1775
 8996TIP3   OH248402   4.648   2.352   2.307 -0.9416 -0.1450  0.2202
 8996TIP3    H148403   4.636   2.405   2.229  2.5107  0.0152 -0.3030
 8996TIP3    H248404   4.641   2.414   2.380 -0.7169  0.3443 -0.1717
 8997TIP3   OH248405   0.681   0.194  14.235 -0.2589  0.1917 -0.5733
 8997TIP3    H148406   0.759   0.157  14.192  0.5235 -1.7484  2.4151
 8997TIP3    H248407   0.608   0.152  14.190  0.4223  0.5531 -2.0883
 8998TIP3   OH248408   5.584   2.126   1.184  0.4707 -0.2362 -0.2947
 8998TIP3    H148409   5.543   2.063   1.125 -0.4756  0.9932 -0.9903
 8998TIP3    H248410   5.516   2.192   1.200  0.3127 -1.1400  3.1508
 8999TIP3   OH248411   0.629   2.526   5.154 -0.2410  0.3438  0.5155
 8999TIP3    H148412   0.717   2.511   5.187  0.9977  3.0123 -1.4433
 8999TIP3    H248413   0.623   2.621   5.142 -1.4694 -0.2263 -4.4967
 9000TIP3   OH248414   3.607   6.184   3.720  0.2846  0.0992 -0.1745
 9000TIP3    H148415   3.585   6.227   3.803  2.4779  2.0848 -0.5492
 9000TIP3    H248416   3.601   6.090   3.739  0.6418  0.5308  2.2291
 9001TIP3   OH248417   0.859   4.480   5.805  0.6419  0.0410 -0.0885
 9001TIP3    H148418   0.912   4.542   5.755  0.4863 -0.8721 -1.4027
 9001TIP3    H248419   0.777   4.528   5.823  0.4565  0.1763 -1.2309
 9002TIP3   OH248420   1.349   6.686   0.895 -0.0472 -0.0155  0.3651
 9002TIP3    H148421   1.406   6.755   0.860 -0.1629 -0.1352 -0.0645
 9002TIP3    H248422   1.268   6.732   0.918 -0.8337 -0.2985 -1.6957
 9003TIP3   OH248423   0.308   5.764   5.613 -0.0056  0.5687  0.3694
 9003TIP3    H148424   0.234   5.790   5.558 -0.7823 -0.7811  0.7446
 9003TIP3    H248425   0.277   5.777   5.703  0.0336 -0.4424  0.5392
 9004TIP3   OH248426   2.198   4.337  16.145 -0.0923 -0.2315 -0.4815
 9004TIP3    H148427   2.282   4.372  16.117  1.6541 -4.0164 -0.2236
 9004TIP3    H248428   2.135   4.405  16.121  2.8376  2.0966 -1.9159
 9005TIP3   OH248429   2.844   3.324   2.714 -0.4591 -0.5334  0.1735
 9005TIP3    H148430   2.791   3.360   2.642  0.0644  3.0151  1.4828
 9005TIP3    H248431   2.928   3.304   2.674 -1.4995 -2.6531 -1.0833
 9006TIP3   OH248432   2.124   4.817   4.083 -0.1298  0.1747  0.2635
 9006TIP3    H148433   2.184   4.854   4.019  0.4310  0.2485  0.8252
 9006TIP3    H248434   2.100   4.890   4.139 -0.4684  0.0708  0.2573
 9007TIP3   OH248435   0.271   1.801   5.725  0.0505  0.5848 -0.1262
 9007TIP3    H148436   0.220   1.755   5.659  1.3188  0.6122 -1.1511
 9007TIP3    H248437   0.243   1.762   5.808 -2.4939  1.4530 -0.5508
 9008TIP3   OH248438   6.025   3.693  16.821 -0.0317 -0.7641 -0.4840
 9008TIP3    H148439   5.986   3.692  16.908 -0.3284  0.5168 -0.5767
 9008TIP3    H248440   6.105   3.745  16.831  0.1537 -0.9697 -0.8747
 9009TIP3   OH248441   2.752   0.639  16.348 -0.3847 -0.1737  0.3380
 9009TIP3    H148442   2.700   0.690  16.286 -1.7934 -1.9154  0.0518
 9009TIP3    H248443   2.701   0.640  16.429 -0.3351 -0.9830  0.3840
 9010TIP3   OH248444   3.971   4.077  11.988 -0.5075 -0.3139 -0.5299
 9010TIP3    H148445   4.055   4.078  11.942 -1.1197 -0.3421 -1.6725
 9010TIP3    H248446   3.913   4.027  11.930 -1.7723  1.1670 -0.5649
 9011TIP3   OH248447   0.094   4.282   0.174 -0.2597 -0.1150 -0.1307
 9011TIP3    H148448   0.143   4.200   0.181  1.4094  0.6495 -2.3467
 9011TIP3    H248449   0.121   4.319   0.090  0.0280  3.3476  1.3927
 9012TIP3   OH248450   1.152   0.129  16.653  0.2034  0.5998  0.3165
 9012TIP3    H148451   1.178   0.065  16.586  2.1639  0.5798  1.0856
 9012TIP3    H248452   1.056   0.127  16.650  0.2400 -0.2451 -1.6908
 9013TIP3   OH248453   1.244   2.630  14.392  0.0379  0.3872  0.3327
 9013TIP3    H148454   1.177   2.669  14.448 -0.4465  0.2349 -0.1293
 9013TIP3    H248455   1.199   2.557  14.349  0.4404  0.4205 -0.1445
 9014TIP3   OH248456   0.950   5.503   0.800  0.0907  0.3074 -0.4514
 9014TIP3    H148457   0.887   5.566   0.766  2.0248  1.1690 -2.5468
 9014TIP3    H248458   0.946   5.429   0.739  0.7223  0.1422 -0.2974
 9015TIP3   OH248459   1.417   5.244   0.733  0.5484  0.2079 -0.4477
 9015TIP3    H148460   1.465   5.235   0.651 -0.3707 -0.2006 -0.9475
 9015TIP3    H248461   1.385   5.334   0.733  0.3745  0.1444 -0.6255
 9016TIP3   OH248462   2.917   2.886   1.813 -0.2199  0.7405 -0.7403
 9016TIP3    H148463   2.922   2.791   1.805 -2.2786  0.6682 -1.5451
 9016TIP3    H248464   2.971   2.907   1.889 -0.3155 -1.1466 -0.1325
 9017TIP3   OH248465   4.611   4.107   1.845 -0.5789 -0.2536  0.5900
 9017TIP3    H148466   4.581   4.190   1.884 -0.4801  0.0698 -0.0165
 9017TIP3    H248467   4.690   4.131   1.796  0.9721 -1.1843  2.5636
 9018TIP3   OH248468   2.811   0.241  16.075 -0.4289 -0.0515 -0.1746
 9018TIP3    H148469   2.749   0.200  16.135  2.4055 -1.2048  2.0633
 9018TIP3    H248470   2.865   0.169  16.043  0.5714  1.0978 -1.1272
 9019TIP3   OH248471   3.657   2.251  13.365  0.1496 -0.1111 -0.4395
 9019TIP3    H148472   3.741   2.292  13.387  0.1533  0.1159 -0.8775
 9019TIP3    H248473   3.656   2.247  13.269 -0.2118 -0.3849 -0.4261
 9020TIP3   OH248474   3.124   5.135   4.222  0.5499 -0.1675 -0.2061
 9020TIP3    H148475   3.088   5.047   4.218  0.2579  0.0004 -1.7825
 9020TIP3    H248476   3.203   5.131   4.167  1.5933  0.0823  1.2400
 9021TIP3   OH248477   3.720   1.832   0.770 -0.1132  0.1613 -0.1280
 9021TIP3    H148478   3.710   1.836   0.865 -0.1465 -0.4659 -0.1004
 9021TIP3    H248479   3.630   1.826   0.737 -0.0599 -0.9741 -0.1185
 9022TIP3   OH248480   4.415   4.518   4.743  0.9174  0.1301 -0.1059
 9022TIP3    H148481   4.342   4.467   4.778  1.5549  0.8082  2.2529
 9022TIP3    H248482   4.480   4.452   4.720  0.2569 -0.3603 -0.6117
 9023TIP3   OH248483   2.232   5.168  11.200  0.2047 -0.0398 -0.2712
 9023TIP3    H148484   2.264   5.187  11.112  1.1886  1.5125  0.4088
 9023TIP3    H248485   2.144   5.131  11.186  0.5892 -0.3657 -1.9125
 9024TIP3   OH248486   4.914   1.160   3.534  0.0524 -0.2233 -0.1712
 9024TIP3    H148487   4.831   1.203   3.556 -0.7737 -0.7314 -2.2141
 9024TIP3    H248488   4.980   1.229   3.540 -1.0344  1.0013 -1.9320
 9025TIP3   OH248489   6.190   2.917   3.168 -0.3433 -0.9494 -0.8712
 9025TIP3    H148490   6.194   2.900   3.074  2.4994  0.3073 -1.0289
 9025TIP3    H248491   6.279   2.939   3.192 -1.3425  0.3815  1.8170
 9026TIP3   OH248492   2.381   4.889   3.115  0.0808 -0.2510 -0.5114
 9026TIP3    H148493   2.439   4.966   3.115  1.0835 -0.9967 -1.6264
 9026TIP3    H248494   2.297   4.922   3.148  0.8427  1.0631  0.1487
 9027TIP3   OH248495   2.446   4.136   4.776  0.1759  0.0575  0.8607
 9027TIP3    H148496   2.484   4.117   4.690 -0.6836 -1.3059  0.7570
 9027TIP3    H248497   2.408   4.223   4.766 -0.6811 -0.4377 -0.4365
 9028TIP3   OH248498   6.556   0.018  14.050  0.0823 -0.3312 -0.4356
 9028TIP3    H148499   6.508   0.028  13.968  0.1521  1.5814 -0.2757
 9028TIP3    H248500   6.647   0.009  14.023 -0.2491 -3.2711 -0.7060
 9029TIP3   OH248501   5.469   6.728  14.735  0.1559 -0.0671  0.0095
 9029TIP3    H148502   5.559   6.733  14.705  0.7663 -0.5573  1.6842
 9029TIP3    H248503   5.476   6.719  14.830 -1.6200 -1.2658  0.0562
 9030TIP3   OH248504   0.788   5.738   3.321  0.0064 -0.0723  0.5287
 9030TIP3    H148505   0.718   5.737   3.386  0.7139 -0.4281  1.3004
 9030TIP3    H248506   0.853   5.798   3.357  0.2005  0.0767 -0.0661
 9031TIP3   OH248507   5.310   3.743  15.511  0.0153  0.8310 -0.0887
 9031TIP3    H148508   5.281   3.812  15.451 -1.2363  0.7849  0.4356
 9031TIP3    H248509   5.233   3.686  15.520  1.4688 -1.4493 -1.6279
 9032TIP3   OH248510   1.040   5.821   3.980 -0.1129 -0.1829  0.2520
 9032TIP3    H148511   0.970   5.856   3.925 -1.5806 -1.9819  0.9243
 9032TIP3    H248512   1.004   5.823   4.068  1.5701  1.0324  0.9289
 9033TIP3   OH248513   3.493   3.790  12.079 -0.2035 -0.0926  0.2075
 9033TIP3    H148514   3.464   3.822  11.994 -0.4910 -1.9549 -0.4260
 9033TIP3    H248515   3.540   3.709  12.059 -2.4364 -1.8989  2.0010
 9034TIP3   OH248516   5.692   4.688  16.840  0.5628  0.1876  0.0334
 9034TIP3    H148517   5.723   4.710  16.928  1.7395 -1.1793 -0.0338
 9034TIP3    H248518   5.627   4.619  16.855 -1.2364  1.8406  0.0294
 9035TIP3   OH248519   0.919   0.623   3.135 -0.2965  0.1527 -0.2340
 9035TIP3    H148520   0.879   0.673   3.064  1.0048  0.9535 -0.4335
 9035TIP3    H248521   0.981   0.565   3.091 -1.0873 -0.9265  0.0782
 9036TIP3   OH248522   2.660   6.647  16.043  0.1200 -0.0126 -0.3636
 9036TIP3    H148523   2.647   6.735  16.079  0.5534  0.1150 -0.5125
 9036TIP3    H248524   2.732   6.611  16.096  1.0141  0.3150 -1.3415
 9037TIP3   OH248525   2.751   0.312   0.193 -0.6315 -0.3956  0.2665
 9037TIP3    H148526   2.763   0.226   0.234 -0.8548 -0.9880 -0.8899
 9037TIP3    H248527   2.840   0.343   0.176 -0.5443 -0.2194  1.0650
 9038TIP3   OH248528   3.036   1.033   5.520 -0.1875  0.0814 -0.4501
 9038TIP3    H148529   3.029   0.973   5.446 -1.6271  0.7992 -0.9198
 9038TIP3    H248530   3.029   1.120   5.481 -1.6078  0.4507  0.5776
 9039TIP3   OH248531   5.464   4.970  10.254 -0.1099 -0.4429  0.4833
 9039TIP3    H148532   5.373   4.998  10.261 -0.1867 -0.3735 -0.6741
 9039TIP3    H248533   5.460   4.874  10.258 -0.2910 -0.4618 -0.0953
 9040TIP3   OH248534   1.067   3.257   6.049 -0.5464  0.9749 -0.1267
 9040TIP3    H148535   0.991   3.286   5.999  0.3263  1.9778 -0.8853
 9040TIP3    H248536   1.072   3.163   6.032 -1.1043  1.0607 -0.7701
 9041TIP3   OH248537   2.287   6.373   4.081 -0.3934  0.3031 -0.4878
 9041TIP3    H148538   2.343   6.451   4.078 -0.8896  0.5893 -3.1079
 9041TIP3    H248539   2.232   6.387   4.158 -0.1174  2.2987 -0.6160
 9042TIP3   OH248540   1.527   5.609  11.412  0.3019 -0.2294  0.4549
 9042TIP3    H148541   1.503   5.700  11.394 -0.7543  0.0483  3.1004
 9042TIP3    H248542   1.587   5.615  11.486 -1.3323 -1.8138  1.9397
 9043TIP3   OH248543   5.559   2.254   0.710 -0.2520  0.1648 -0.3381
 9043TIP3    H148544   5.512   2.172   0.697  0.2417 -0.2388  0.3737
 9043TIP3    H248545   5.646   2.227   0.740  0.5359  0.8749 -1.8897
 9044TIP3   OH248546   5.940   3.905   2.435 -0.1033  0.0805  0.5664
 9044TIP3    H148547   6.005   3.925   2.502 -1.0787  0.5789  1.3870
 9044TIP3    H248548   5.888   3.986   2.428 -2.0670 -1.0470  1.5839
 9045TIP3   OH248549   4.026   3.656   0.797 -0.3167  0.0769 -0.3750
 9045TIP3    H148550   4.016   3.584   0.735 -1.1262 -0.9709  0.9507
 9045TIP3    H248551   4.120   3.660   0.814 -0.3069 -0.9007 -0.1822
 9046TIP3   OH248552   2.669   2.360  14.317  0.5139 -0.1709  0.0037
 9046TIP3    H148553   2.742   2.386  14.262  0.6646 -0.3592  0.1135
 9046TIP3    H248554   2.658   2.431  14.380  1.6116 -0.8505  0.9827
 9047TIP3   OH248555   5.041   6.117   2.392 -0.4942 -0.4781 -0.5534
 9047TIP3    H148556   5.024   6.040   2.337 -1.5341  0.4313 -1.5160
 9047TIP3    H248557   4.999   6.189   2.346  0.9806  0.7919  0.0325
 9048TIP3   OH248558   3.685   6.139   0.172  0.1089  0.3273  0.3287
 9048TIP3    H148559   3.660   6.231   0.163 -0.1064  0.2037 -0.3851
 9048TIP3    H248560   3.750   6.125   0.104  0.3020 -0.0007  0.5778
 9049TIP3   OH248561   1.391   2.826  11.951 -0.4408 -0.1645  0.2278
 9049TIP3    H148562   1.343   2.852  11.872 -1.1989 -0.7345  0.4864
 9049TIP3    H248563   1.336   2.757  11.990  1.0395 -1.4660  0.0488
 9050TIP3   OH248564   3.911   5.957   5.607 -0.4521  0.5394 -0.6657
 9050TIP3    H148565   3.827   5.943   5.563  0.2961  1.8058 -2.5554
 9050TIP3    H248566   3.966   5.886   5.574 -0.4248  0.4081 -0.3396
 9051TIP3   OH248567   3.918   2.409   3.165 -0.0072  0.0419 -0.5057
 9051TIP3    H148568   3.823   2.420   3.171 -0.4324 -3.7788  1.5557
 9051TIP3    H248569   3.953   2.476   3.224 -1.5430  0.0856  0.4002
 9052TIP3   OH248570   0.198   2.422  16.242 -0.2046  0.0441 -0.5650
 9052TIP3    H148571   0.227   2.439  16.331  0.8071  0.7971 -1.0383
 9052TIP3    H248572   0.102   2.423  16.247 -0.1479 -0.0358  0.5274
 9053TIP3   OH248573   5.882   1.096   1.156  0.0671 -0.1421  0.2703
 9053TIP3    H148574   5.906   1.184   1.187  1.2639 -0.1609 -0.5679
 9053TIP3    H248575   5.788   1.089   1.175  0.1932  0.8918  1.3537
 9054TIP3   OH248576   4.096   6.358  16.198 -0.2521  0.1495  0.0223
 9054TIP3    H148577   4.103   6.431  16.259 -0.5336  0.3258 -0.1517
 9054TIP3    H248578   4.116   6.397  16.112  0.7816 -0.2332  0.0870
 9055TIP3   OH248579   1.394   0.009  14.099 -0.5511 -0.2021 -0.0897
 9055TIP3    H148580   1.342   0.033  14.023  1.5166  0.1903 -1.4253
 9055TIP3    H248581   1.454   0.082  14.112 -0.1913 -0.7222  1.2820
 9056TIP3   OH248582   5.049   5.057   6.281  0.0917 -0.2104  0.1698
 9056TIP3    H148583   4.983   4.994   6.310 -1.7099  1.3242 -0.4732
 9056TIP3    H248584   5.129   5.030   6.325 -0.5374 -3.1630 -0.4129
 9057TIP3   OH248585   5.163   2.645  12.864  0.0519 -0.3408  0.5362
 9057TIP3    H148586   5.182   2.551  12.864 -0.8588 -0.5255  0.3088
 9057TIP3    H248587   5.146   2.666  12.772 -1.1575 -0.2394  0.7833
 9058TIP3   OH248588   3.741   6.473  14.829 -0.5186 -0.3361  0.0307
 9058TIP3    H148589   3.702   6.500  14.746  2.5046 -1.7056 -1.9350
 9058TIP3    H248590   3.730   6.378  14.832  1.3802 -0.5806  0.0812
 9059TIP3   OH248591   4.903   6.510   3.478  0.4664 -0.0403  0.5961
 9059TIP3    H148592   4.947   6.502   3.563  1.3749 -0.1212  0.1186
 9059TIP3    H248593   4.814   6.540   3.500  0.6969 -0.0592  1.5720
 9060TIP3   OH248594   6.668   5.241   5.761 -0.1258  0.3785 -0.2274
 9060TIP3    H148595   6.680   5.177   5.691  3.5810 -0.1758  0.8209
 9060TIP3    H248596   6.741   5.302   5.751 -0.8734  1.6517  1.7722
 9061TIP3   OH248597   2.330   2.862   3.937  0.2336 -0.0361 -0.9966
 9061TIP3    H148598   2.382   2.782   3.930  1.7435  0.8636 -0.4445
 9061TIP3    H248599   2.336   2.886   4.030  2.0017  2.0966 -1.5985
 9062TIP3   OH248600   0.274   2.442   1.151  0.5818  0.2024  0.2246
 9062TIP3    H148601   0.346   2.430   1.212 -1.7122 -0.9286  2.8431
 9062TIP3    H248602   0.223   2.514   1.188  0.6370  1.3466 -1.8677
 9063TIP3   OH248603   3.705   2.498  14.024  0.2625  0.3754 -0.3874
 9063TIP3    H148604   3.784   2.445  14.034 -0.2441 -0.2630  0.2854
 9063TIP3    H248605   3.684   2.491  13.931 -0.3863 -1.4828 -0.1246
 9064TIP3   OH248606   2.238   4.417   6.190 -0.3056 -0.4126  0.0678
 9064TIP3    H148607   2.174   4.367   6.241 -0.6400  0.9725  1.0374
 9064TIP3    H248608   2.322   4.393   6.229 -0.2561 -1.8079 -0.8445
 9065TIP3   OH248609   3.389   3.919   2.158  0.0469  0.2399  0.2396
 9065TIP3    H148610   3.355   3.940   2.071 -1.1554 -0.1348  0.6058
 9065TIP3    H248611   3.450   3.990   2.178 -0.9234  1.2200 -0.2166
 9066TIP3   OH248612   2.139   6.127  14.238  0.2448  0.0304 -0.4296
 9066TIP3    H148613   2.154   6.146  14.145 -0.5586 -0.0339 -0.5766
 9066TIP3    H248614   2.195   6.052  14.257 -0.9137 -1.0754 -1.3162
 9067TIP3   OH248615   0.653   2.303  15.329 -0.3829 -0.1724 -0.2807
 9067TIP3    H148616   0.702   2.243  15.386 -0.0885 -0.4489 -0.8263
 9067TIP3    H248617   0.720   2.346  15.276 -0.7051 -0.3478 -0.8325
 9068TIP3   OH248618   1.807   4.511   3.574  0.4154 -0.6923 -0.1908
 9068TIP3    H148619   1.807   4.607   3.569  0.4019 -0.6804  0.0237
 9068TIP3    H248620   1.722   4.490   3.614  0.2094 -0.8187 -0.6882
 9069TIP3   OH248621   1.076   1.769   4.212  0.5494  0.7846  0.3634
 9069TIP3    H148622   1.080   1.765   4.307 -1.7423  1.4834  0.5178
 9069TIP3    H248623   1.049   1.859   4.193 -0.3481  0.2661 -0.8804
 9070TIP3   OH248624   2.634   0.493  14.985  0.4758  0.6870 -0.2666
 9070TIP3    H148625   2.589   0.571  15.017 -2.4089 -0.9997  0.0662
 9070TIP3    H248626   2.610   0.489  14.892 -0.1315 -0.2435 -0.0800
 9071TIP3   OH248627   4.240   4.482  15.588 -0.0964 -0.1743  0.7381
 9071TIP3    H148628   4.296   4.416  15.548  0.4428  0.3650  0.6024
 9071TIP3    H248629   4.152   4.443  15.586 -0.2565  0.1964 -1.7902
 9072TIP3   OH248630   2.282   5.732  12.554 -0.2349 -0.9601 -0.4428
 9072TIP3    H148631   2.254   5.677  12.480 -2.9353  3.5412 -2.9888
 9072TIP3    H248632   2.333   5.802  12.514  0.6580  0.0531  2.3487
 9073TIP3   OH248633   6.386   0.986  16.490  0.0888 -0.5990 -0.5402
 9073TIP3    H148634   6.443   0.979  16.567 -0.7152  1.7676  0.2883
 9073TIP3    H248635   6.399   1.075  16.458 -1.6381 -0.6867 -1.5316
 9074TIP3   OH248636   2.844   4.551   3.698  0.3379  0.0510  0.3351
 9074TIP3    H148637   2.779   4.585   3.760 -0.0434  3.8613 -1.9777
 9074TIP3    H248638   2.797   4.485   3.648 -0.4051 -0.4616  1.6581
 9075TIP3   OH248639   6.670   0.603  16.623  0.1549 -0.0276 -0.1556
 9075TIP3    H148640   6.609   0.583  16.693 -0.0075 -0.5558 -0.4511
 9075TIP3    H248641   6.696   0.518  16.587  3.4098 -0.0174  1.9267
 9076TIP3   OH248642   6.510   5.278   0.743 -0.6904 -0.1717  0.3126
 9076TIP3    H148643   6.521   5.366   0.707  0.5537 -1.0622 -1.5381
 9076TIP3    H248644   6.480   5.293   0.833  0.3432  2.1626  0.3185
 9077TIP3   OH248645   1.717   4.411  13.564  0.6459 -0.1107 -0.1576
 9077TIP3    H148646   1.749   4.461  13.639  0.8874 -0.0458 -0.3042
 9077TIP3    H248647   1.744   4.321  13.582  0.6194 -0.1116 -0.1195
 9078TIP3   OH248648   0.163   0.309   0.577 -0.0939 -0.5418  0.4583
 9078TIP3    H148649   0.206   0.387   0.542  0.2946 -0.5794  0.8455
 9078TIP3    H248650   0.172   0.317   0.672 -0.5394 -0.7818  0.5214
 9079TIP3   OH248651   2.200   2.819   4.263 -0.0618 -0.3398 -0.2299
 9079TIP3    H148652   2.137   2.885   4.292 -0.1140  0.5405 -2.2484
 9079TIP3    H248653   2.276   2.832   4.321 -0.9321 -0.0142  0.8510
 9080TIP3   OH248654   1.746   3.206  13.281  0.0125  0.3487 -0.0480
 9080TIP3    H148655   1.831   3.215  13.240 -0.8864  0.8332 -1.8393
 9080TIP3    H248656   1.724   3.294  13.311 -0.2304  0.3871 -0.3365
 9081TIP3   OH248657   1.027   4.292  15.615 -0.5287 -0.3958 -0.6104
 9081TIP3    H148658   1.055   4.201  15.625 -0.5358 -0.5555 -1.9473
 9081TIP3    H248659   0.931   4.287  15.611 -0.6191 -0.1516  0.9964
 9082TIP3   OH248660   3.998   0.508  16.590 -0.3277  0.1733 -0.0544
 9082TIP3    H148661   3.979   0.491  16.498  1.1818 -0.9871 -0.1667
 9082TIP3    H248662   4.093   0.501  16.597 -0.6096 -2.4911  2.1073
 9083TIP3   OH248663   1.893   2.995   3.038 -0.4220 -0.1287 -0.4470
 9083TIP3    H148664   1.863   2.941   2.964 -2.1547  0.6042 -0.3004
 9083TIP3    H248665   1.869   3.084   3.014  0.8425  0.3760  0.1086
 9084TIP3   OH248666   2.748   0.971   2.703 -0.6776  0.3888 -0.4522
 9084TIP3    H148667   2.734   1.045   2.645  0.3112  0.8829 -0.0694
 9084TIP3    H248668   2.811   0.916   2.657  0.2798  0.8918  0.2360
 9085TIP3   OH248669   0.330   4.309   5.846 -0.3515  0.3804  0.3269
 9085TIP3    H148670   0.411   4.351   5.875  0.2546  0.2802 -1.1898
 9085TIP3    H248671   0.311   4.245   5.915  0.3464  1.0531  1.1607
 9086TIP3   OH248672   3.373   2.734  12.938 -0.1422 -0.3676 -0.2038
 9086TIP3    H148673   3.412   2.651  12.910  0.3097 -0.1800 -0.1254
 9086TIP3    H248674   3.339   2.716  13.025  0.0397 -0.4444 -0.1485
 9087TIP3   OH248675   4.528   0.694   1.809 -0.6446  0.1144  0.1330
 9087TIP3    H148676   4.542   0.679   1.715 -1.0422 -0.8796  0.2321
 9087TIP3    H248677   4.602   0.652   1.852 -1.0021 -0.3119  0.3277
 9088TIP3   OH248678   3.761   5.436  15.716  0.2645 -0.2293  0.1419
 9088TIP3    H148679   3.687   5.450  15.775  0.8307 -0.5246  0.9322
 9088TIP3    H248680   3.838   5.453  15.770  0.7912 -0.4562 -0.5316
 9089TIP3   OH248681   0.932   5.079   0.043 -0.0599 -0.3804 -0.4005
 9089TIP3    H148682   1.002   5.016   0.062  0.4524  0.6664  1.3415
 9089TIP3    H248683   0.966   5.163   0.075 -1.6280  0.3623 -0.6359
 9090TIP3   OH248684   1.903   6.725  13.158  0.0283 -0.3540  0.1343
 9090TIP3    H148685   1.929   6.682  13.240 -0.4691  1.5382  1.2984
 9090TIP3    H248686   1.936   6.667  13.090 -1.0726 -2.8916  1.6636
 9091TIP3   OH248687   4.819   0.170  12.440 -0.0092  0.2448 -0.0026
 9091TIP3    H148688   4.876   0.102  12.404 -2.3636 -1.2216 -1.0881
 9091TIP3    H248689   4.782   0.132  12.519 -1.3870  0.2222 -0.6468
 9092TIP3   OH248690   6.115   5.349  12.046 -0.3627  0.4622  0.8494
 9092TIP3    H148691   6.042   5.406  12.069 -0.2953  0.8150  0.2016
 9092TIP3    H248692   6.144   5.380  11.960  0.4831  0.2599  1.0572
 9093TIP3   OH248693   4.775   5.034  16.987 -0.6516  0.4653  0.0402
 9093TIP3    H148694   4.701   4.973  16.981 -0.3066  0.2158 -2.1867
 9093TIP3    H248695   4.848   4.981  17.019 -0.6647 -0.0183 -0.7227
 9094TIP3   OH248696   2.052   5.740   1.156  0.1567  0.6299 -0.4416
 9094TIP3    H148697   2.045   5.725   1.062 -0.7684  2.2897 -0.6605
 9094TIP3    H248698   1.962   5.758   1.184 -0.2814 -3.7270  1.4968
 9095TIP3   OH248699   6.095   5.267  16.610  0.5680 -0.1820  0.1483
 9095TIP3    H148700   6.084   5.358  16.583 -2.3797 -0.3407  0.7157
 9095TIP3    H248701   6.165   5.271  16.675  1.2292  1.5171 -0.6220
 9096TIP3   OH248702   1.089   3.067   0.474 -0.0343 -0.8079  0.2607
 9096TIP3    H148703   1.114   3.116   0.396 -1.5585 -0.8349 -0.2553
 9096TIP3    H248704   1.103   3.128   0.547  2.2535 -1.0836  0.0780
 9097TIP3   OH248705   3.523   5.254  15.669 -0.8427 -0.2624 -0.1438
 9097TIP3    H148706   3.601   5.306  15.649 -0.8289 -1.0114 -2.1649
 9097TIP3    H248707   3.462   5.316  15.708  0.0371  0.7765 -0.3975
 9098TIP3   OH248708   1.701   2.600  14.502 -0.1793 -0.3097  0.1232
 9098TIP3    H148709   1.742   2.514  14.492  0.8585  0.0464  1.2084
 9098TIP3    H248710   1.611   2.580  14.531 -0.8762 -1.0931 -2.4232
 9099TIP3   OH248711   5.902   4.517   3.028 -0.7334 -0.0244  0.1312
 9099TIP3    H148712   5.995   4.516   3.004 -0.9853 -3.5119 -1.0090
 9099TIP3    H248713   5.856   4.504   2.946 -2.1258 -0.5399  0.9842
 9100TIP3   OH248714   5.622   2.388   2.186 -0.4368 -0.0324 -0.6770
 9100TIP3    H148715   5.710   2.423   2.199 -0.4931  0.2372 -1.0047
 9100TIP3    H248716   5.609   2.328   2.259 -0.5337  1.0127  0.1775
 9101TIP3   OH248717   2.463   4.652  12.947  0.4214  0.2960  0.0029
 9101TIP3    H148718   2.431   4.742  12.954  0.7757  0.4710 -0.5817
 9101TIP3    H248719   2.552   4.661  12.914 -0.6451 -0.4045 -3.1947
 9102TIP3   OH248720   2.189   6.551   3.398 -0.2771  0.1654 -0.2806
 9102TIP3    H148721   2.243   6.610   3.450 -0.1736 -1.2545  1.2764
 9102TIP3    H248722   2.131   6.509   3.461 -3.1505  1.5516 -1.8980
 9103TIP3   OH248723   3.796   2.670   2.399  0.4192 -0.1035 -1.1198
 9103TIP3    H148724   3.764   2.687   2.311 -1.0732  3.0167 -0.0410
 9103TIP3    H248725   3.720   2.680   2.455  0.7962 -4.4735  0.3871
 9104TIP3   OH248726   3.598   5.187  14.971 -0.2076 -0.1318  0.2351
 9104TIP3    H148727   3.653   5.250  14.925  1.8898 -1.5037  0.8155
 9104TIP3    H248728   3.513   5.193  14.927  1.0865  0.2553 -2.2592
 9105TIP3   OH248729   2.207   0.643   3.161  0.5316 -0.3214  0.0642
 9105TIP3    H148730   2.255   0.675   3.084  0.6202  1.1851  0.7135
 9105TIP3    H248731   2.274   0.599   3.214  0.7027 -0.3737 -0.1951
 9106TIP3   OH248732   5.120   0.421  15.678  0.3540  0.4578  0.1584
 9106TIP3    H148733   5.190   0.454  15.736  0.2054 -1.4665  1.4730
 9106TIP3    H248734   5.163   0.409  15.594  0.2982  4.4713 -0.5437
 9107TIP3   OH248735   5.135   2.822  15.060 -0.1355 -0.1001 -0.5165
 9107TIP3    H148736   5.148   2.917  15.063  0.9964 -0.2673  0.0962
 9107TIP3    H248737   5.196   2.788  15.124  0.4158 -1.3505 -1.6972
 9108TIP3   OH248738   4.999   3.337   3.739 -0.4991 -0.5343  0.5877
 9108TIP3    H148739   4.904   3.348   3.749 -0.6545 -1.3966  0.1177
 9108TIP3    H248740   5.018   3.372   3.653 -0.1159  1.2043  1.3558
 9109TIP3   OH248741   0.532   0.952  11.058 -0.8908  0.5579 -0.3579
 9109TIP3    H148742   0.493   1.032  11.024 -0.7910  1.5681  1.8305
 9109TIP3    H248743   0.551   0.899  10.980  0.8892  3.4767 -1.9686
 9110TIP3   OH248744   3.576   5.230   3.733  0.1927  0.0242 -0.1418
 9110TIP3    H148745   3.615   5.275   3.658  0.6513 -0.8013 -0.4135
 9110TIP3    H248746   3.526   5.297   3.778  0.1492  0.6012 -1.0302
 9111TIP3   OH248747   6.549   0.140   4.704  0.2610  0.4187 -0.3525
 9111TIP3    H148748   6.628   0.105   4.745 -0.0213  0.4187  0.1995
 9111TIP3    H248749   6.484   0.139   4.774 -0.0444  1.0352 -0.6293
 9112TIP3   OH248750   2.848   0.731  15.653 -0.5984  0.2591  0.4067
 9112TIP3    H148751   2.931   0.757  15.613 -2.0841  2.6616 -1.2569
 9112TIP3    H248752   2.858   0.750  15.746 -0.2094  3.1324 -0.1912
 9113TIP3   OH248753   1.793   1.743  14.033  0.3031  0.8647 -0.6325
 9113TIP3    H148754   1.808   1.722  14.125 -2.3386  1.9378  0.1149
 9113TIP3    H248755   1.826   1.832  14.022 -0.6848  1.2726 -0.3378
 9114TIP3   OH248756   2.395   2.524  10.578  0.8518  0.0544  0.3499
 9114TIP3    H148757   2.444   2.449  10.546  0.2324  0.0879 -0.6886
 9114TIP3    H248758   2.352   2.560  10.501  2.2402  2.3228  0.5876
 9115TIP3   OH248759   4.794   6.140  15.156  0.1552  0.0853 -0.0335
 9115TIP3    H148760   4.868   6.079  15.158  0.2189  0.1313 -1.0180
 9115TIP3    H248761   4.772   6.153  15.249  0.1777 -1.3806  0.1903
 9116TIP3   OH248762   4.942   1.179  10.844 -0.3650 -0.2442  0.0476
 9116TIP3    H148763   4.943   1.224  10.928 -0.0511  0.9506 -0.5822
 9116TIP3    H248764   4.966   1.089  10.865 -0.0893  0.0894  1.2139
 9117TIP3   OH248765   3.044   6.174  11.017 -0.6431 -0.0248  0.0694
 9117TIP3    H148766   3.111   6.111  10.993  0.4074  0.9511  0.4023
 9117TIP3    H248767   3.045   6.175  11.113 -0.5655  0.5835  0.0641
 9118TIP3   OH248768   0.885   2.967   1.419  0.6109 -0.3186  0.2214
 9118TIP3    H148769   0.839   3.049   1.437  0.6185 -0.2630 -0.0135
 9118TIP3    H248770   0.828   2.899   1.455 -0.6364 -0.4177 -1.8211
 9119TIP3   OH248771   0.031   5.174   4.667  0.0968  0.0611  0.7040
 9119TIP3    H148772   0.011   5.265   4.646 -0.0437 -0.5579 -2.0111
 9119TIP3    H248773  -0.051   5.139   4.703  0.2623  1.0720  2.1094
 9120TIP3   OH248774   0.448   3.858  16.108  0.6626 -0.0086 -0.4209
 9120TIP3    H148775   0.438   3.776  16.156 -2.7794  0.6097  0.0340
 9120TIP3    H248776   0.484   3.920  16.172  0.2169 -0.3234  0.1358
 9121TIP3   OH248777   3.372   3.355   6.484  0.2566 -0.0390  0.0613
 9121TIP3    H148778   3.313   3.306   6.427  1.7476 -0.5388 -1.0742
 9121TIP3    H248779   3.440   3.292   6.508  1.3379  1.0396 -0.1408
 9122TIP3   OH248780   4.593   3.478  17.073  0.4888 -0.1640  0.2245
 9122TIP3    H148781   4.625   3.455  16.986  1.6391  1.2244  0.2520
 9122TIP3    H248782   4.654   3.436  17.134 -0.6545 -1.6188  0.3841
 9123TIP3   OH248783   1.187   4.287   2.762  0.2800 -0.3802  0.0326
 9123TIP3    H148784   1.237   4.205   2.760 -0.2345 -0.7565  1.4564
 9123TIP3    H248785   1.098   4.261   2.738  0.4717  0.0627 -1.1937
 9124TIP3   OH248786   2.368   3.315  12.218  0.6078 -0.1566  0.5884
 9124TIP3    H148787   2.423   3.330  12.141  1.0853 -0.2924  0.9033
 9124TIP3    H248788   2.321   3.398  12.231  1.1479  0.1397  0.6509
 9125TIP3   OH248789   2.096   5.160   4.837 -0.5488  0.4941 -0.2604
 9125TIP3    H148790   2.164   5.094   4.845 -1.0941  0.0793  1.1238
 9125TIP3    H248791   2.087   5.175   4.743 -0.1172 -1.0682 -0.5515
 9126TIP3   OH248792   5.742   1.695   3.399 -0.6315  0.1453  0.0014
 9126TIP3    H148793   5.782   1.617   3.362 -0.5224  0.3024 -0.2122
 9126TIP3    H248794   5.815   1.744   3.437 -0.5313  0.7696 -1.0028
 9127TIP3   OH248795   4.736   1.645  17.164 -0.1184  0.3699  0.3311
 9127TIP3    H148796   4.773   1.606  17.085 -2.0274  2.0968 -1.4738
 9127TIP3    H248797   4.651   1.601  17.176  0.4580 -0.3773  1.8442
 9128TIP3   OH248798   2.522   5.048  12.362 -0.4747  0.5722  0.1648
 9128TIP3    H148799   2.496   5.129  12.319 -0.8007 -0.4900 -1.6840
 9128TIP3    H248800   2.608   5.028  12.326 -0.1823  0.3343  0.9730
 9129TIP3   OH248801   2.766   2.958  15.408 -0.4653  0.6082 -0.2884
 9129TIP3    H148802   2.782   2.864  15.406 -1.2056  0.4686  0.3666
 9129TIP3    H248803   2.829   2.994  15.345  0.7273 -0.1894  0.4162
 9130TIP3   OH248804   2.921   2.018   5.648 -0.4099  0.2457 -0.5770
 9130TIP3    H148805   2.934   1.939   5.701 -0.6722  1.1832  0.9474
 9130TIP3    H248806   2.841   2.001   5.599 -0.8293 -0.1940  0.2398
 9131TIP3   OH248807   3.543   6.507   2.696 -0.4043 -0.1717  0.5286
 9131TIP3    H148808   3.554   6.498   2.790  2.7742  1.5286  0.3981
 9131TIP3    H248809   3.564   6.421   2.660 -0.2824 -0.4588  1.2879
 9132TIP3   OH248810   2.763   2.124   1.587 -0.0301 -0.1163  0.4146
 9132TIP3    H148811   2.785   2.156   1.674 -0.3861 -0.2038  0.5404
 9132TIP3    H248812   2.731   2.201   1.541  0.0647 -0.0897  0.3936
 9133TIP3   OH248813   2.506   3.818   0.569  0.0910  0.1060 -0.1722
 9133TIP3    H148814   2.418   3.847   0.595 -0.6136 -2.6628  0.6526
 9133TIP3    H248815   2.547   3.790   0.651  1.6193  1.0030 -0.6188
 9134TIP3   OH248816   6.369   3.279   3.341 -0.0461  0.1112 -0.0001
 9134TIP3    H148817   6.339   3.257   3.253  1.8102  0.0787 -0.6444
 9134TIP3    H248818   6.311   3.230   3.399  0.5706 -2.2250 -1.2889
 9135TIP3   OH248819   1.593   4.282  16.922 -0.3440  0.5691  0.1613
 9135TIP3    H148820   1.686   4.277  16.945 -0.8090 -0.8845  1.8311
 9135TIP3    H248821   1.559   4.353  16.976 -0.3227  0.6812  0.0260
 9136TIP3   OH248822   6.126   2.718   4.003 -0.0802 -0.2538  0.4338
 9136TIP3    H148823   6.032   2.716   3.987 -0.0966  0.5163  0.4101
 9136TIP3    H248824   6.165   2.695   3.919 -0.2609 -1.2599  0.6242
 9137TIP3   OH248825   6.190   4.418  15.733  0.4435  0.2014  0.4641
 9137TIP3    H148826   6.210   4.465  15.652 -2.2920 -1.3984 -1.1909
 9137TIP3    H248827   6.257   4.350  15.739  0.7324  0.4109 -0.3819
 9138TIP3   OH248828   4.240   2.457  16.299  0.2423  0.6777 -0.4736
 9138TIP3    H148829   4.203   2.542  16.276 -2.0827  0.4287  1.9968
 9138TIP3    H248830   4.186   2.393  16.253 -0.5087  0.4230  0.7304
 9139TIP3   OH248831   0.481   2.769  12.900  0.2688 -0.1157  0.1857
 9139TIP3    H148832   0.576   2.762  12.905  0.1518  0.0845  3.1849
 9139TIP3    H248833   0.449   2.686  12.937 -0.7387  0.0801 -0.2316
 9140TIP3   OH248834   6.126   3.536   2.125  0.0376  1.1547  0.3982
 9140TIP3    H148835   6.062   3.470   2.099 -0.4953  1.3668  1.1477
 9140TIP3    H248836   6.174   3.556   2.045 -0.1788  0.2724  0.0463
 9141TIP3   OH248837   3.715   0.318  14.092  0.3835  0.0779  1.1006
 9141TIP3    H148838   3.670   0.265  14.026 -1.2082  0.3484  1.9241
 9141TIP3    H248839   3.695   0.409  14.068 -0.4150  0.1718  2.0660
 9142TIP3   OH248840   2.359   0.392  11.315 -0.1001  0.4081  0.0350
 9142TIP3    H148841   2.407   0.343  11.248 -0.6556 -0.3653  0.2024
 9142TIP3    H248842   2.426   0.421  11.376  0.3989  1.0376 -0.8127
 9143TIP3   OH248843   5.448   6.717   3.022 -0.0811 -0.1524  0.0912
 9143TIP3    H148844   5.365   6.684   3.056 -0.4335  1.1881  0.5572
 9143TIP3    H248845   5.493   6.639   2.989 -1.7986 -0.8055 -0.7601
 9144TIP3   OH248846   5.447   1.491  16.885  0.2851 -0.7604 -0.2780
 9144TIP3    H148847   5.377   1.528  16.939  1.2685 -0.4311  0.7968
 9144TIP3    H248848   5.423   1.399  16.874 -0.9646 -0.3595 -0.9814
 9145TIP3   OH248849   1.252   0.015  13.406  0.3294  0.5927 -0.2785
 9145TIP3    H148850   1.214  -0.054  13.461  1.4045  0.1512 -0.0821
 9145TIP3    H248851   1.329   0.045  13.455  0.0955  1.6645 -0.5475
 9146TIP3   OH248852   4.567   1.192  15.184 -0.5696  0.2376  0.0703
 9146TIP3    H148853   4.576   1.097  15.189 -0.1925  0.2350 -0.6731
 9146TIP3    H248854   4.505   1.207  15.113  0.3314  0.5890 -0.6540
 9147TIP3   OH248855   3.064   2.745   5.688  0.0308 -0.0994  0.4473
 9147TIP3    H148856   3.030   2.825   5.728 -0.0044  0.5688 -0.8694
 9147TIP3    H248857   3.159   2.749   5.703  0.2227  0.9712 -0.9263
 9148TIP3   OH248858   4.808   0.440   4.819 -0.5636 -0.0728  0.0750
 9148TIP3    H148859   4.728   0.391   4.801 -0.4164 -1.2964  2.5355
 9148TIP3    H248860   4.782   0.532   4.817 -2.0176 -0.4631  0.8199
 9149TIP3   OH248861   4.572   5.238  17.116  0.5866  0.6064  0.6553
 9149TIP3    H148862   4.637   5.239  17.186  0.8364  1.0756  0.4142
 9149TIP3    H248863   4.605   5.171  17.055  0.4899  0.3632  0.8691
 9150TIP3   OH248864   4.962   4.236  17.128 -0.2522  0.2516 -0.4056
 9150TIP3    H148865   4.974   4.190  17.045 -0.4673 -0.0955 -0.2457
 9150TIP3    H248866   4.867   4.243  17.138 -0.3559 -3.0712  1.6317
 9151TIP3   OH248867   4.054   6.596  11.926 -0.2319 -0.1239  0.0150
 9151TIP3    H148868   4.028   6.579  11.835  1.8350 -0.4152 -0.5342
 9151TIP3    H248869   4.035   6.689  11.939 -0.5312 -0.0788 -0.7108
 9152TIP3   OH248870   4.249   1.876   2.019  0.1499 -0.1202  0.7273
 9152TIP3    H148871   4.159   1.870   2.052  0.3017  0.7376  1.3065
 9152TIP3    H248872   4.276   1.966   2.038  0.7421 -0.0389 -0.4653
 9153TIP3   OH248873   2.385   4.141   1.682 -0.7692 -0.0250  0.7856
 9153TIP3    H148874   2.309   4.192   1.655  0.3392  2.3175  1.9913
 9153TIP3    H248875   2.396   4.161   1.775  0.0041 -2.1061  1.1813
 9154TIP3   OH248876   3.874   2.029   0.045  0.1418 -0.0229 -0.0520
 9154TIP3    H148877   3.954   2.025   0.098 -0.5644 -0.9878  0.9809
 9154TIP3    H248878   3.864   2.121   0.023  0.4966  0.3851  1.4451
 9155TIP3   OH248879   2.971   3.196   2.931  0.3881  0.3258  0.6142
 9155TIP3    H148880   3.058   3.221   2.960  0.7467  1.4547 -1.3628
 9155TIP3    H248881   2.947   3.261   2.865 -2.1368  0.2853  1.4249
 9156TIP3   OH248882   6.187   3.050  14.779 -0.0523  0.4607  0.5094
 9156TIP3    H148883   6.122   3.029  14.846  1.4734 -0.6529  1.6918
 9156TIP3    H248884   6.163   2.997  14.704 -1.0505  0.7664  0.6087
 9157TIP3   OH248885   1.324   0.862   2.311  0.2765 -0.0336  0.0948
 9157TIP3    H148886   1.377   0.782   2.310 -0.8074 -0.7696  0.1248
 9157TIP3    H248887   1.271   0.857   2.231  0.4244  0.8041 -0.0573
 9158TIP3   OH248888   6.650   1.713   4.239  0.7113 -0.6814 -0.2368
 9158TIP3    H148889   6.563   1.748   4.257  0.5204 -0.5150 -1.4055
 9158TIP3    H248890   6.640   1.619   4.249  0.5043 -0.6291  0.0633
 9159TIP3   OH248891   5.742   4.906   1.302 -0.4064 -0.4742 -0.4069
 9159TIP3    H148892   5.710   4.992   1.275 -1.5260 -0.1864  1.7053
 9159TIP3    H248893   5.788   4.872   1.226 -1.2959  1.3403 -1.7828
 9160TIP3   OH248894   4.707   4.468   0.061 -0.2044 -0.2247  0.1785
 9160TIP3    H148895   4.678   4.379   0.041 -0.1450 -0.2278  0.1040
 9160TIP3    H248896   4.679   4.520  -0.015 -1.7030  0.1400  0.9618
 9161TIP3   OH248897   0.551   3.386  14.523 -0.1847  0.0790  0.3491
 9161TIP3    H148898   0.464   3.426  14.516 -0.3164 -0.3718 -0.6318
 9161TIP3    H248899   0.594   3.434  14.594 -1.0856  0.5796  0.5618
 9162TIP3   OH248900   0.286   5.485  16.876 -0.1056  0.0743  0.3492
 9162TIP3    H148901   0.330   5.400  16.877  0.7549  0.5091  0.4987
 9162TIP3    H248902   0.193   5.465  16.885  0.2818 -0.7409  3.0012
 9163TIP3   OH248903   0.513   4.411  13.790 -0.6085  0.6574 -0.2676
 9163TIP3    H148904   0.489   4.385  13.701 -2.5074 -0.0700  0.4391
 9163TIP3    H248905   0.460   4.488  13.808 -0.1697  0.8479  0.2165
 9164TIP3   OH248906   0.230   3.628   0.722 -1.2630  0.5427  0.2164
 9164TIP3    H148907   0.241   3.689   0.795 -0.2217  0.9438 -0.2660
 9164TIP3    H248908   0.315   3.586   0.714 -1.9440 -0.9093  0.4780
 9165TIP3   OH248909   2.697   6.339   4.192  0.0724 -0.4149 -0.4569
 9165TIP3    H148910   2.635   6.269   4.214 -1.1132  0.7956  0.0997
 9165TIP3    H248911   2.783   6.301   4.212 -0.4188 -2.2897 -1.7133
 9166TIP3   OH248912   5.661   6.585   3.321  0.8335  0.9466  0.1790
 9166TIP3    H148913   5.712   6.530   3.381 -0.7813 -0.1258  0.5835
 9166TIP3    H248914   5.572   6.583   3.356 -0.3153 -0.3438 -2.7112
 9167TIP3   OH248915   5.431   1.958   2.045  0.2794 -0.6186 -0.5441
 9167TIP3    H148916   5.469   1.880   2.085 -0.4118 -1.2176 -1.0452
 9167TIP3    H248917   5.339   1.936   2.032 -0.3389  0.9167  0.9127
 9168TIP3   OH248918   2.953   5.527   3.440  0.5355  0.1356  0.0488
 9168TIP3    H148919   2.989   5.607   3.403 -0.3450 -0.2741 -1.7072
 9168TIP3    H248920   2.913   5.555   3.523  1.5002  1.2390  0.1569
 9169TIP3   OH248921   6.390   0.139   4.907 -0.3750 -0.1371 -0.4882
 9169TIP3    H148922   6.433   0.173   4.985  0.8485 -0.5352 -0.9728
 9169TIP3    H248923   6.347   0.058   4.937  0.1716 -0.3400 -0.2439
 9170TIP3   OH248924   5.536   3.118   5.857 -0.0052  0.1056  0.1532
 9170TIP3    H148925   5.625   3.154   5.848  0.4445 -0.2936  2.7202
 9170TIP3    H248926   5.481   3.180   5.808  1.2265  2.2877  1.4281
 9171TIP3   OH248927   6.238   6.209  15.475  0.4014 -0.4761 -0.6681
 9171TIP3    H148928   6.274   6.158  15.402  1.3015  0.2904 -0.7638
 9171TIP3    H248929   6.294   6.286  15.481  0.1277 -0.3654  0.6293
 9172TIP3   OH248930   0.835   4.964   4.168 -0.0277 -0.7306  0.0214
 9172TIP3    H148931   0.743   4.967   4.195 -0.1357  0.1574 -0.4470
 9172TIP3    H248932   0.865   5.055   4.173 -0.0341 -0.5407 -2.8104
 9173TIP3   OH248933   0.558   1.574   0.944  0.9229  0.2121  0.1669
 9173TIP3    H148934   0.582   1.554   0.854  0.9092  0.4737  0.1051
 9173TIP3    H248935   0.507   1.655   0.938  3.4954  1.9602  0.7013
 9174TIP3   OH248936   4.645   2.065  13.007 -0.2168  0.0438 -0.3455
 9174TIP3    H148937   4.686   1.992  13.053 -0.7291 -0.5773 -0.8678
 9174TIP3    H248938   4.626   2.130  13.075  0.9925  0.0432 -0.0006
 9175TIP3   OH248939   6.652   5.045  14.037  0.2208  0.1314  0.0323
 9175TIP3    H148940   6.610   5.057  13.951 -0.3775 -1.0935  0.1431
 9175TIP3    H248941   6.596   5.093  14.098 -0.5611 -0.8117  0.0575
 9176TIP3   OH248942   0.632   2.966   1.060  0.0711 -0.3386  0.4084
 9176TIP3    H148943   0.539   2.983   1.077 -0.4949 -0.7145 -2.0388
 9176TIP3    H248944   0.646   2.877   1.093 -0.0426  0.3120  2.2076
 9177TIP3   OH248945   0.321   1.925  15.735 -0.1463  0.2766  0.1720
 9177TIP3    H148946   0.391   1.910  15.672  0.3877  0.3683  0.7439
 9177TIP3    H248947   0.329   1.853  15.798  0.1255  0.9006  0.8540
 9178TIP3   OH248948   3.656   0.394  15.866 -0.2547 -0.1694 -0.3740
 9178TIP3    H148949   3.581   0.342  15.840  0.6815 -0.9618 -1.5657
 9178TIP3    H248950   3.721   0.379  15.797 -0.5776  3.9541 -1.7174
 9179TIP3   OH248951   6.160   0.608   4.500 -0.4357  0.5969 -0.2090
 9179TIP3    H148952   6.210   0.631   4.579 -0.2585 -1.2964  0.2625
 9179TIP3    H248953   6.177   0.679   4.439 -0.1695  1.8430  1.2952
 9180TIP3   OH248954   0.766   0.056   5.503 -0.5560  0.4302  0.2265
 9180TIP3    H148955   0.792   0.068   5.412  0.9221  0.8779  0.6951
 9180TIP3    H248956   0.674   0.084   5.506 -0.0939  2.0571 -0.7616
 9181TIP3   OH248957   1.693   4.643  11.768  0.0629  0.0172  0.4861
 9181TIP3    H148958   1.632   4.646  11.694 -0.0658  0.0434  0.5939
 9181TIP3    H248959   1.775   4.611  11.729  0.0310  0.1518  0.3068
 9182TIP3   OH248960   6.034   4.190  13.287  0.2273  0.1965  0.0140
 9182TIP3    H148961   6.021   4.186  13.382 -0.4489 -0.0855 -0.0947
 9182TIP3    H248962   6.037   4.099  13.259 -1.6620  0.2905 -0.5322
 9183TIP3   OH248963   5.543   4.915   6.402  0.4422  0.3731  0.1248
 9183TIP3    H148964   5.492   4.995   6.388 -1.4477 -0.6727  0.8995
 9183TIP3    H248965   5.601   4.936   6.475  0.2143  1.1369  0.0942
 9184TIP3   OH248966   5.399   0.092   2.530 -0.5254  0.0969 -0.7080
 9184TIP3    H148967   5.450   0.095   2.612  0.3933 -0.0270 -1.2673
 9184TIP3    H248968   5.328   0.155   2.544  1.2819  2.2404 -0.9096
 9185TIP3   OH248969   5.816   3.074   0.854  0.2413 -0.2354 -0.7432
 9185TIP3    H148970   5.883   3.141   0.834 -1.4521  1.7813  0.2040
 9185TIP3    H248971   5.855   3.021   0.923  0.2847  1.9037  0.9173
 9186TIP3   OH248972   1.163   2.278  14.311 -0.2434 -0.4225 -0.0254
 9186TIP3    H148973   1.144   2.292  14.404 -0.1451 -0.4062 -0.0078
 9186TIP3    H248974   1.170   2.183  14.302 -3.6037 -0.6410 -0.6847
 9187TIP3   OH248975   0.830   6.340  17.171 -0.6671 -0.2151  0.3479
 9187TIP3    H148976   0.879   6.304  17.245 -0.0488 -0.3900 -0.1385
 9187TIP3    H248977   0.768   6.272  17.147 -0.1612 -0.5719  0.0477
 9188TIP3   OH248978   4.379   6.371   3.269  0.4602  0.2550  0.1959
 9188TIP3    H148979   4.352   6.421   3.192 -0.6484 -0.1238  0.3154
 9188TIP3    H248980   4.442   6.307   3.236  1.3465  1.2589 -0.0752
 9189TIP3   OH248981   0.550   1.012  14.900  0.2314 -0.2716 -0.4345
 9189TIP3    H148982   0.459   1.037  14.889  0.0898 -1.1658 -1.4006
 9189TIP3    H248983   0.547   0.920  14.927  0.8294 -0.1218  0.1633
 9190TIP3   OH248984   0.725   1.826   0.485 -0.2181  0.3738  0.3642
 9190TIP3    H148985   0.651   1.859   0.537 -0.7387  1.4103 -1.0014
 9190TIP3    H248986   0.798   1.884   0.508 -0.0350 -0.1595  1.1265
 9191TIP3   OH248987   5.098   4.480   3.649  0.8254 -0.1305  0.1117
 9191TIP3    H148988   5.087   4.452   3.740 -2.5125 -0.4685 -0.3136
 9191TIP3    H248989   5.128   4.570   3.654  2.0821 -0.6134  1.5306
 9192TIP3   OH248990   2.966   0.814   2.907 -0.3861  0.1000  0.3129
 9192TIP3    H148991   3.027   0.802   2.980 -0.8099 -0.3311  0.6027
 9192TIP3    H248992   3.011   0.874   2.848  0.3508 -0.2714  0.4853
 9193TIP3   OH248993   0.780   3.075   0.285 -0.0753  0.0858 -0.3682
 9193TIP3    H148994   0.771   2.994   0.234 -0.8852 -0.4714  0.6429
 9193TIP3    H248995   0.825   3.048   0.365 -2.2723  0.2238  0.9347
 9194TIP3   OH248996   3.049   2.014   6.313 -0.1849 -0.1054  0.1062
 9194TIP3    H148997   2.966   2.027   6.358  0.6312 -0.9638  1.8909
 9194TIP3    H248998   3.025   1.991   6.223 -1.8460  0.5998  0.3672
 9195TIP3   OH248999   6.236   0.151   0.664 -0.4898  0.0746  0.1635
 9195TIP3    H149000   6.311   0.095   0.643 -1.0813 -0.3246 -0.9011
 9195TIP3    H249001   6.201   0.115   0.746  0.8364  0.6295  0.9826
 9196TIP3   OH249002   1.834   4.956  17.116  0.3660 -0.1538  0.1532
 9196TIP3    H149003   1.879   4.972  17.033  0.6839 -0.2590  0.3059
 9196TIP3    H249004   1.901   4.971  17.183  0.0478  0.1654  0.4008
 9197TIP3   OH249005   2.266   1.234   1.053 -0.5811 -0.3069  0.6513
 9197TIP3    H149006   2.203   1.163   1.067 -2.2403  0.9682 -0.1231
 9197TIP3    H249007   2.255   1.258   0.961  1.9015 -0.8350  0.1778
 9198TIP3   OH249008   6.711   4.924  15.980  0.5089 -0.5469  0.3872
 9198TIP3    H149009   6.764   4.874  15.919  1.0778 -0.1309  0.5436
 9198TIP3    H249010   6.626   4.932  15.936  1.1328  0.3873 -0.6877
 9199TIP3   OH249011   4.370   4.502   6.882  0.2717 -0.3225 -0.4650
 9199TIP3    H149012   4.344   4.463   6.966  0.3754  0.1545 -0.2094
 9199TIP3    H249013   4.444   4.449   6.853  0.3943 -0.3314 -0.1330
 9200TIP3   OH249014   2.661   2.713  10.631  0.1465 -0.0615  0.0052
 9200TIP3    H149015   2.662   2.627  10.673  0.1340 -0.0158  0.0999
 9200TIP3    H249016   2.746   2.751  10.653 -0.1189  0.2262  0.5381
 9201TIP3   OH249017   1.487   5.345  13.254 -0.2891  0.0842 -0.1417
 9201TIP3    H149018   1.502   5.312  13.166 -1.9361  1.5355 -0.9799
 9201TIP3    H249019   1.419   5.411  13.245 -2.1772 -1.3843  2.5708
 9202TIP3   OH249020   0.654   1.993  13.926  0.1683 -0.2716  0.3565
 9202TIP3    H149021   0.691   1.908  13.902  1.1480  0.1842  0.2425
 9202TIP3    H249022   0.725   2.056  13.910 -0.0690  0.3821  1.7869
 9203TIP3   OH249023   3.788   3.207  14.431  0.4535  0.5152 -0.2950
 9203TIP3    H149024   3.871   3.184  14.388  0.5717 -0.6404  0.5244
 9203TIP3    H249025   3.808   3.287  14.480  1.2604 -0.0572  0.3401
 9204TIP3   OH249026   2.769   3.298  16.982 -0.3973  0.0465  0.5910
 9204TIP3    H149027   2.801   3.351  16.908  0.3783  1.0725  1.6344
 9204TIP3    H249028   2.782   3.208  16.954 -0.3497  0.4266 -0.6387
 9205TIP3   OH249029   0.473   4.252   4.755 -0.0070 -0.5109 -0.0213
 9205TIP3    H149030   0.470   4.330   4.811 -2.2405 -0.2602 -0.4428
 9205TIP3    H249031   0.529   4.277   4.682  2.4856 -0.6522  1.7772
 9206TIP3   OH249032   4.324   5.546   1.220  0.0353 -0.5506  0.0566
 9206TIP3    H149033   4.354   5.567   1.308 -0.9638 -1.8402  0.7306
 9206TIP3    H249034   4.346   5.453   1.208 -1.9336 -1.0217 -0.1426
 9207TIP3   OH249035   1.210   4.916   0.373  0.3770 -0.0150 -0.2908
 9207TIP3    H149036   1.153   4.888   0.445 -0.5156  0.6235 -0.7341
 9207TIP3    H249037   1.281   4.963   0.416 -0.5995  1.1106  0.1281
 9208TIP3   OH249038   4.485   1.045  13.163 -0.2791 -0.2212 -0.3648
 9208TIP3    H149039   4.469   1.021  13.072 -0.3941 -0.7255 -0.2103
 9208TIP3    H249040   4.425   0.990  13.214 -0.5495  0.3961 -0.0136
 9209TIP3   OH249041   1.849   0.445   1.085 -0.6971 -0.2705  0.4677
 9209TIP3    H149042   1.944   0.461   1.083 -1.0272  1.6929 -0.3359
 9209TIP3    H249043   1.827   0.421   0.996 -1.2179  0.8799  0.2843
 9210TIP3   OH249044   2.969   3.112   6.547 -0.7499 -0.0298  0.6284
 9210TIP3    H149045   3.029   3.037   6.543 -2.2267 -1.1048 -2.4473
 9210TIP3    H249046   2.883   3.073   6.565 -2.1773  0.4390 -4.4014
 9211TIP3   OH249047   0.558   1.759   3.655 -0.0982 -0.1989 -0.2689
 9211TIP3    H149048   0.468   1.790   3.666  0.7755  1.8451  1.4082
 9211TIP3    H249049   0.586   1.735   3.743  1.2798 -0.0230 -0.6491
 9212TIP3   OH249050   6.195   2.148   5.391  0.0248  0.1201 -0.7022
 9212TIP3    H149051   6.194   2.166   5.297 -1.2199 -1.4923 -1.0225
 9212TIP3    H249052   6.239   2.063   5.399 -1.3196 -0.5467 -0.0117
 9213TIP3   OH249053   2.503   3.833  16.655  0.1518 -0.2995  0.1629
 9213TIP3    H149054   2.470   3.743  16.649  1.3304 -0.6048 -2.0586
 9213TIP3    H249055   2.463   3.879  16.581  2.3841  0.0505 -0.8711
 9214TIP3   OH249056   1.066   1.742  11.254 -0.2718  0.3888  0.2213
 9214TIP3    H149057   1.010   1.666  11.270  2.4737 -1.4893  1.3237
 9214TIP3    H249058   1.030   1.782  11.175 -1.0844 -2.7969 -1.1152
 9215TIP3   OH249059   0.762   6.245  13.797  0.2580 -0.0333 -0.5286
 9215TIP3    H149060   0.805   6.233  13.712  2.4941  0.5252  0.4746
 9215TIP3    H249061   0.815   6.192  13.858 -0.2583  0.9737  0.8078
 9216TIP3   OH249062   3.896   1.844  14.025 -0.0425 -0.2334 -0.3070
 9216TIP3    H149063   3.950   1.908  14.071 -1.0045 -0.7503  1.6354
 9216TIP3    H249064   3.863   1.890  13.948 -0.8357  1.6719  1.1335
 9217TIP3   OH249065   5.036   6.386  14.611  0.7825  0.0117 -0.6171
 9217TIP3    H149066   4.962   6.397  14.670  0.8426 -0.1985 -0.5007
 9217TIP3    H249067   5.087   6.466  14.621  1.7249 -0.7674  0.9207
 9218TIP3   OH249068   3.723   2.168  14.214  0.2147  0.3052 -0.2994
 9218TIP3    H149069   3.746   2.167  14.121  3.3980 -1.9331  0.4301
 9218TIP3    H249070   3.682   2.083  14.231  1.3249 -0.0573  0.6886
 9219TIP3   OH249071   2.516   1.383  13.480  0.4918 -0.7271  0.1186
 9219TIP3    H149072   2.533   1.350  13.392  0.6509 -1.7165  0.5128
 9219TIP3    H249073   2.603   1.385  13.521  0.2074 -1.9985  0.8347
 9220TIP3   OH249074   3.802   2.863  12.371 -0.5785 -0.3689 -0.2761
 9220TIP3    H149075   3.762   2.909  12.297 -1.3933  0.6784  0.7932
 9220TIP3    H249076   3.737   2.868  12.440  0.5478 -0.5377  0.8054
 9221TIP3   OH249077   4.020   5.190   5.864 -0.5215 -0.6673  0.4844
 9221TIP3    H149078   4.054   5.232   5.785  0.1779 -0.3823  0.9422
 9221TIP3    H249079   3.926   5.205   5.860 -0.0563  2.8743  1.7910
 9222TIP3   OH249080   1.703   3.346   0.033 -0.4177 -0.4496 -0.6427
 9222TIP3    H149081   1.707   3.254   0.010 -0.5896 -0.5676 -0.1942
 9222TIP3    H249082   1.773   3.387  -0.018  0.5689 -1.0490  0.2246
 9223TIP3   OH249083   6.364   3.246   2.266  0.9557 -0.3354  0.6917
 9223TIP3    H149084   6.408   3.186   2.206  1.3634 -0.0211  0.6796
 9223TIP3    H249085   6.279   3.262   2.225  1.1906 -0.2054  0.2499
 9224TIP3   OH249086   4.443   2.696  16.336 -0.0275 -0.4732  0.1548
 9224TIP3    H149087   4.349   2.706  16.350  0.0946 -0.4741  1.0131
 9224TIP3    H249088   4.469   2.773  16.285 -0.0520  0.8265  2.0775
 9225TIP3   OH249089   2.785   6.700  16.670 -0.0994  0.4287 -0.2366
 9225TIP3    H149090   2.709   6.649  16.699 -0.0870  0.8569  0.5594
 9225TIP3    H249091   2.855   6.635  16.660 -0.0584  0.3047  0.8593
 9226TIP3   OH249092   2.690   3.148   4.301 -0.3411  1.0042 -0.4721
 9226TIP3    H149093   2.687   3.122   4.393  0.2451 -1.0006 -1.0004
 9226TIP3    H249094   2.745   3.227   4.300  1.4759 -0.2281  0.6090
 9227TIP3   OH249095   0.097   0.212  13.142 -0.2448 -0.1800 -0.2951
 9227TIP3    H149096   0.143   0.190  13.223  1.3466  3.6848  0.0080
 9227TIP3    H249097   0.014   0.250  13.172  0.9197  2.5210 -0.3020
 9228TIP3   OH249098   2.178   5.274  11.781 -0.7279 -0.0909  0.1506
 9228TIP3    H149099   2.190   5.213  11.853  1.2413 -1.0187 -0.9258
 9228TIP3    H249100   2.151   5.219  11.707  1.2631  0.2904 -0.8782
 9229TIP3   OH249101   2.246   0.721   0.831  0.2963  0.0875 -0.1032
 9229TIP3    H149102   2.318   0.677   0.786  1.4103  0.2048  1.4972
 9229TIP3    H249103   2.168   0.695   0.782  1.0824 -2.5144 -0.0970
 9230TIP3   OH249104   2.602   1.458   1.376 -0.1402  0.4392  0.8283
 9230TIP3    H149105   2.568   1.544   1.352 -0.8475 -0.1652 -0.3594
 9230TIP3    H249106   2.546   1.396   1.331  1.0260 -0.6289  0.8051
 9231TIP3   OH249107   3.607   5.688   0.941  0.2716  0.4563 -0.3308
 9231TIP3    H149108   3.526   5.736   0.921 -0.1711 -0.3474 -0.5342
 9231TIP3    H249109   3.606   5.614   0.879 -0.1661 -1.0309  1.4197
 9232TIP3   OH249110   3.169   3.871   4.314 -0.1110  0.2326  0.2008
 9232TIP3    H149111   3.137   3.819   4.388 -1.7622 -0.5774 -1.0611
 9232TIP3    H249112   3.262   3.849   4.309 -0.3945 -1.2037  0.8321
 9233TIP3   OH249113   2.661   1.557  16.750  0.1785 -0.0597 -0.4092
 9233TIP3    H149114   2.671   1.652  16.757  0.5336 -0.2094  1.3566
 9233TIP3    H249115   2.744   1.527  16.713  0.2289  0.2702 -0.5625
 9234TIP3   OH249116   2.771   5.875   1.439 -0.0634 -0.3711  0.5412
 9234TIP3    H149117   2.774   5.882   1.343 -1.4907  0.4483  0.5448
 9234TIP3    H249118   2.821   5.795   1.458  0.2703 -0.5240 -0.8802
 9235TIP3   OH249119   3.295   6.508  13.066  0.4587 -0.4328  0.6848
 9235TIP3    H149120   3.329   6.481  13.152  1.3092  0.4820  0.6345
 9235TIP3    H249121   3.289   6.603  13.071  0.6984 -0.3612 -0.3392
 9236TIP3   OH249122   4.381   3.043  14.734  0.3332  0.3256  0.3091
 9236TIP3    H149123   4.351   3.134  14.727  0.7962  0.4337 -0.3383
 9236TIP3    H249124   4.388   3.013  14.644 -3.2804 -1.5331  0.5498
 9237TIP3   OH249125   0.352   1.155   3.829 -0.0281  0.0180  0.2600
 9237TIP3    H149126   0.346   1.187   3.739 -1.1376  0.3992  0.4554
 9237TIP3    H249127   0.445   1.153   3.848  0.1276  1.5994 -0.3022
 9238TIP3   OH249128   0.079   1.556  16.007 -0.3859 -0.0050 -0.3818
 9238TIP3    H149129   0.132   1.477  16.000  0.2517  0.4124 -0.3281
 9238TIP3    H249130   0.100   1.606  15.928 -2.3373 -0.8178 -1.4402
 9239TIP3   OH249131   0.044   1.493  12.804  0.2590  0.3457 -0.1731
 9239TIP3    H149132   0.092   1.457  12.878  0.8966  0.8373 -0.3397
 9239TIP3    H249133   0.077   1.582  12.795  0.8645 -0.0018 -1.6013
 9240TIP3   OH249134   0.818   5.083  13.946  0.2631 -0.1356  0.2166
 9240TIP3    H149135   0.818   5.042  14.033 -0.0230 -0.3353  0.1238
 9240TIP3    H249136   0.751   5.035  13.898  2.0563 -1.6587 -0.8716
 9241TIP3   OH249137   6.496   3.990  16.632 -0.3507 -0.1877  0.5464
 9241TIP3    H149138   6.447   4.033  16.562 -0.6185  1.1866  1.5748
 9241TIP3    H249139   6.429   3.959  16.693 -0.0612 -0.4595  0.7262
 9242TIP3   OH249140   5.091   1.973   5.814 -0.2608 -0.8777 -0.3447
 9242TIP3    H149141   5.087   2.002   5.905  2.0418  0.4842 -0.6310
 9242TIP3    H249142   5.185   1.971   5.793 -0.7753 -0.4098 -2.9123
 9243TIP3   OH249143   2.643   6.420   3.932  0.2569 -1.0028 -0.2277
 9243TIP3    H149144   2.593   6.498   3.910 -0.8657 -1.9186 -0.9724
 9243TIP3    H249145   2.667   6.432   4.024  0.2446  0.2855 -0.3885
 9244TIP3   OH249146   6.603   0.265   1.756 -0.1358 -0.4124 -0.2390
 9244TIP3    H149147   6.551   0.341   1.782 -0.2163 -1.1733  1.9117
 9244TIP3    H249148   6.692   0.286   1.784 -0.1048 -0.9778  0.0945
 9245TIP3   OH249149   0.547   4.499   5.480  0.1161 -0.0643 -0.4509
 9245TIP3    H149150   0.551   4.403   5.482  0.4292 -0.0802 -1.5776
 9245TIP3    H249151   0.472   4.519   5.424  0.2116  0.3517 -0.4344
 9246TIP3   OH249152   5.693   5.770   0.974 -0.4497  0.0550 -0.0846
 9246TIP3    H149153   5.612   5.719   0.977 -0.4587 -0.1895 -2.9988
 9246TIP3    H249154   5.671   5.852   1.017 -1.7190 -0.6974  0.7423
 9247TIP3   OH249155   4.743   6.616   1.234 -0.6713 -0.5729  0.1652
 9247TIP3    H149156   4.835   6.643   1.239 -0.4177 -1.4356  0.2080
 9247TIP3    H249157   4.732   6.556   1.308 -1.0844 -1.0151 -0.2511
 9248TIP3   OH249158   5.441   4.260   1.578 -0.3691  0.5942 -0.0710
 9248TIP3    H149159   5.459   4.180   1.528 -0.4120  0.6559 -0.1849
 9248TIP3    H249160   5.449   4.233   1.670 -3.7050 -0.3697  0.0160
 9249TIP3   OH249161   5.896   0.063   4.308 -0.4269 -0.7744  0.0378
 9249TIP3    H149162   5.946   0.114   4.244 -0.4734  2.9020  2.7688
 9249TIP3    H249163   5.959   0.041   4.376 -1.7717  1.2043  1.9771
 9250TIP3   OH249164   5.797   0.681   6.175 -0.5268  0.1117 -0.7134
 9250TIP3    H149165   5.783   0.731   6.255  0.3639  0.2739 -0.6558
 9250TIP3    H249166   5.889   0.697   6.153 -0.0908 -1.9398 -0.4157
 9251TIP3   OH249167   3.133   0.039  12.617  0.0778 -0.2388 -0.0238
 9251TIP3    H149168   3.070   0.111  12.613  1.0202  0.6840  1.2045
 9251TIP3    H249169   3.080  -0.039  12.630 -0.8914  0.3890 -0.1869
 9252TIP3   OH249170   6.374   3.715   1.330  0.2380 -0.3667  0.0511
 9252TIP3    H149171   6.303   3.699   1.393  1.4682 -1.9353  1.0766
 9252TIP3    H249172   6.421   3.790   1.366 -0.4710  0.2470 -0.2747
 9253TIP3   OH249173   5.955   1.022   3.534 -0.4929 -0.0782  0.3254
 9253TIP3    H149174   5.983   1.112   3.545 -2.1061  0.4617  0.2068
 9253TIP3    H249175   5.910   1.021   3.449 -1.2882 -0.7746  0.7395
 9254TIP3   OH249176   2.484   2.947   0.260  0.0770  0.3972 -0.7226
 9254TIP3    H149177   2.509   2.871   0.207 -0.3926 -0.0507 -0.2961
 9254TIP3    H249178   2.519   2.928   0.347  0.9654  1.1981 -0.8930
 9255TIP3   OH249179   5.175   6.056  12.582 -0.1785  0.2097  0.1497
 9255TIP3    H149180   5.221   6.018  12.507 -0.6948 -0.6441  0.2639
 9255TIP3    H249181   5.242   6.059  12.651 -0.0956 -0.3895  0.1036
 9256TIP3   OH249182   0.061   4.872   6.347  0.3002  0.1699  0.0707
 9256TIP3    H149183   0.024   4.894   6.432 -1.0757  3.0990 -1.2039
 9256TIP3    H249184   0.154   4.891   6.355  0.4875 -1.2105  1.4060
 9257TIP3   OH249185   3.283   0.238   2.269 -0.1372 -0.5055 -0.6326
 9257TIP3    H149186   3.347   0.309   2.259 -0.8678  0.3157  0.3913
 9257TIP3    H249187   3.230   0.243   2.189  0.1093 -0.1954 -0.7779
 9258TIP3   OH249188   3.812   4.417   2.960  0.2240 -0.0450  0.0721
 9258TIP3    H149189   3.819   4.436   3.053 -0.2076 -0.4954  0.1914
 9258TIP3    H249190   3.859   4.334   2.948 -0.7951 -0.6256  0.0906
 9259TIP3   OH249191   4.271   5.952   0.371 -0.3420  0.6372  0.6521
 9259TIP3    H149192   4.315   6.036   0.382  1.1628 -0.1125  0.5160
 9259TIP3    H249193   4.246   5.926   0.459  2.0394 -0.2473  1.1169
 9260TIP3   OH249194   5.315   4.410  10.626  0.0801 -0.3573  0.0158
 9260TIP3    H149195   5.307   4.427  10.532 -0.2039 -0.6865 -0.0203
 9260TIP3    H249196   5.409   4.418  10.643  0.2289 -1.0250 -0.4405
 9261TIP3   OH249197   0.612   3.377   4.088 -0.0074 -0.1159  0.5735
 9261TIP3    H149198   0.580   3.374   3.998 -1.0221 -0.3584  0.9351
 9261TIP3    H249199   0.700   3.414   4.081  0.0711 -0.5000 -0.5574
 9262TIP3   OH249200   5.465   6.114  12.853 -0.2501 -0.6317 -0.0386
 9262TIP3    H149201   5.487   6.112  12.947  2.5481 -1.8574 -0.6823
 9262TIP3    H249202   5.479   6.205  12.827 -0.4479 -0.4163  0.5964
 9263TIP3   OH249203   4.727   0.193  10.922  0.1942  0.0756 -0.4104
 9263TIP3    H149204   4.632   0.188  10.919  0.1375 -0.0062  1.2313
 9263TIP3    H249205   4.753   0.203  10.830 -1.3471 -0.5824 -0.9385
 9264TIP3   OH249206   6.701   1.072  15.321  0.1631 -0.4184  0.1310
 9264TIP3    H149207   6.743   1.157  15.306 -0.3452 -0.1581  0.1833
 9264TIP3    H249208   6.657   1.082  15.405  0.1619 -0.7609  0.1729
 9265TIP3   OH249209   6.206   2.038   2.771  0.1049 -0.2192 -0.1812
 9265TIP3    H149210   6.277   1.975   2.778  0.0048 -0.2956  0.1652
 9265TIP3    H249211   6.152   2.007   2.698  0.8236  0.2410 -0.9231
 9266TIP3   OH249212   2.270   5.591  12.311 -0.0887 -0.2074  0.1068
 9266TIP3    H149213   2.360   5.558  12.306  0.0324  0.0243  0.7550
 9266TIP3    H249214   2.244   5.602  12.220  0.3696 -0.7435 -0.0966
 9267TIP3   OH249215   5.636   0.272  11.725  0.0080  0.5434  0.1443
 9267TIP3    H149216   5.721   0.262  11.681 -0.8109 -1.8718 -1.0371
 9267TIP3    H249217   5.575   0.289  11.654 -0.9179 -0.5786  0.6655
 9268TIP3   OH249218   1.479   0.737  17.210  0.2615 -0.3367 -0.1810
 9268TIP3    H149219   1.451   0.739  17.302  1.5678  1.4940  0.2074
 9268TIP3    H249220   1.398   0.745  17.160 -0.1961  2.0598  0.8767
 9269TIP3   OH249221   2.178   4.171   4.099  0.1253  0.5520  0.5370
 9269TIP3    H149222   2.192   4.105   4.031  0.2582 -0.0619  1.1559
 9269TIP3    H249223   2.095   4.146   4.140 -0.0456  1.0266  0.4755
 9270TIP3   OH249224   4.056   5.405  15.479 -0.1068 -0.0347 -0.1592
 9270TIP3    H149225   4.110   5.385  15.555  2.5807  2.1247 -1.4197
 9270TIP3    H249226   3.978   5.351  15.490  1.5730 -2.0255  2.5577
 9271TIP3   OH249227   3.060   6.230   1.939  0.2840  0.1951  0.2950
 9271TIP3    H149228   3.106   6.306   1.905  1.2096 -0.3457  0.3175
 9271TIP3    H249229   2.996   6.208   1.871 -1.0475  1.9035  0.9665
 9272TIP3   OH249230   0.461   2.109   5.282 -0.1692  0.3890  0.1135
 9272TIP3    H149231   0.433   2.025   5.319 -1.8337  0.3896 -1.0820
 9272TIP3    H249232   0.556   2.102   5.276 -0.3126 -1.5581 -0.2946
 9273TIP3   OH249233   3.808   6.468  16.530 -0.5611  0.5327  0.1466
 9273TIP3    H149234   3.770   6.389  16.491 -1.2358  0.8252  0.1929
 9273TIP3    H249235   3.839   6.439  16.616 -0.8838  0.3385  0.2004
 9274TIP3   OH249236   5.181   4.846   3.469  0.0531  0.1587 -0.7129
 9274TIP3    H149237   5.237   4.902   3.523 -0.4917  0.6034 -0.6046
 9274TIP3    H249238   5.193   4.880   3.380  0.0982  0.1276 -0.7189
 9275TIP3   OH249239   2.943   2.252   5.342  0.0994  0.6313  0.1065
 9275TIP3    H149240   2.869   2.249   5.402  1.4194 -1.9402  1.6758
 9275TIP3    H249241   2.992   2.330   5.369 -1.0410  1.3128  0.2319
 9276TIP3   OH249242   5.486   2.059   3.771  0.1195 -0.1107  0.4344
 9276TIP3    H149243   5.436   2.001   3.829  0.0176  1.1839  1.6634
 9276TIP3    H249244   5.429   2.071   3.694 -0.1950 -0.9940  0.5284
 9277TIP3   OH249245   5.568   1.307  15.747  0.4774 -0.0163 -0.1409
 9277TIP3    H149246   5.604   1.219  15.749 -0.3822 -0.3700 -0.2298
 9277TIP3    H249247   5.567   1.331  15.654  1.1864  0.2904 -0.0751
 9278TIP3   OH249248   6.217   6.574   6.064 -0.0929 -0.5860 -0.1173
 9278TIP3    H149249   6.184   6.554   6.152  1.7408 -1.0552  0.4890
 9278TIP3    H249250   6.268   6.654   6.076  1.1067 -1.2744 -0.5079
 9279TIP3   OH249251   6.039   3.210   3.785 -0.1437 -0.7076 -0.2303
 9279TIP3    H149252   6.111   3.150   3.803 -0.5561 -1.4314 -0.9199
 9279TIP3    H249253   5.960   3.159   3.804 -0.4770 -0.0380  0.1853
 9280TIP3   OH249254   4.323   1.002  13.938 -0.2464  0.1575 -0.4637
 9280TIP3    H149255   4.357   1.078  13.890 -0.7309  0.7481  0.1261
 9280TIP3    H249256   4.397   0.972  13.990 -0.5551  1.3446  0.6957
 9281TIP3   OH249257   4.127   4.129  13.539 -0.3637 -0.2277  0.1469
 9281TIP3    H149258   4.150   4.040  13.514 -0.3417 -0.0056 -0.6574
 9281TIP3    H249259   4.049   4.149  13.487 -0.0853  0.3873 -0.0450
 9282TIP3   OH249260   3.629   4.823   4.717  0.7068 -0.1064  0.5770
 9282TIP3    H149261   3.607   4.796   4.806  0.3509  0.0357  0.5336
 9282TIP3    H249262   3.547   4.856   4.681  0.8376 -0.2088  0.1808
 9283TIP3   OH249263   4.348   3.086  16.017  0.1108 -0.0390  0.5610
 9283TIP3    H149264   4.432   3.062  16.056  0.5654  2.5046  1.2477
 9283TIP3    H249265   4.283   3.060  16.082  0.6113  0.7630  1.4000
 9284TIP3   OH249266   2.983   1.014  16.253 -0.0639 -0.0640  0.5050
 9284TIP3    H149267   2.888   1.000  16.249 -0.3635  0.6608  3.7265
 9284TIP3    H249268   3.020   0.926  16.261 -0.4165 -0.3652 -0.9608
 9285TIP3   OH249269   1.545   0.193  11.735  0.1524 -0.2340  0.0579
 9285TIP3    H149270   1.635   0.161  11.728  0.8486  1.6202  0.2636
 9285TIP3    H249271   1.532   0.205  11.829 -0.8273 -1.8708  0.1545
 9286TIP3   OH249272   5.818   2.624  11.478  0.1177 -0.2681 -0.6237
 9286TIP3    H149273   5.868   2.547  11.505  0.9333 -0.5095 -2.7934
 9286TIP3    H249274   5.875   2.672  11.419 -1.6168  0.2924 -1.8968
 9287TIP3   OH249275   4.282   1.744  11.839 -0.6866  0.0346  0.7206
 9287TIP3    H149276   4.206   1.786  11.880 -1.7263 -3.0187  2.0391
 9287TIP3    H249277   4.317   1.686  11.907  1.4868 -0.2417 -0.6080
 9288TIP3   OH249278   5.065   6.030   4.988  0.9597  0.2190  0.3566
 9288TIP3    H149279   5.064   6.012   4.894  0.2463 -0.4837  0.4959
 9288TIP3    H249280   5.114   5.958   5.026  0.2781 -0.0928  0.6466
 9289TIP3   OH249281   0.264   4.572   6.541  0.3752 -0.4950  0.1288
 9289TIP3    H149282   0.315   4.524   6.475  0.4427 -1.1684  0.6586
 9289TIP3    H249283   0.306   4.658   6.545  1.4271 -1.0073  0.4844
 9290TIP3   OH249284   0.017   4.250  17.006  0.0645 -0.1981 -0.3016
 9290TIP3    H149285   0.024   4.166  16.962  2.8184  0.5611 -1.4009
 9290TIP3    H249286  -0.077   4.265  17.014 -0.4748 -3.3713 -0.0321
 9291TIP3   OH249287   0.284   0.885  17.102 -0.1979  0.0092  0.3409
 9291TIP3    H149288   0.311   0.930  17.182  0.2268 -1.2501  0.9144
 9291TIP3    H249289   0.210   0.937  17.070 -0.3412  0.5620  1.5111
 9292TIP3   OH249290   0.082   3.357  16.259 -0.1659 -0.0689 -0.7582
 9292TIP3    H149291   0.143   3.354  16.332 -0.5563  0.6240 -0.4052
 9292TIP3    H249292   0.037   3.272  16.263  1.5712 -1.0770 -1.7194
 9293TIP3   OH249293   2.909   0.879   5.330  0.4374 -0.3745 -0.2874
 9293TIP3    H149294   2.858   0.869   5.411 -2.7005 -0.8442 -2.2502
 9293TIP3    H249295   2.914   0.790   5.294 -0.8299  0.2691 -2.1241
 9294TIP3   OH249296   0.718   2.565  13.342 -0.3204 -0.0532  0.1866
 9294TIP3    H149297   0.739   2.476  13.372  1.1155 -0.0468 -0.7285
 9294TIP3    H249298   0.707   2.616  13.422  0.0908 -0.7857  0.7123
 9295TIP3   OH249299   0.697   2.615  13.046  0.2912 -0.0632  0.0271
 9295TIP3    H149300   0.707   2.612  13.142  1.3696 -1.9701 -0.1149
 9295TIP3    H249301   0.780   2.649  13.014  0.4055 -0.6235 -0.2857
 9296TIP3   OH249302   5.649   1.535   1.146  0.2542 -0.0653  0.2446
 9296TIP3    H149303   5.714   1.519   1.077 -0.5299  0.8405 -0.7177
 9296TIP3    H249304   5.670   1.470   1.213  1.3902 -0.5913 -0.5844
 9297TIP3   OH249305   1.743   3.482  13.230  0.1620 -1.2730 -0.2460
 9297TIP3    H149306   1.748   3.554  13.167 -0.9422 -2.1462 -1.3471
 9297TIP3    H249307   1.738   3.525  13.315  1.1127 -0.0696 -0.7717
 9298TIP3   OH249308   3.014   5.133  16.573 -0.6126  0.0577 -0.2450
 9298TIP3    H149309   2.930   5.158  16.536 -0.0175  0.1397 -1.5640
 9298TIP3    H249310   3.012   5.167  16.662 -1.4200  1.2687 -0.7092
 9299TIP3   OH249311   3.111   0.816  15.981  0.3455 -0.1755 -0.1834
 9299TIP3    H149312   3.166   0.865  16.043  1.6718 -1.8464 -0.0048
 9299TIP3    H249313   3.166   0.806  15.903 -0.4441 -0.1494 -0.7464
 9300TIP3   OH249314   1.247   4.833  13.233 -0.3205 -0.0273  0.1330
 9300TIP3    H149315   1.243   4.915  13.183 -1.0903 -0.0436  0.1718
 9300TIP3    H249316   1.338   4.804  13.222 -0.0535  0.8054  0.0827
 9301TIP3   OH249317   3.742   4.453   4.786 -0.1290  0.1509  0.6150
 9301TIP3    H149318   3.650   4.466   4.764  0.4622  3.2960 -0.2933
 9301TIP3    H249319   3.780   4.410   4.710 -0.1591  2.0475 -0.5149
 9302TIP3   OH249320   1.472   6.491   4.921  0.2638 -0.3810  0.2201
 9302TIP3    H149321   1.442   6.575   4.886  0.3013 -0.3445  0.2741
 9302TIP3    H249322   1.409   6.470   4.990 -0.2136 -0.7984 -0.3366
 9303TIP3   OH249323   2.645   0.106  16.225 -0.2372  0.3485 -0.0044
 9303TIP3    H149324   2.557   0.106  16.263 -0.7058  1.3264 -1.0639
 9303TIP3    H249325   2.703   0.086  16.299 -1.2606  0.6679  0.8972
 9304TIP3   OH249326   5.351   2.373  15.758  0.0936 -0.4871  0.0093
 9304TIP3    H149327   5.371   2.356  15.666 -1.1388 -1.6931 -0.0544
 9304TIP3    H249328   5.419   2.325  15.806 -0.1701 -1.1436 -0.2603
 9305TIP3   OH249329   4.594   6.761   2.549  0.2274 -0.3778 -0.2027
 9305TIP3    H149330   4.650   6.831   2.517 -0.2066  0.3088  0.5437
 9305TIP3    H249331   4.633   6.734   2.632 -0.1526 -0.3699 -0.0194
 9306TIP3   OH249332   6.537   1.894  14.523 -0.3871 -0.1241  0.0847
 9306TIP3    H149333   6.488   1.869  14.445  0.1203  1.0072 -0.6045
 9306TIP3    H249334   6.494   1.974  14.554 -0.4423 -0.4430  0.8334
 9307TIP3   OH249335   6.468   2.496   3.027  0.8844  0.0562 -0.7024
 9307TIP3    H149336   6.558   2.492   3.060  0.1749 -2.5158  1.0063
 9307TIP3    H249337   6.422   2.427   3.074 -1.5806  0.1681 -2.8662
 9308TIP3   OH249338   0.365   0.395  12.276 -0.2784  0.4319 -0.4281
 9308TIP3    H149339   0.309   0.352  12.340  0.6336  0.1484  0.1880
 9308TIP3    H249340   0.359   0.341  12.197 -2.1495  1.3006 -0.9103
 9309TIP3   OH249341   1.316   3.903   2.235  0.2104 -0.5586 -0.4954
 9309TIP3    H149342   1.238   3.929   2.186 -0.3138  0.9054  1.0778
 9309TIP3    H249343   1.282   3.864   2.316  1.0833  0.7025  0.5029
 9310TIP3   OH249344   2.744   3.231  13.813  0.0677  0.6699  0.3469
 9310TIP3    H149345   2.760   3.248  13.906  0.3192 -2.4373  0.9348
 9310TIP3    H249346   2.739   3.135  13.807  0.7489  0.7786 -2.9429
 9311TIP3   OH249347   0.664   5.222  17.183 -0.1798 -0.0780  0.0375
 9311TIP3    H149348   0.757   5.198  17.180 -0.0970  0.0093  1.6183
 9311TIP3    H249349   0.662   5.312  17.149  0.0888 -0.6833 -1.5950
 9312TIP3   OH249350   4.085   2.123  15.996  0.1727  0.2441  0.2335
 9312TIP3    H149351   4.148   2.193  15.974  0.7114 -0.4237 -0.3955
 9312TIP3    H249352   4.140   2.052  16.029  0.0399 -1.3781 -2.9011
 9313TIP3   OH249353   1.274   4.484   0.831 -0.4745 -0.2826  0.4209
 9313TIP3    H149354   1.208   4.454   0.768 -0.6269  1.8405 -0.4813
 9313TIP3    H249355   1.358   4.460   0.791 -0.6576 -1.8021  0.9382
 9314TIP3   OH249356   5.617   6.305   5.842 -0.1329 -0.0635  0.0289
 9314TIP3    H149357   5.709   6.305   5.865  0.0139 -0.9359 -0.5311
 9314TIP3    H249358   5.615   6.276   5.751 -1.0469 -1.2635  0.4230
 9315TIP3   OH249359   3.577   0.060   2.463  0.0866 -0.2705  0.3666
 9315TIP3    H149360   3.641   0.127   2.440 -1.6380  0.9492 -0.9849
 9315TIP3    H249361   3.525   0.049   2.383 -1.7995 -0.7793  1.6622
 9316TIP3   OH249362   1.185   4.053   0.330 -0.3747 -0.0030 -0.3399
 9316TIP3    H149363   1.166   4.008   0.248 -2.1914 -0.6145  0.4065
 9316TIP3    H249364   1.113   4.114   0.342  0.7382  1.2742 -0.0174
 9317TIP3   OH249365   4.137   2.722   6.000  0.3408 -0.1843 -0.1546
 9317TIP3    H149366   4.226   2.751   5.981  0.7147 -1.2504 -0.0263
 9317TIP3    H249367   4.134   2.712   6.095  0.1010 -0.2056 -0.1629
 9318TIP3   OH249368   1.566   3.867   6.262  0.2502 -0.0573  0.1140
 9318TIP3    H149369   1.517   3.871   6.344 -1.1397  2.5504 -0.7793
 9318TIP3    H249370   1.657   3.887   6.287 -0.3359  1.7113  0.9136
 9319TIP3   OH249371   1.687   4.507  14.675 -0.1127  0.4860 -1.1221
 9319TIP3    H149372   1.651   4.553  14.751 -0.3147 -1.3802 -0.0333
 9319TIP3    H249373   1.631   4.533  14.602 -1.7477  0.0546 -0.0517
 9320TIP3   OH249374   4.763   3.692   3.823  0.3248  0.3180  0.0777
 9320TIP3    H149375   4.694   3.655   3.878 -0.2699  0.0521 -0.8524
 9320TIP3    H249376   4.844   3.663   3.865 -0.0844  1.6235  1.8681
 9321TIP3   OH249377   6.500   0.817  12.172  0.4392  0.1715 -0.1094
 9321TIP3    H149378   6.581   0.774  12.145  0.1557  0.3203 -1.1856
 9321TIP3    H249379   6.447   0.822  12.093  0.0430  1.5750  0.2365
 9322TIP3   OH249380   4.600   3.746   4.715  0.2695 -0.2364 -0.5189
 9322TIP3    H149381   4.590   3.790   4.799 -0.3167 -0.2600 -0.5777
 9322TIP3    H249382   4.672   3.793   4.672  1.4004 -1.0203  0.4990
 9323TIP3   OH249383   0.828   3.464  11.759  0.2983 -0.9929 -0.0823
 9323TIP3    H149384   0.756   3.510  11.714  1.0296 -1.8979 -2.2541
 9323TIP3    H249385   0.852   3.523  11.831  2.1458  2.8729 -3.5908
 9324TIP3   OH249386   0.342   0.812  16.299 -0.1803 -0.5988 -0.0639
 9324TIP3    H149387   0.413   0.791  16.361  0.8108  3.3531  0.2533
 9324TIP3    H249388   0.385   0.816  16.214 -0.4194 -0.2596 -0.1701
 9325TIP3   OH249389   3.657   2.871  14.985 -0.3930 -0.0509  0.0004
 9325TIP3    H149390   3.639   2.778  14.969 -1.4866  0.2233 -0.3930
 9325TIP3    H249391   3.677   2.875  15.079  2.0258 -1.0390 -0.4295
 9326TIP3   OH249392   5.923   4.805  12.173 -0.3107 -0.4956 -0.1900
 9326TIP3    H149393   5.873   4.814  12.091 -1.1561 -4.1616 -0.1649
 9326TIP3    H249394   5.856   4.802  12.241  0.2494 -0.4107  0.3654
 9327TIP3   OH249395   2.285   6.746  14.321 -0.0166  0.1413  0.3486
 9327TIP3    H149396   2.305   6.693  14.398 -1.0742 -0.0764  0.4864
 9327TIP3    H249397   2.195   6.721  14.298  0.4479 -0.1211 -1.2194
 9328TIP3   OH249398   2.996   1.249  17.079  0.3078 -0.3462  0.7671
 9328TIP3    H149399   3.030   1.329  17.119 -2.9488  1.5189  0.0363
 9328TIP3    H249400   3.057   1.230  17.007  0.0442  2.7040 -0.3260
 9329TIP3   OH249401   4.691   5.902  13.882  0.3018 -0.7484 -0.3565
 9329TIP3    H149402   4.623   5.968  13.871  0.2613 -0.5635  0.9893
 9329TIP3    H249403   4.755   5.922  13.814  0.4210  0.8436  0.2115
 9330TIP3   OH249404   5.954   0.900   2.298  0.1988  0.1172 -0.3100
 9330TIP3    H149405   5.874   0.896   2.245  0.7251  0.6768 -1.1571
 9330TIP3    H249406   5.936   0.843   2.373 -1.4901  1.2360  0.1716
 9331TIP3   OH249407   3.527   1.147  15.734  0.2047 -0.6500 -0.0282
 9331TIP3    H149408   3.494   1.222  15.782 -1.1625 -0.1869 -1.6454
 9331TIP3    H249409   3.546   1.081  15.801  1.3042  1.0740  1.3751
 9332TIP3   OH249410   4.746   6.260   3.368 -0.0531 -0.1616 -0.7264
 9332TIP3    H149411   4.767   6.335   3.312  2.2634 -0.8749 -0.8541
 9332TIP3    H249412   4.687   6.207   3.315 -0.6562  0.9179 -1.1454
 9333TIP3   OH249413   5.576   2.202   6.309  0.4341  0.0288  0.7279
 9333TIP3    H149414   5.516   2.184   6.382 -0.9527  0.4868 -0.2747
 9333TIP3    H249415   5.561   2.294   6.289 -0.4446 -0.5200 -1.2406
 9334TIP3   OH249416   4.528   6.109  15.858  0.1729  0.0039 -0.0789
 9334TIP3    H149417   4.525   6.160  15.777  0.6599  1.0768  0.5609
 9334TIP3    H249418   4.617   6.123  15.891  0.6612 -2.1549 -0.4524
 9335TIP3   OH249419   6.439   1.613   0.076 -0.2381 -0.5740  0.7689
 9335TIP3    H149420   6.528   1.593   0.047  0.3316  0.3561  1.8114
 9335TIP3    H249421   6.451   1.669   0.153 -1.7271 -0.4024  0.8962
 9336TIP3   OH249422   2.057   1.647   3.060  0.4626 -0.0552 -0.5790
 9336TIP3    H149423   2.121   1.606   3.119  2.0933  0.2065 -2.1432
 9336TIP3    H249424   2.073   1.741   3.069 -0.8548  0.0982  0.2886
 9337TIP3   OH249425   5.727   2.005   2.760 -0.5155 -0.0609 -0.7173
 9337TIP3    H149426   5.748   2.088   2.804  1.6713 -1.4381  0.9464
 9337TIP3    H249427   5.779   2.007   2.680  1.5551 -0.8868  0.5598
 9338TIP3   OH249428   6.430   4.773   5.252 -0.3230  0.4019  0.0023
 9338TIP3    H149429   6.379   4.721   5.189  0.1784  1.0293 -0.9410
 9338TIP3    H249430   6.384   4.857   5.256  1.0454  1.2504 -1.4514
 9339TIP3   OH249431   4.964   5.097   2.480  0.0604 -0.0102 -0.6479
 9339TIP3    H149432   4.953   5.163   2.549 -2.0065 -0.7718 -0.2249
 9339TIP3    H249433   4.944   5.014   2.523 -0.7500 -0.5462 -2.0284
 9340TIP3   OH249434   2.388   5.522  15.173 -0.2788  0.2798  0.2765
 9340TIP3    H149435   2.482   5.516  15.155 -0.5454  0.8475 -1.4030
 9340TIP3    H249436   2.361   5.432  15.192  0.4086 -0.0491 -0.2914
 9341TIP3   OH249437   1.573   0.656  13.114  0.2628 -0.1950  0.2603
 9341TIP3    H149438   1.517   0.667  13.036 -0.0520  1.6441  0.7077
 9341TIP3    H249439   1.653   0.616  13.081  1.1977  2.9801 -1.5143
 9342TIP3   OH249440   1.858   4.669  11.464  0.5777 -0.3801 -0.1526
 9342TIP3    H149441   1.927   4.619  11.421  0.1354 -0.3876 -0.8509
 9342TIP3    H249442   1.778   4.642  11.420  0.2832  0.6023 -0.2223
 9343TIP3   OH249443   0.039   1.625  14.859  0.1850 -0.5479 -0.6567
 9343TIP3    H149444   0.094   1.692  14.818  0.9559 -1.1976 -0.7007
 9343TIP3    H249445   0.010   1.665  14.941  0.8882 -0.2633 -0.5374
 9344TIP3   OH249446   2.432   2.147  15.556  0.2636  0.6666  0.1566
 9344TIP3    H149447   2.390   2.074  15.510 -1.6876  0.7505  1.7579
 9344TIP3    H249448   2.520   2.152  15.517 -0.2610 -1.2433 -1.3642
 9345TIP3   OH249449   2.418   5.933   2.256  0.0068 -0.4795  0.1885
 9345TIP3    H149450   2.406   5.968   2.344 -0.2174 -0.6220  0.2143
 9345TIP3    H249451   2.512   5.912   2.251 -0.5295 -3.4362  1.4906
 9346TIP3   OH249452   5.220   3.200   5.492 -0.5236 -0.4048  0.2237
 9346TIP3    H149453   5.300   3.252   5.498 -0.0226 -1.3917  2.6302
 9346TIP3    H249454   5.150   3.262   5.512 -0.0824 -0.2430  1.3121
 9347TIP3   OH249455   0.384   1.622   5.122 -0.3252 -1.2143  0.1859
 9347TIP3    H149456   0.428   1.695   5.165 -1.4951 -1.7768  2.4345
 9347TIP3    H249457   0.389   1.642   5.029  0.1940  1.2392  0.7123
 9348TIP3   OH249458   3.063   4.678  16.860  0.2348 -0.2588 -0.0897
 9348TIP3    H149459   3.012   4.600  16.837  0.9569 -0.9883  0.7826
 9348TIP3    H249460   3.154   4.654  16.843  0.4610  0.3946  0.1809
 9349TIP3   OH249461   1.864   3.175   4.277 -0.6458 -0.0365  0.8235
 9349TIP3    H149462   1.840   3.151   4.187  0.3947 -0.2809  0.6002
 9349TIP3    H249463   1.942   3.230   4.266  1.2543 -2.4750  1.7366
 9350TIP3   OH249464   3.559   4.229   0.388 -0.1366  0.2312  0.1644
 9350TIP3    H149465   3.504   4.256   0.461  1.1815  0.7703  0.9641
 9350TIP3    H249466   3.622   4.169   0.426 -1.0152 -1.4695 -1.0088
 9351TIP3   OH249467   3.599   3.729   4.164  0.0740 -0.0157 -0.4001
 9351TIP3    H149468   3.505   3.712   4.166  0.1359 -0.4792 -1.2682
 9351TIP3    H249469   3.611   3.803   4.224 -0.3428 -2.3362  2.6768
 9352TIP3   OH249470   5.968   5.410   5.793  0.1774  0.2985  0.1585
 9352TIP3    H149471   5.895   5.432   5.735 -0.5336  0.0585  0.9577
 9352TIP3    H249472   5.972   5.482   5.855  1.4932  0.9832 -0.7070
 9353TIP3   OH249473   4.811   3.140   0.944 -0.1906 -0.0515  0.1761
 9353TIP3    H149474   4.869   3.209   0.911 -2.8163  2.8946  1.4891
 9353TIP3    H249475   4.838   3.127   1.035 -1.0752  0.8037  0.5699
 9354TIP3   OH249476   0.452   3.974  16.350 -0.3323 -0.6583 -0.0162
 9354TIP3    H149477   0.507   4.003  16.423  0.0697 -1.0009 -0.1761
 9354TIP3    H249478   0.364   3.970  16.386 -0.5551  1.7081 -0.2502
 9355TIP3   OH249479   2.622   6.216   0.755  0.3621  0.6330  0.1221
 9355TIP3    H149480   2.626   6.151   0.824  3.7939  1.5599  0.8722
 9355TIP3    H249481   2.634   6.167   0.674  0.9632  0.0886  0.5405
 9356TIP3   OH249482   3.425   2.191   6.498 -0.3205 -0.1882  0.6120
 9356TIP3    H149483   3.380   2.268   6.462 -1.0066 -1.2855 -0.9480
 9356TIP3    H249484   3.511   2.223   6.522 -1.0645  1.3796  1.2561
 9357TIP3   OH249485   0.187   2.441  11.290 -0.3506 -0.6369 -0.2888
 9357TIP3    H149486   0.160   2.349  11.291  0.8736 -1.0035  1.8944
 9357TIP3    H249487   0.280   2.438  11.267 -0.5311  0.1251 -1.1286
 9358TIP3   OH249488   2.075   4.287   2.726  0.3379 -0.5370  0.4774
 9358TIP3    H149489   1.992   4.277   2.678  0.8166 -1.0156 -0.2551
 9358TIP3    H249490   2.048   4.302   2.817 -0.5953  0.9374 -0.0171
 9359TIP3   OH249491   2.561   3.259   3.308  0.5875 -0.7028  0.1111
 9359TIP3    H149492   2.651   3.255   3.276  1.2450 -0.3766  1.8646
 9359TIP3    H249493   2.507   3.256   3.229  2.2009  1.5870 -1.1121
 9360TIP3   OH249494   2.754   0.145   4.239  0.0857 -0.4076 -0.0810
 9360TIP3    H149495   2.692   0.214   4.260 -0.9356 -1.8513  1.8451
 9360TIP3    H249496   2.829   0.190   4.201 -1.3595  1.5445 -0.6900
 9361TIP3   OH249497   5.088   1.033   5.180  0.1439 -0.0703  0.5119
 9361TIP3    H149498   5.065   0.960   5.123  1.1877  0.7117 -0.9213
 9361TIP3    H249499   5.061   1.111   5.132 -0.4061  0.5391  1.7734
 9362TIP3   OH249500   6.663   6.354  13.196  0.3193  0.1702  0.3379
 9362TIP3    H149501   6.725   6.335  13.266 -0.5692  1.7911  1.6088
 9362TIP3    H249502   6.717   6.385  13.123  0.9644  2.2820  1.6927
 9363TIP3   OH249503   4.083   0.830  11.107  0.1491  0.4266 -0.5397
 9363TIP3    H149504   4.095   0.925  11.097  2.7724  0.2327  0.2878
 9363TIP3    H249505   4.026   0.821  11.184  0.4190  1.3244 -0.2265
 9364TIP3   OH249506   2.669   3.293   6.073 -0.2382 -0.0294 -0.0676
 9364TIP3    H149507   2.665   3.276   5.979  0.4441  0.3815 -0.1803
 9364TIP3    H249508   2.717   3.376   6.080  1.1812 -0.8850  0.7109
 9365TIP3   OH249509   0.542   3.732   5.384  0.8638 -0.1830 -0.5111
 9365TIP3    H149510   0.559   3.685   5.466  2.0418 -0.2338 -0.7821
 9365TIP3    H249511   0.600   3.692   5.321 -0.7180 -0.7877 -1.6211
 9366TIP3   OH249512   2.954   1.332   5.272 -0.8034  0.1370  0.0521
 9366TIP3    H149513   3.041   1.326   5.312 -0.8853  0.3283  0.2589
 9366TIP3    H249514   2.970   1.326   5.178 -0.4101  1.9539 -0.0117
 9367TIP3   OH249515   0.161   4.329   3.852 -0.2114  0.1820  0.4232
 9367TIP3    H149516   0.225   4.258   3.850 -1.3843 -0.8913  0.5123
 9367TIP3    H249517   0.076   4.286   3.848 -0.9270  1.7016 -2.0485
 9368TIP3   OH249518   3.279   4.954   1.820 -0.5174  0.4413 -0.3087
 9368TIP3    H149519   3.306   5.045   1.829 -2.2531  1.0146 -0.8693
 9368TIP3    H249520   3.315   4.911   1.898 -0.7774  1.8555  0.6167
 9369TIP3   OH249521   4.157   4.037  12.998 -0.2575  0.3102 -0.1915
 9369TIP3    H149522   4.150   4.027  13.093 -1.5196 -1.1811 -0.4286
 9369TIP3    H249523   4.133   3.952  12.963 -0.2445  0.9821 -1.8708
 9370TIP3   OH249524   6.142   5.296   4.415 -0.5307  0.0946  0.2528
 9370TIP3    H149525   6.109   5.223   4.467 -1.3485 -0.3700 -0.9058
 9370TIP3    H249526   6.212   5.258   4.362 -0.3897  0.3440  0.2595
 9371TIP3   OH249527   4.096   3.622   0.089  0.5248  0.1199 -0.6620
 9371TIP3    H149528   4.083   3.528   0.102 -0.5650  0.2250 -1.0061
 9371TIP3    H249529   4.179   3.628   0.042  2.1389 -0.5148  1.9980
 9372TIP3   OH249530   6.037   2.159   3.821 -0.2955 -0.5891  0.1236
 9372TIP3    H149531   6.032   2.254   3.816  0.2369 -0.6669 -2.7000
 9372TIP3    H249532   6.131   2.140   3.820 -0.4081 -1.1754 -1.0710
 9373TIP3   OH249533   2.479   1.988  14.264  0.3147 -0.1835 -0.2791
 9373TIP3    H149534   2.384   1.980  14.272  0.4391 -0.4005  1.0260
 9373TIP3    H249535   2.504   2.048  14.334  1.2757 -1.0834  0.1634
 9374TIP3   OH249536   2.391   6.494  11.443  0.2258 -0.1163 -0.6037
 9374TIP3    H149537   2.385   6.584  11.477  0.0286 -0.5426  0.5192
 9374TIP3    H249538   2.311   6.483  11.391  0.7869  0.7282 -1.6517
 9375TIP3   OH249539   0.458   6.772  16.650  0.1928  0.1509  0.4381
 9375TIP3    H149540   0.506   6.821  16.716  0.3691  0.8453 -0.1880
 9375TIP3    H249541   0.392   6.834  16.618  1.0247  0.3156 -1.0353
 9376TIP3   OH249542   5.439   6.693  17.071  0.0228 -0.2539 -0.1437
 9376TIP3    H149543   5.414   6.681  16.980  1.4306  0.4534 -0.6306
 9376TIP3    H249544   5.389   6.626  17.119  0.3337 -1.5470 -1.5969
 9377TIP3   OH249545   2.365   6.250   4.569 -0.3474 -0.6186 -0.3673
 9377TIP3    H149546   2.349   6.163   4.605 -0.3888  0.3735  2.0772
 9377TIP3    H249547   2.460   6.253   4.555 -0.2688 -0.8572  0.1088
 9378TIP3   OH249548   0.728   5.445   1.655  0.3375 -0.1553 -0.9456
 9378TIP3    H149549   0.777   5.519   1.691 -2.1447  1.1612 -0.1690
 9378TIP3    H249550   0.706   5.472   1.565 -2.2185  0.9476 -0.0485
 9379TIP3   OH249551   4.115   1.293   2.032 -0.1523  0.2314 -0.3598
 9379TIP3    H149552   4.113   1.205   1.994  0.8341  1.0564 -2.3727
 9379TIP3    H249553   4.131   1.351   1.958 -2.3586  2.2842  0.7113
 9380TIP3   OH249554   4.808   0.740   4.173  0.2757 -0.1071  0.2068
 9380TIP3    H149555   4.775   0.667   4.225 -2.0874 -0.0844 -1.1748
 9380TIP3    H249556   4.830   0.701   4.088 -0.5899  0.6982 -0.3932
 9381TIP3   OH249557   5.352   6.712   1.897  0.4826  0.0701  0.3458
 9381TIP3    H149558   5.430   6.666   1.930  1.5194  0.8215 -1.0002
 9381TIP3    H249559   5.337   6.781   1.961  0.8586 -0.1473  0.6742
 9382TIP3   OH249560   1.107   3.603  10.651  0.1349  0.0304  0.2068
 9382TIP3    H149561   1.176   3.668  10.639 -0.8704  0.7200 -2.0774
 9382TIP3    H249562   1.144   3.522  10.616  0.7775 -0.2630  1.5311
 9383TIP3   OH249563   4.473   3.415   2.014  0.4935 -0.3891  0.1127
 9383TIP3    H149564   4.387   3.388   1.983 -0.2758  0.1626  1.7205
 9383TIP3    H249565   4.456   3.493   2.068  2.1959  0.8126 -1.0395
 9384TIP3   OH249566   6.545   5.204  14.237  0.6372 -0.3868  0.7372
 9384TIP3    H149567   6.607   5.275  14.257  1.2255 -0.9631  0.9653
 9384TIP3    H249568   6.463   5.250  14.216  1.1196  0.3774  0.4861
 9385TIP3   OH249569   1.460   1.156   4.838  0.1613  0.6254  0.0028
 9385TIP3    H149570   1.554   1.141   4.840  0.5540  2.5039 -2.0230
 9385TIP3    H249571   1.427   1.093   4.773 -0.3400 -1.6126  2.3720
 9386TIP3   OH249572   0.942   5.046  12.152  0.0823 -0.0657  0.1351
 9386TIP3    H149573   1.029   5.005  12.151 -1.1658 -2.8779  0.7359
 9386TIP3    H249574   0.921   5.054  12.245 -2.5087 -4.5271  0.0873
 9387TIP3   OH249575   4.339   2.410   5.027  0.2410  0.0002  0.2268
 9387TIP3    H149576   4.397   2.452   5.090 -0.4694  0.7112  0.4201
 9387TIP3    H249577   4.304   2.334   5.074  1.0470 -0.4560  0.0934
 9388TIP3   OH249578   3.143   4.715  14.311 -0.1897 -0.6774  0.1198
 9388TIP3    H149579   3.193   4.647  14.356  1.5852 -0.0336 -0.8016
 9388TIP3    H249580   3.207   4.758  14.254 -1.5055  1.0588 -0.1097
 9389TIP3   OH249581   3.464   2.138   1.490  0.8181 -0.0194  0.7819
 9389TIP3    H149582   3.403   2.172   1.425  0.4632 -2.9432 -0.4945
 9389TIP3    H249583   3.549   2.173   1.463  0.2649  1.1371  0.4727
 9390TIP3   OH249584   4.321   5.160  15.180  0.3964 -0.1577 -0.2447
 9390TIP3    H149585   4.315   5.224  15.251  0.8545 -0.9937  0.5545
 9390TIP3    H249586   4.231   5.127  15.169  0.5923 -1.1183  0.9669
 9391TIP3   OH249587   4.538   5.778   5.711  0.0453 -0.1663  0.5347
 9391TIP3    H149588   4.546   5.797   5.805 -1.4051  0.7991  0.4829
 9391TIP3    H249589   4.544   5.864   5.669 -1.4722 -0.3466 -0.0835
 9392TIP3   OH249590   2.949   4.322   5.761 -1.2588  0.3598  0.5931
 9392TIP3    H149591   2.873   4.265   5.771 -0.9493 -0.3087 -0.6811
 9392TIP3    H249592   3.006   4.274   5.700 -0.7289  1.7548 -0.0194
 9393TIP3   OH249593   2.326   2.756  10.422  0.0048 -0.0926 -0.2587
 9393TIP3    H149594   2.326   2.846  10.390 -1.2145 -0.1458 -0.4258
 9393TIP3    H249595   2.293   2.704  10.349 -1.4726 -0.3853  0.5908
 9394TIP3   OH249596   6.536   2.704   2.384 -0.3427  0.1472 -0.0585
 9394TIP3    H149597   6.465   2.767   2.370 -1.6468 -0.8584  1.7631
 9394TIP3    H249598   6.559   2.715   2.477  1.0637 -0.4030 -0.3238
 9395TIP3   OH249599   1.173   5.987   2.465 -0.6392  0.0435 -0.2783
 9395TIP3    H149600   1.222   5.916   2.422  0.4897  0.9583 -0.5384
 9395TIP3    H249601   1.188   6.063   2.409 -3.9085 -0.0434 -1.3871
 9396TIP3   OH249602   1.107   5.852   5.687  1.2726 -0.1528  0.1237
 9396TIP3    H149603   1.120   5.911   5.612 -4.0242  1.1829  0.0801
 9396TIP3    H249604   1.163   5.887   5.756  0.9481  2.7734 -1.0520
 9397TIP3   OH249605   6.223   1.229   2.789  0.0324 -0.2213 -0.3289
 9397TIP3    H149606   6.283   1.229   2.863 -0.7670 -4.1689  0.4227
 9397TIP3    H249607   6.137   1.247   2.828 -0.1353 -0.5573 -0.5399
 9398TIP3   OH249608   6.460   5.536  13.770  0.1519 -0.1700 -0.1435
 9398TIP3    H149609   6.555   5.542  13.778  0.1165  0.8929 -0.4763
 9398TIP3    H249610   6.436   5.464  13.828  1.3442 -1.6351 -1.3833
 9399TIP3   OH249611   4.125   4.802   0.446 -0.3640  0.1646  0.0974
 9399TIP3    H149612   4.144   4.894   0.427 -0.1796  0.2531  0.6936
 9399TIP3    H249613   4.052   4.804   0.507 -2.2416 -0.1853 -2.1022
 9400TIP3   OH249614   2.432   4.587   1.168  0.7816  0.1595 -0.0349
 9400TIP3    H149615   2.451   4.564   1.078 -0.1821 -1.1839  0.0911
 9400TIP3    H249616   2.348   4.633   1.165  0.9641  0.5102  0.1298
 9401TIP3   OH249617   2.166   2.771   6.529 -0.2468 -0.0413  0.0184
 9401TIP3    H149618   2.259   2.757   6.508 -0.5570 -1.1022 -0.6986
 9401TIP3    H249619   2.167   2.840   6.596  1.1012 -0.4184  0.4161
 9402TIP3   OH249620   2.722   4.188   5.598 -0.1425 -0.2190  0.2862
 9402TIP3    H149621   2.647   4.143   5.558  0.1546 -0.1369 -0.3636
 9402TIP3    H249622   2.788   4.120   5.609 -0.6384 -0.4747  1.6741
 9403TIP3   OH249623   4.937   1.458  12.708 -0.1128  0.2589 -0.2020
 9403TIP3    H149624   4.892   1.481  12.789  2.0280  0.9429  0.8214
 9403TIP3    H249625   4.980   1.374  12.728 -1.2067 -0.5787 -1.2879
 9404TIP3   OH249626   3.721   4.817  17.136  0.1585 -0.1353 -0.4587
 9404TIP3    H149627   3.797   4.761  17.150  0.7885  0.5036 -1.2269
 9404TIP3    H249628   3.682   4.784  17.055  0.5363  0.5289 -0.9198
 9405TIP3   OH249629   1.306   4.213   5.601  0.0381  0.1164 -0.4634
 9405TIP3    H149630   1.238   4.277   5.623 -0.8984 -0.8363 -0.5713
 9405TIP3    H249631   1.314   4.219   5.506  1.7009  1.8169 -0.2512
 9406TIP3   OH249632   3.932   0.005  12.413 -0.2955 -0.1844  0.0124
 9406TIP3    H149633   4.023  -0.016  12.432 -0.0588  1.1083  0.3302
 9406TIP3    H249634   3.936   0.089  12.366 -1.1309 -1.3931 -2.2912
 9407TIP3   OH249635   0.510   5.782   1.860 -0.9158  0.0904 -0.3172
 9407TIP3    H149636   0.583   5.731   1.895 -0.8619  1.2944  1.4011
 9407TIP3    H249637   0.434   5.749   1.908 -1.2703 -0.1265 -1.0267
 9408TIP3   OH249638   5.396   5.569  14.519  0.4526 -0.1268  0.3969
 9408TIP3    H149639   5.414   5.570  14.425 -0.1081  3.8029  0.2770
 9408TIP3    H249640   5.482   5.559  14.559  1.2000  2.2492 -0.5151
 9409TIP3   OH249641   1.311   3.535   3.432  0.1727  0.4954  0.3127
 9409TIP3    H149642   1.324   3.605   3.496 -0.3107 -0.7236  1.7746
 9409TIP3    H249643   1.283   3.580   3.353  0.4536  2.0071  1.0542
 9410TIP3   OH249644   1.697   1.033   4.483  0.3190 -0.1038 -0.2220
 9410TIP3    H149645   1.681   1.118   4.525 -2.2320  0.2870 -1.8357
 9410TIP3    H249646   1.718   0.974   4.556 -0.9075  1.2454  1.2729
 9411TIP3   OH249647   2.961   2.266  12.343  0.0265  0.5746  0.3428
 9411TIP3    H149648   2.964   2.230  12.432  0.3119 -0.5074 -0.1061
 9411TIP3    H249649   2.907   2.204  12.294  1.8075 -0.0814 -0.8084
 9412TIP3   OH249650   3.244   2.989   4.560 -0.0340  0.1897  0.7765
 9412TIP3    H149651   3.231   2.986   4.655 -0.4758  1.8586  0.7831
 9412TIP3    H249652   3.158   3.008   4.524 -0.3510 -2.7910 -0.1465
 9413TIP3   OH249653   4.115   1.756  14.311  0.9743  0.0907  0.2854
 9413TIP3    H149654   4.192   1.782  14.361  2.1326 -0.1254 -1.3585
 9413TIP3    H249655   4.115   1.660  14.315  0.9274  0.0808  0.0712
 9414TIP3   OH249656   5.360   6.407   3.312  0.0822  0.3946  0.3832
 9414TIP3    H149657   5.392   6.473   3.372  1.4180 -1.6799  2.0014
 9414TIP3    H249658   5.434   6.348   3.298 -1.3649 -1.3222 -0.2453
 9415TIP3   OH249659   3.408   3.200  11.392  0.4462  0.4655  0.5537
 9415TIP3    H149660   3.320   3.162  11.385  0.3117  0.8813 -0.0302
 9415TIP3    H249661   3.467   3.130  11.367  0.1604  0.8781 -1.3493
 9416TIP3   OH249662   5.508   6.779   0.426  0.3168  0.0379 -0.4409
 9416TIP3    H149663   5.413   6.770   0.432  0.5412 -1.6901  1.2380
 9416TIP3    H249664   5.539   6.694   0.395  1.3893  0.1883  0.1713
 9417TIP3   OH249665   0.077   2.978   0.191  0.0380  0.4507 -0.0758
 9417TIP3    H149666   0.162   2.957   0.231 -1.0228 -0.1614  1.8853
 9417TIP3    H249667   0.033   2.894   0.181 -1.9949  1.1208  2.7227
 9418TIP3   OH249668   5.262   2.789   5.155 -0.7807 -0.1452 -0.1169
 9418TIP3    H149669   5.272   2.802   5.249 -0.4137 -2.8198  0.2601
 9418TIP3    H249670   5.264   2.877   5.118  1.3858  0.8144  2.1590
 9419TIP3   OH249671   0.755   2.581  12.000 -0.5096  0.4109  0.0014
 9419TIP3    H149672   0.780   2.568  12.092  0.5575 -0.7034 -0.4341
 9419TIP3    H249673   0.660   2.570  11.999 -0.5248  0.4274  0.9780
 9420TIP3   OH249674   4.270   0.523   5.541  0.1062 -0.0319 -0.2691
 9420TIP3    H149675   4.241   0.599   5.491  1.2798  0.6283  0.0379
 9420TIP3    H249676   4.223   0.449   5.502 -0.3533  0.7182 -1.1594
 9421TIP3   OH249677   5.464   2.298   4.660  0.2565  0.0318  0.1321
 9421TIP3    H149678   5.490   2.271   4.572  1.2912  0.5029  0.2910
 9421TIP3    H249679   5.439   2.390   4.650 -0.8326 -0.2589  0.0935
 9422TIP3   OH249680   2.786   4.066   4.422 -0.1550  0.2247  0.2803
 9422TIP3    H149681   2.724   4.031   4.486  2.6243 -3.2436  1.2742
 9422TIP3    H249682   2.845   4.122   4.473 -0.7490  1.2509 -0.1453
 9423TIP3   OH249683   3.053   1.894  16.888 -0.4412 -0.3160  0.2366
 9423TIP3    H149684   3.034   1.979  16.927 -0.9212 -1.2421  2.0745
 9423TIP3    H249685   3.046   1.909  16.794 -1.4102  1.4664  0.5687
 9424TIP3   OH249686   5.457   2.581   0.547  0.1151  0.8987  0.1098
 9424TIP3    H149687   5.485   2.653   0.605  0.3840 -0.2771  1.4596
 9424TIP3    H249688   5.369   2.559   0.577 -0.7060  1.8680 -1.5060
 9425TIP3   OH249689   0.887   5.238   4.102 -0.5200  0.1817  0.6063
 9425TIP3    H149690   0.823   5.308   4.097 -0.1704  0.3435 -3.8989
 9425TIP3    H249691   0.972   5.282   4.105 -0.4206 -0.0425  1.1514
 9426TIP3   OH249692   1.842   6.111  16.656  0.3581  0.2452  0.1531
 9426TIP3    H149693   1.753   6.092  16.683  0.1624  0.6279 -0.2217
 9426TIP3    H249694   1.893   6.108  16.737  0.1658 -0.8485  0.2442
 9427TIP3   OH249695   4.445   2.018  13.487  0.3580 -0.4432  0.2186
 9427TIP3    H149696   4.501   1.981  13.419  0.9788  2.1045 -0.7229
 9427TIP3    H249697   4.361   2.034  13.443  0.1098 -0.6946  0.5979
 9428TIP3   OH249698   5.928   3.816   3.073  0.4872 -0.3043 -0.3701
 9428TIP3    H149699   5.978   3.882   3.121 -1.9406 -0.0274  1.8772
 9428TIP3    H249700   5.960   3.732   3.105  0.1669 -0.1396  0.3828
 9429TIP3   OH249701   0.091   4.679  16.630  0.1586  0.1562 -0.3667
 9429TIP3    H149702   0.029   4.752  16.620 -0.0065  0.1669  0.6067
 9429TIP3    H249703   0.070   4.619  16.559 -0.9400  0.1881 -0.0795
 9430TIP3   OH249704   2.728   2.605   5.540  0.4218 -0.2536  0.2246
 9430TIP3    H149705   2.664   2.542   5.575 -2.6032  2.1205 -0.8246
 9430TIP3    H249706   2.733   2.584   5.447 -0.4812  0.9640 -0.0970
 9431TIP3   OH249707   6.753   3.852  13.193 -0.1406 -0.5874  0.2513
 9431TIP3    H149708   6.689   3.923  13.195  1.4856  0.8995  0.7737
 9431TIP3    H249709   6.771   3.838  13.100 -1.2679 -1.0564  0.1020
 9432TIP3   OH249710   5.575   5.023  13.391 -0.0425 -0.5152  0.0016
 9432TIP3    H149711   5.514   5.049  13.460  0.4431 -1.8263  0.9502
 9432TIP3    H249712   5.603   5.106  13.352 -0.8503  0.2066  0.9161
 9433TIP3   OH249713   1.231   0.948   6.124 -0.3010 -1.1020 -0.1621
 9433TIP3    H149714   1.164   0.948   6.192 -0.1896  0.2960 -0.0437
 9433TIP3    H249715   1.226   0.860   6.086 -0.0404 -2.0601  1.9452
 9434TIP3   OH249716   0.448   1.828  10.700  0.3068  0.7073 -1.0279
 9434TIP3    H149717   0.415   1.742  10.724 -0.2989  1.2886  0.2806
 9434TIP3    H249718   0.411   1.846  10.613 -1.3189  0.5654 -0.3703
 9435TIP3   OH249719   3.331   4.050   0.132 -0.0807 -0.1891  0.1015
 9435TIP3    H149720   3.369   4.010   0.054  1.3217  0.4621  0.4174
 9435TIP3    H249721   3.345   4.144   0.119 -1.1149  0.0137  0.4840
 9436TIP3   OH249722   4.246   1.216   4.880  0.7236  0.3893 -0.0251
 9436TIP3    H149723   4.230   1.267   4.801  0.1065 -0.5765 -0.5394
 9436TIP3    H249724   4.339   1.193   4.877 -0.0075 -2.6554 -2.3330
 9437TIP3   OH249725   0.796   6.091  14.725 -0.1358  0.3072 -0.1271
 9437TIP3    H149726   0.816   5.998  14.734  0.0629  0.3686  0.0816
 9437TIP3    H249727   0.834   6.116  14.641 -2.2879 -0.3519 -1.3198
 9438TIP3   OH249728   0.233   3.555  15.123  0.3452 -0.1412  0.5453
 9438TIP3    H149729   0.216   3.634  15.174  2.1744 -0.3298  1.4869
 9438TIP3    H249730   0.169   3.492  15.155 -1.6786  1.1508 -0.7771
 9439TIP3   OH249731   4.288   0.910  15.036 -0.6994  0.2469  0.5002
 9439TIP3    H149732   4.255   0.890  15.123  0.7159  0.8624  1.1836
 9439TIP3    H249733   4.337   0.832  15.011 -2.2072 -0.4666 -0.3129
 9440TIP3   OH249734   4.574   0.039   1.017  0.4028  0.4488 -0.0244
 9440TIP3    H149735   4.573   0.109   0.953 -0.3735 -0.2437 -0.7702
 9440TIP3    H249736   4.656  -0.008   0.999 -0.2090 -0.2437 -1.0613
 9441TIP3   OH249737   4.750   6.225   1.503 -0.0877 -0.4940  0.0933
 9441TIP3    H149738   4.703   6.212   1.585 -1.6894  2.3288 -0.3078
 9441TIP3    H249739   4.740   6.319   1.484  2.3742 -0.6020 -2.0480
 9442TIP3   OH249740   2.973   5.396  13.657 -0.3337 -0.1533 -0.0487
 9442TIP3    H149741   3.009   5.308  13.651  0.2246 -0.0824  1.9676
 9442TIP3    H249742   2.931   5.411  13.572 -0.5850 -2.4113 -0.3405
 9443TIP3   OH249743   3.744   3.659  13.374  0.0560  0.2250 -0.1477
 9443TIP3    H149744   3.787   3.585  13.416  0.2154 -0.0145 -0.7232
 9443TIP3    H249745   3.659   3.624  13.346 -0.5916  0.7397  1.1344
 9444TIP3   OH249746   1.160   0.757   4.341 -0.2347 -0.6367  0.2743
 9444TIP3    H149747   1.225   0.688   4.328  0.3272 -0.0355 -0.1286
 9444TIP3    H249748   1.114   0.731   4.421 -0.0151 -1.4707  0.1351
 9445TIP3   OH249749   5.084   0.750   2.432  0.7365  0.2242  0.4859
 9445TIP3    H149750   5.051   0.838   2.412  0.9904 -0.1394 -1.6110
 9445TIP3    H249751   5.013   0.708   2.481 -0.1555  0.9364 -0.1948
 9446TIP3   OH249752   4.231   5.033   4.857 -0.1183 -0.1534 -0.4484
 9446TIP3    H149753   4.321   5.035   4.887 -0.4510  1.1249  0.4950
 9446TIP3    H249754   4.180   5.005   4.933 -0.6369  0.2467 -0.6411
 9447TIP3   OH249755   4.427   6.159  13.392  0.2013 -0.4443 -0.0033
 9447TIP3    H149756   4.447   6.232  13.451 -0.8958 -1.3797  1.5636
 9447TIP3    H249757   4.439   6.195  13.305  2.4563  0.8113  0.7752
 9448TIP3   OH249758   6.499   2.657  11.085 -0.4074 -0.2910  0.2426
 9448TIP3    H149759   6.466   2.682  10.999 -2.6660  2.9930  1.9663
 9448TIP3    H249760   6.575   2.713  11.100  1.1422 -2.1798 -0.3431
 9449TIP3   OH249761   5.851   6.491   3.958  0.1027  0.2597  0.0746
 9449TIP3    H149762   5.933   6.536   3.940  1.1539 -1.1803  1.2030
 9449TIP3    H249763   5.849   6.481   4.053 -1.3163  0.1505  0.0552
 9450TIP3   OH249764   2.149   0.485  10.988  0.4263 -0.3689 -0.3883
 9450TIP3    H149765   2.115   0.410  10.939  0.3195  0.5462 -1.7590
 9450TIP3    H249766   2.193   0.538  10.922 -2.5170  2.5547 -0.1582
 9451TIP3   OH249767   5.919   1.052   4.300  0.6529 -0.7837  0.2564
 9451TIP3    H149768   6.005   1.054   4.258  0.2217  0.1224 -0.6029
 9451TIP3    H249769   5.874   1.129   4.266 -0.6291 -1.4419  0.4400
 9452TIP3   OH249770   4.180   2.247   1.553 -0.2221 -0.1865  0.2548
 9452TIP3    H149771   4.153   2.336   1.573  0.1268 -0.2473  1.0276
 9452TIP3    H249772   4.274   2.254   1.536 -0.2811 -0.3329 -0.1285
 9453TIP3   OH249773   5.035   3.810   2.901  0.3790 -0.3185  0.3335
 9453TIP3    H149774   4.970   3.779   2.838  0.6950 -0.8454  0.2698
 9453TIP3    H249775   5.010   3.901   2.918 -0.0597 -0.3587 -0.0956
 9454TIP3   OH249776   3.826   2.467   6.038 -0.5731 -0.0056 -0.5895
 9454TIP3    H149777   3.869   2.541   6.082  1.5173 -0.5376 -1.7003
 9454TIP3    H249778   3.828   2.397   6.102 -1.6295  0.5803  0.0967
 9455TIP3   OH249779   4.571   6.224   5.160  0.4876  0.0326  0.4675
 9455TIP3    H149780   4.636   6.183   5.102  0.5594  0.4862  0.2235
 9455TIP3    H249781   4.585   6.318   5.149 -1.1716  0.1660 -0.6777
 9456TIP3   OH249782   5.538   2.886  11.301 -0.2405  0.1410  0.1262
 9456TIP3    H149783   5.542   2.794  11.329 -1.4201  0.5421  1.6375
 9456TIP3    H249784   5.517   2.935  11.380 -0.7672  1.6016 -0.9002
 9457TIP3   OH249785   4.233   2.725   4.494 -0.1767 -0.4202 -0.1835
 9457TIP3    H149786   4.328   2.736   4.491 -0.3972  2.1949  0.5780
 9457TIP3    H249787   4.199   2.815   4.502 -2.5897 -1.4471  1.8366
 9458TIP3   OH249788   2.361   3.537  16.635  0.2109 -0.5884 -0.6721
 9458TIP3    H149789   2.302   3.465  16.661  0.7680 -1.1478 -0.9428
 9458TIP3    H249790   2.302   3.610  16.619 -0.3896 -1.0440 -0.6073
 9459TIP3   OH249791   2.846   1.057   1.858 -0.2542 -0.0568  0.2329
 9459TIP3    H149792   2.834   0.999   1.783 -1.6322 -0.6351  0.8725
 9459TIP3    H249793   2.910   1.012   1.913 -0.7790 -0.6321  0.3822
 9460TIP3   OH249794   4.721   6.112  14.482  0.0559 -0.2526  0.1890
 9460TIP3    H149795   4.639   6.143  14.443 -0.7415 -3.0526 -0.4793
 9460TIP3    H249796   4.789   6.162  14.437 -1.2991  2.5914  1.2358
 9461TIP3   OH249797   1.561   2.033   1.449  0.5957 -0.3551 -0.3467
 9461TIP3    H149798   1.585   2.036   1.542 -3.3083  1.3559  0.6996
 9461TIP3    H249799   1.466   2.024   1.449  0.6711 -2.0566 -4.2467
 9462TIP3   OH249800   1.452   2.931  12.983  0.4625  0.2776 -0.3255
 9462TIP3    H149801   1.457   2.863  13.050  0.1638  0.0400 -0.5425
 9462TIP3    H249802   1.537   2.975  12.987  0.8729 -0.4837 -0.5786
 9463TIP3   OH249803   3.097   1.547   0.452 -0.0075 -0.8658  0.0079
 9463TIP3    H149804   3.004   1.545   0.429 -0.1383 -2.5712  0.5982
 9463TIP3    H249805   3.143   1.525   0.371 -0.0839  0.5714 -0.4301
 9464TIP3   OH249806   2.060   0.182   0.681  0.3017  0.3915 -0.0297
 9464TIP3    H149807   2.079   0.101   0.729 -1.6417  0.4617  0.9018
 9464TIP3    H249808   2.058   0.155   0.589 -1.5272 -0.9035  0.3507
 9465TIP3   OH249809   0.757   0.153   2.674 -0.4554  0.1379  0.1436
 9465TIP3    H149810   0.727   0.189   2.758  0.3207  0.2422  0.3790
 9465TIP3    H249811   0.797   0.228   2.629  1.5182 -0.5113  0.7987
 9466TIP3   OH249812   0.260   6.610  17.029 -0.2281  0.5573 -0.2799
 9466TIP3    H149813   0.204   6.581  16.956  0.9042  0.1917 -1.0149
 9466TIP3    H249814   0.281   6.529  17.076  0.6024  0.5390 -0.6723
 9467TIP3   OH249815   1.857   4.792  14.789 -0.4364 -0.5586 -0.6313
 9467TIP3    H149816   1.841   4.881  14.756 -0.7783 -0.5159 -0.3499
 9467TIP3    H249817   1.837   4.735  14.715 -1.5672 -0.4834 -0.3940
 9468TIP3   OH249818   3.537   3.177  14.516  0.0855 -0.4840  0.2063
 9468TIP3    H149819   3.617   3.188  14.464 -0.4718 -0.9474 -0.7773
 9468TIP3    H249820   3.564   3.123  14.590  0.1800 -2.8177 -1.4536
 9469TIP3   OH249821   4.044   4.611  13.210 -0.0248 -0.1008 -0.0994
 9469TIP3    H149822   4.064   4.524  13.245  1.4399  0.1959 -0.1817
 9469TIP3    H249823   3.951   4.606  13.187  0.0191 -1.6232 -0.0258
 9470TIP3   OH249824   1.715   1.627   5.829 -0.2219 -0.4804  0.3651
 9470TIP3    H149825   1.706   1.643   5.735  1.0102 -1.0249  0.1358
 9470TIP3    H249826   1.689   1.536   5.841 -1.8320  0.0213  0.7987
 9471TIP3   OH249827   4.716   5.820   4.263 -0.3382 -0.1588 -0.1778
 9471TIP3    H149828   4.636   5.797   4.310  0.5408 -1.3177  0.7855
 9471TIP3    H249829   4.768   5.869   4.326 -0.4428  0.9187 -0.9212
 9472TIP3   OH249830   4.713   1.358   3.303 -0.5348 -0.1562  0.3990
 9472TIP3    H149831   4.657   1.289   3.269 -0.7240 -0.6301  1.6672
 9472TIP3    H249832   4.756   1.320   3.379 -0.4325  1.0337  0.9513
 9473TIP3   OH249833   1.604   2.582   3.931 -0.2044  0.2102 -0.2907
 9473TIP3    H149834   1.614   2.524   3.855  2.1238  0.9168 -0.5521
 9473TIP3    H249835   1.513   2.611   3.926 -0.2951 -0.2996 -2.4388
 9474TIP3   OH249836   3.868   3.950   4.758  0.1073  0.3721 -0.1227
 9474TIP3    H149837   3.861   3.947   4.854 -0.6128  1.0936 -0.1385
 9474TIP3    H249838   3.869   3.859   4.731  1.1286  0.1524  0.6247
 9475TIP3   OH249839   5.951   4.371  15.327 -0.1931 -0.3117 -0.0017
 9475TIP3    H149840   5.896   4.303  15.366 -0.6214 -0.9516 -1.6806
 9475TIP3    H249841   6.040   4.336  15.330 -0.5823 -1.5091 -2.0348
 9476TIP3   OH249842   6.618   3.199   3.428 -0.4852 -0.1019  0.4074
 9476TIP3    H149843   6.683   3.209   3.357  0.6385  0.3729  1.4880
 9476TIP3    H249844   6.544   3.252   3.400 -0.3811 -0.5712 -0.8024
 9477TIP3   OH249845   1.745   2.779  16.480 -0.2365  0.2249  0.3257
 9477TIP3    H149846   1.812   2.836  16.518  0.8531 -1.1522  0.4768
 9477TIP3    H249847   1.791   2.728  16.413 -1.7143  1.2108 -1.5221
 9478TIP3   OH249848   0.586   5.749   3.511 -0.0892  0.9399 -0.2385
 9478TIP3    H149849   0.601   5.743   3.605 -2.2344 -0.7872  0.0405
 9478TIP3    H249850   0.532   5.828   3.501 -1.5492  0.0306  0.2469
 9479TIP3   OH249851   1.611   0.237   5.416 -0.1542  0.7690 -0.1330
 9479TIP3    H149852   1.680   0.200   5.471 -0.7913  1.5013  1.1793
 9479TIP3    H249853   1.545   0.168   5.410 -0.2950  0.8550  0.4155
 9480TIP3   OH249854   0.217   6.025   3.692 -0.3733 -0.3070  0.0765
 9480TIP3    H149855   0.251   5.952   3.743 -0.3576  0.3917  1.0955
 9480TIP3    H249856   0.154   6.068   3.750 -1.8426 -0.6583 -1.2248
 9481TIP3   OH249857   0.012   5.351   3.528 -0.7565  0.2329 -0.5314
 9481TIP3    H149858  -0.006   5.289   3.599 -0.6410 -1.1712 -1.7266
 9481TIP3    H249859   0.011   5.437   3.571 -0.8842 -0.5883  1.1355
 9482TIP3   OH249860   4.026   6.405  15.920  0.1728  0.1207 -0.0902
 9482TIP3    H149861   3.936   6.436  15.931  0.1017 -0.2555  0.4003
 9482TIP3    H249862   4.021   6.342  15.848  0.0801  0.2719 -0.2141
 9483TIP3   OH249863   4.081   1.754  15.874 -0.3010 -0.1607 -0.2077
 9483TIP3    H149864   4.171   1.761  15.844 -0.1946 -2.4639 -0.5344
 9483TIP3    H249865   4.033   1.817  15.821  0.6744 -0.8665 -1.9808
 9484TIP3   OH249866   3.222   4.492   2.040 -1.0745 -0.5915 -0.0202
 9484TIP3    H149867   3.149   4.539   2.000 -0.1163  1.3243  0.4220
 9484TIP3    H249868   3.222   4.519   2.132 -0.6197 -1.6077  0.2916
 9485TIP3   OH249869   1.992   4.473   2.087 -0.0141  0.1072 -0.4436
 9485TIP3    H149870   2.063   4.531   2.115 -0.6199 -0.5094  2.4954
 9485TIP3    H249871   1.944   4.453   2.167 -2.2242 -1.2390 -2.0483
 9486TIP3   OH249872   1.699   3.990  14.350 -0.8383 -0.7715  0.7232
 9486TIP3    H149873   1.706   4.039  14.268 -0.5256 -0.5793  0.8660
 9486TIP3    H249874   1.764   3.920  14.342  0.3539  0.2342  1.5000
 9487TIP3   OH249875   2.050   4.982  13.252 -0.1854  0.3371  0.7950
 9487TIP3    H149876   1.955   4.988  13.244 -0.0544  0.4643 -0.7628
 9487TIP3    H249877   2.082   5.070  13.231  0.2895  0.2160  1.0140
 9488TIP3   OH249878   0.441   2.433  11.150  0.0870 -0.4630 -0.6383
 9488TIP3    H149879   0.440   2.478  11.065  0.4666 -0.5364 -0.6816
 9488TIP3    H249880   0.418   2.343  11.129  3.0945 -1.1857 -1.0760
 9489TIP3   OH249881   1.036   1.262   3.721  0.0805  0.1787 -0.3221
 9489TIP3    H149882   0.958   1.289   3.671  0.7827  0.6815 -1.1614
 9489TIP3    H249883   1.010   1.180   3.763 -1.1723  0.7467  0.0545
 9490TIP3   OH249884   0.620   2.184   3.758  0.1084  0.2447 -0.8840
 9490TIP3    H149885   0.670   2.247   3.705  1.9315  0.1112  0.6167
 9490TIP3    H249886   0.676   2.107   3.760  0.4671  0.5554  1.9685
 9491TIP3   OH249887   4.915   5.256   4.489 -0.3903 -0.5445  0.3032
 9491TIP3    H149888   4.967   5.322   4.535  0.9158 -1.5885  0.3416
 9491TIP3    H249889   4.966   5.176   4.496 -0.9087 -1.0705 -1.6418
 9492TIP3   OH249890   3.524   6.181  12.502  0.8425  0.3398 -0.7108
 9492TIP3    H149891   3.575   6.249  12.457  2.3770  0.3343  0.9804
 9492TIP3    H249892   3.534   6.201  12.595 -0.6363 -0.8391 -0.2894
 9493TIP3   OH249893   1.006   2.256   6.404 -0.0865 -0.1821  0.4967
 9493TIP3    H149894   0.969   2.344   6.415  0.4434  0.1014  0.0601
 9493TIP3    H249895   0.982   2.231   6.315 -0.3858 -0.5495  0.6839
 9494TIP3   OH249896   5.271   1.923  10.585  0.2069  0.0676 -0.2066
 9494TIP3    H149897   5.314   1.863  10.524 -2.4994  0.7432 -2.9229
 9494TIP3    H249898   5.262   2.005  10.536 -0.9600  1.0001  1.5091
 9495TIP3   OH249899   4.439   3.610   5.962  0.0698 -0.2089 -0.2386
 9495TIP3    H149900   4.344   3.605   5.964  0.0641  0.1521  0.4291
 9495TIP3    H249901   4.458   3.682   5.902 -0.0917  0.1866  0.1854
 9496TIP3   OH249902   5.864   0.433  15.743 -0.1136  0.0522 -0.0786
 9496TIP3    H149903   5.939   0.378  15.765 -0.0097  0.7364  1.3358
 9496TIP3    H249904   5.873   0.510  15.799 -1.3154  0.6214 -0.6361
 9497TIP3   OH249905   1.725   1.073  12.606 -0.3215 -0.1185 -0.5329
 9497TIP3    H149906   1.708   1.039  12.694  3.1802 -1.3967 -0.2686
 9497TIP3    H249907   1.774   1.154  12.621  4.1445 -2.4957 -1.1678
 9498TIP3   OH249908   2.503   6.304   2.227 -0.3133  0.0594 -0.0874
 9498TIP3    H149909   2.560   6.379   2.244 -0.1970 -0.3589  1.4521
 9498TIP3    H249910   2.553   6.249   2.167 -0.2334  1.0183 -0.9073
 9499TIP3   OH249911   3.986   1.153   3.417  0.0145 -0.1948 -0.0455
 9499TIP3    H149912   4.076   1.138   3.386 -1.0472 -1.5986 -2.6340
 9499TIP3    H249913   3.932   1.104   3.355 -2.5371  0.5490  1.5594
 9500TIP3   OH249914   5.100   2.205   1.662 -0.0159  0.1582  0.2499
 9500TIP3    H149915   5.148   2.175   1.584  0.0913  1.3202 -0.1390
 9500TIP3    H249916   5.083   2.125   1.712 -1.3009 -0.7993 -1.6395
 9501TIP3   OH249917   2.494   0.808   1.017  0.2824  0.1086  0.7717
 9501TIP3    H149918   2.493   0.899   0.988  1.6230 -0.8346 -2.3770
 9501TIP3    H249919   2.440   0.761   0.953  1.2558 -1.6322  1.1946
 9502TIP3   OH249920   4.580   5.865  11.776 -0.4697 -0.5413  0.2343
 9502TIP3    H149921   4.512   5.891  11.839 -0.8098 -0.4061 -0.1904
 9502TIP3    H249922   4.655   5.922  11.797 -0.4758 -0.7106  0.7201
 9503TIP3   OH249923   5.646   0.668  16.641 -0.0609 -0.3787  0.1093
 9503TIP3    H149924   5.719   0.707  16.689  1.0867  0.6881 -2.4184
 9503TIP3    H249925   5.599   0.743  16.604  1.0663 -1.2877 -3.2583
 9504TIP3   OH249926   3.421   3.550   6.291  0.1167  0.4885  0.1766
 9504TIP3    H149927   3.378   3.506   6.363  0.5391 -0.3459 -0.0812
 9504TIP3    H249928   3.453   3.480   6.234  3.6294  1.0231  1.3865
 9505TIP3   OH249929   0.249   4.691  13.028 -0.2596 -0.1048 -0.4113
 9505TIP3    H149930   0.195   4.660  13.101 -1.6276  1.6868 -0.6221
 9505TIP3    H249931   0.214   4.647  12.951 -0.5781  0.0754 -0.3676
 9506TIP3   OH249932   6.522   0.660   0.822  0.3117  0.0721  0.3146
 9506TIP3    H149933   6.523   0.712   0.741  1.0859  1.2937  1.0987
 9506TIP3    H249934   6.469   0.711   0.883  1.3329  0.0855  1.1937
 9507TIP3   OH249935   4.191   3.925  14.086 -0.0399 -0.3883 -0.1031
 9507TIP3    H149936   4.190   3.998  14.025  1.0093 -0.4151 -0.1542
 9507TIP3    H249937   4.282   3.920  14.117 -0.2838 -1.1533  0.5131
 9508TIP3   OH249938   5.264   0.973   1.830  0.5789 -0.2074 -0.5705
 9508TIP3    H149939   5.230   1.051   1.788  1.4200  0.5194  0.0713
 9508TIP3    H249940   5.341   1.003   1.879  0.8501 -1.4073 -0.2251
 9509TIP3   OH249941   5.704   2.022   5.098 -0.1433  0.0223  0.2094
 9509TIP3    H149942   5.734   1.934   5.123  0.0716  0.0939  0.2096
 9509TIP3    H249943   5.623   2.007   5.050 -1.0282 -0.0492  1.7216
 9510TIP3   OH249944   3.615   0.871   4.059  0.1881  0.2771 -0.1947
 9510TIP3    H149945   3.706   0.902   4.053 -0.2395  1.6405  0.1119
 9510TIP3    H249946   3.618   0.799   4.121  0.8639  1.1670  0.8197
 9511TIP3   OH249947   3.174   1.067  11.861  0.4819  0.1324 -0.1514
 9511TIP3    H149948   3.101   1.008  11.842  0.7515 -0.0589 -0.5895
 9511TIP3    H249949   3.211   1.088  11.776  1.1921 -0.0903  0.0994
 9512TIP3   OH249950   0.074   2.857   1.720 -0.6833  0.1954  0.1521
 9512TIP3    H149951   0.086   2.839   1.627  0.8644 -2.2430  0.7738
 9512TIP3    H249952   0.024   2.782   1.752  1.3433 -0.4772  1.8367
 9513TIP3   OH249953   5.799   0.558   2.718 -0.0184 -0.8413 -0.0232
 9513TIP3    H149954   5.788   0.638   2.769  0.6074  0.9132 -2.5295
 9513TIP3    H249955   5.711   0.521   2.713 -0.6041  0.5115 -0.0912
 9514TIP3   OH249956   0.847   4.862  12.931 -0.0968 -0.1229 -0.2766
 9514TIP3    H149957   0.930   4.846  12.976 -0.9153 -0.0943  1.3028
 9514TIP3    H249958   0.844   4.797  12.861  0.8228 -0.7596  0.2635
 9515TIP3   OH249959   2.948   5.583  14.601  0.4993 -0.3093  0.6769
 9515TIP3    H149960   2.998   5.579  14.520  0.5448 -0.5461  0.7164
 9515TIP3    H249961   2.907   5.497  14.609  1.0157 -0.5109  1.2336
 9516TIP3   OH249962   5.528   1.103  15.259 -0.1230  0.0648 -0.2102
 9516TIP3    H149963   5.458   1.130  15.318 -0.2721  1.5560 -1.0373
 9516TIP3    H249964   5.499   1.020  15.222 -1.0546  0.2618  0.0794
 9517TIP3   OH249965   0.973   4.061  12.684 -0.1816 -0.0724  0.1834
 9517TIP3    H149966   0.906   4.036  12.620 -0.8987  0.3078  0.7764
 9517TIP3    H249967   0.967   3.995  12.753 -1.2931  1.0477  1.1875
 9518TIP3   OH249968   0.480   2.122  15.167 -0.3367 -0.1931  0.4848
 9518TIP3    H149969   0.545   2.176  15.212 -0.1497 -0.7858  0.9327
 9518TIP3    H249970   0.485   2.151  15.076  0.5175 -0.1956  0.5225
 9519TIP3   OH249971   4.751   5.996  14.801  0.6096  0.2440 -0.2941
 9519TIP3    H149972   4.840   6.027  14.819 -0.1700  2.0883  0.5133
 9519TIP3    H249973   4.747   5.991  14.706  2.0878 -1.4245 -0.2908
 9520TIP3   OH249974   4.886   6.001   3.754  0.4330 -0.4629 -0.5407
 9520TIP3    H149975   4.820   5.982   3.687 -0.5307  2.4586 -0.5095
 9520TIP3    H249976   4.961   6.034   3.705  0.7159 -0.8218 -0.3521
 9521TIP3   OH249977   1.030   6.729  16.408 -0.1455 -0.2335  0.5210
 9521TIP3    H149978   0.970   6.780  16.353  0.4576  0.7246  0.7346
 9521TIP3    H249979   1.097   6.699  16.347 -0.2333 -0.3522  0.4823
 9522TIP3   OH249980   1.736   3.741  11.790 -0.3449  0.4519 -0.3112
 9522TIP3    H149981   1.819   3.776  11.822 -0.2921  0.7399 -0.7505
 9522TIP3    H249982   1.751   3.646  11.783 -0.1504  0.4683 -0.0992
 9523TIP3   OH249983   2.111   5.984   5.980  0.3034  0.1281 -0.3502
 9523TIP3    H149984   2.030   6.034   5.970  0.2083  0.0544  0.0449
 9523TIP3    H249985   2.113   5.960   6.072  0.4151 -0.4817 -0.5115
 9524TIP3   OH249986   4.805   4.311   3.966 -0.1696 -0.6862  0.7441
 9524TIP3    H149987   4.900   4.316   3.976  0.1002 -0.7465 -1.4871
 9524TIP3    H249988   4.784   4.220   3.985  0.2759 -0.7723  0.8305
 9525TIP3   OH249989   3.418   5.051   5.211 -0.1425  0.1982 -0.1906
 9525TIP3    H149990   3.350   4.986   5.194 -0.6490  0.9591 -1.1666
 9525TIP3    H249991   3.472   5.050   5.132  2.2738 -1.9085  1.4243
 9526TIP3   OH249992   1.134   3.463  12.358  0.3273 -0.3083 -0.7680
 9526TIP3    H149993   1.143   3.558  12.357 -0.4096 -0.1986  0.8656
 9526TIP3    H249994   1.220   3.430  12.384 -0.0664  0.0458  1.0451
 9527TIP3   OH249995   4.916   2.496  14.602  0.1928  0.1751  0.0345
 9527TIP3    H149996   4.983   2.516  14.537  0.9004 -0.7121  0.4655
 9527TIP3    H249997   4.965   2.458  14.675 -0.9433 -2.0485 -0.3141
 9528TIP3   OH249998   1.134   5.469  13.441  0.2221  0.1227  0.1601
 9528TIP3    H149999   1.056   5.452  13.494  0.3744 -1.2514 -0.0476
 9528TIP3    H250000   1.190   5.393  13.455  0.8765  0.4041 -0.8718
 9529TIP3   OH250001   5.657   5.288  13.298 -0.0271  0.1666  0.2540
 9529TIP3    H150002   5.637   5.229  13.225 -0.9264  1.2197 -0.3618
 9529TIP3    H250003   5.607   5.367  13.279 -1.0140  0.1142  2.4799
 9530TIP3   OH250004   4.027   2.133   3.254 -0.0432  0.6420  0.4423
 9530TIP3    H150005   4.021   2.205   3.317 -0.3528  0.4857  0.5953
 9530TIP3    H250006   3.984   2.166   3.175 -0.7906  0.3903  0.7356
 9531TIP3   OH250007   3.900   0.904  15.238  0.0146 -0.7016  0.1670
 9531TIP3    H150008   3.835   0.942  15.179  0.7512  0.9048  0.3877
 9531TIP3    H250009   3.858   0.907  15.324 -1.3413 -3.6814 -0.3127
 9532TIP3   OH250010   6.732   3.328   4.988  0.2056 -0.1679 -0.1812
 9532TIP3    H150011   6.724   3.251   4.932 -0.3901  0.3606 -0.8220
 9532TIP3    H250012   6.765   3.293   5.071  0.8793 -0.9768 -0.7813
 9533TIP3   OH250013   5.367   5.707   3.696  0.2208 -0.0450  1.0772
 9533TIP3    H150014   5.436   5.761   3.658  0.0172 -0.1833  0.4859
 9533TIP3    H250015   5.389   5.618   3.668 -1.0396  0.0971 -0.4581
 9534TIP3   OH250016   5.084   6.421  10.808 -0.0176 -0.2328  0.1117
 9534TIP3    H150017   5.065   6.333  10.841 -1.0813  0.0263  0.2105
 9534TIP3    H250018   5.060   6.418  10.716  1.0472 -0.3745 -0.1647
 9535TIP3   OH250019   5.986   6.536  16.680 -0.5393 -0.5298  0.7604
 9535TIP3    H150020   5.983   6.608  16.743 -1.3168  0.8935 -0.8789
 9535TIP3    H250021   5.895   6.522  16.655 -0.1208 -0.2447 -0.9825
 9536TIP3   OH250022   4.663   6.452  14.373  0.3660  0.4537 -1.2278
 9536TIP3    H150023   4.743   6.399  14.378 -1.6333 -2.5141  1.0477
 9536TIP3    H250024   4.624   6.428  14.289 -0.4388 -1.6434 -0.2929
 9537TIP3   OH250025   3.283   0.372  11.814 -0.1783 -0.4795 -0.8279
 9537TIP3    H150026   3.197   0.382  11.853  0.4328 -0.2083  0.4885
 9537TIP3    H250027   3.266   0.347  11.723 -1.6267 -0.7257 -0.4963
 9538TIP3   OH250028   6.444   1.063   0.246 -0.2980 -0.3976  0.4338
 9538TIP3    H150029   6.501   1.032   0.176  1.6023  0.6855  1.4398
 9538TIP3    H250030   6.428   1.155   0.225 -2.0533 -0.8136 -0.0724
 9539TIP3   OH250031   2.378   1.292  10.460  0.6656 -0.3448  0.0077
 9539TIP3    H150032   2.429   1.372  10.475  0.2385  0.2463 -1.5470
 9539TIP3    H250033   2.327   1.311  10.381 -0.4963 -1.6435  0.4271
 9540TIP3   OH250034   6.478   3.329   1.198  0.1369 -0.0085 -0.7822
 9540TIP3    H150035   6.422   3.335   1.275  3.5526  0.2077  1.8264
 9540TIP3    H250036   6.508   3.237   1.197  0.6644  0.1619 -1.4248
 9541TIP3   OH250037   3.926   2.689  11.886 -0.4953  0.3098  0.4843
 9541TIP3    H150038   3.864   2.761  11.899 -0.8348  0.2819 -0.8776
 9541TIP3    H250039   3.953   2.664  11.974  0.5488  2.9039  0.9366
 9542TIP3   OH250040   0.083   0.852   4.425 -0.7683 -0.1819  0.7015
 9542TIP3    H150041   0.056   0.772   4.471 -0.2614 -0.7374  0.0539
 9542TIP3    H250042   0.013   0.915   4.443 -1.4769 -0.9648  0.7288
 9543TIP3   OH250043   0.546   1.264  15.264  0.1573 -0.3573 -0.0779
 9543TIP3    H150044   0.522   1.289  15.353 -1.7178 -1.9055 -0.1137
 9543TIP3    H250045   0.526   1.342  15.211 -0.3522 -0.0142  0.6108
 9544TIP3   OH250046   0.496   1.074  11.684  0.0627  0.8563  0.1650
 9544TIP3    H150047   0.445   0.993  11.677  0.0076  0.9642 -0.7735
 9544TIP3    H250048   0.579   1.047  11.724 -0.3535  0.5157  0.8016
 9545TIP3   OH250049   0.813   2.826  16.889  0.3848  0.1162 -0.2513
 9545TIP3    H150050   0.873   2.781  16.828  2.4003  0.9395  1.0828
 9545TIP3    H250051   0.852   2.812  16.975 -0.9061  1.3944  0.5541
 9546TIP3   OH250052   1.097   4.773   0.618  0.5839  0.1068  0.5063
 9546TIP3    H150053   1.018   4.731   0.652  0.2848  0.4877  0.2853
 9546TIP3    H250054   1.123   4.835   0.686 -1.1522  2.3176 -0.7787
 9547TIP3   OH250055   6.573   5.689  15.307 -0.1141  0.5318 -0.1913
 9547TIP3    H150056   6.519   5.763  15.281  0.7156  0.8317 -1.0898
 9547TIP3    H250057   6.528   5.612  15.271 -0.0997  0.7530 -0.6784
 9548TIP3   OH250058   2.467   5.958   4.556  0.1417  0.0794 -0.5344
 9548TIP3    H150059   2.497   5.957   4.465  2.4005 -0.0055  0.1688
 9548TIP3    H250060   2.483   5.870   4.589 -2.5950 -0.4890 -0.6111
 9549TIP3   OH250061   4.968   6.455  12.251  0.5068 -0.5750 -0.1143
 9549TIP3    H150062   5.028   6.439  12.179  1.4885  1.5416  0.1966
 9549TIP3    H250063   5.020   6.500  12.317 -0.7491 -1.1400  1.3140
 9550TIP3   OH250064   4.101   1.204  10.678 -0.0373  0.5636 -0.2324
 9550TIP3    H150065   4.034   1.173  10.740 -0.3822 -1.3761 -1.5525
 9550TIP3    H250066   4.159   1.129  10.665  1.6207  1.8157 -0.1582
 9551TIP3   OH250067   2.527   1.264  13.204  0.4784 -0.2332 -0.1310
 9551TIP3    H150068   2.483   1.209  13.139 -0.2860  0.0809  0.1132
 9551TIP3    H250069   2.528   1.351  13.165  0.0675 -0.0559  0.2520
 9552TIP3   OH250070   5.711   1.149   5.828  0.1418  0.8189  0.4142
 9552TIP3    H150071   5.704   1.067   5.778  2.2732  1.1125 -0.4458
 9552TIP3    H250072   5.765   1.125   5.904  0.8731  1.4382  0.0975
 9553TIP3   OH250073   2.390   6.188   6.462 -0.3083 -0.1174  0.5356
 9553TIP3    H150074   2.347   6.175   6.547  1.1617 -0.0929  1.2923
 9553TIP3    H250075   2.410   6.282   6.459  0.1569 -0.2185  0.4128
 9554TIP3   OH250076   5.142   2.273   0.516  0.3262  0.0949  1.2349
 9554TIP3    H150077   5.155   2.184   0.482 -1.3110  0.5259 -0.6145
 9554TIP3    H250078   5.106   2.260   0.604  0.4299 -1.0718  1.1148
 9555TIP3   OH250079   6.496   5.064  12.966 -0.3377  0.3926 -0.0179
 9555TIP3    H150080   6.552   4.991  12.940  0.8586  0.5500  1.9632
 9555TIP3    H250081   6.409   5.026  12.975  0.5345 -1.1701  2.4065
 9556TIP3   OH250082   5.872   2.232  13.823 -0.4911 -1.0163 -0.2690
 9556TIP3    H150083   5.818   2.154  13.829  0.1757 -1.3234  2.3927
 9556TIP3    H250084   5.929   2.217  13.747 -2.1446 -1.9384 -1.3437
 9557TIP3   OH250085   3.345   0.560  12.803  0.1245  0.2340 -0.0870
 9557TIP3    H150086   3.383   0.484  12.847 -0.1772  0.7968  1.1622
 9557TIP3    H250087   3.401   0.634  12.828 -0.9962  0.8349  0.6880
 9558TIP3   OH250088   5.582   5.866   3.552  0.2683 -0.0385 -0.4123
 9558TIP3    H150089   5.596   5.956   3.521  1.5786  0.6870  2.1871
 9558TIP3    H250090   5.645   5.814   3.502  1.2298  0.8713 -0.1719
 9559TIP3   OH250091   1.960   0.900   0.218  0.4437 -0.5746  0.0471
 9559TIP3    H150092   2.006   0.919   0.299  1.7798 -1.7990 -0.3933
 9559TIP3    H250093   1.920   0.814   0.232 -1.9608  0.5909  0.5172
 9560TIP3   OH250094   3.026   6.130  10.582 -0.5493  0.4599 -0.7920
 9560TIP3    H150095   3.000   6.038  10.586  0.8750  0.0735 -0.0802
 9560TIP3    H250096   2.944   6.178  10.570 -1.3651 -0.8499 -0.5237
 9561TIP3   OH250097   5.623   3.626  15.094 -1.0511 -0.1245 -0.1555
 9561TIP3    H150098   5.537   3.653  15.127 -1.0167  2.0446 -1.7785
 9561TIP3    H250099   5.679   3.627  15.172 -1.9221  0.8693  0.4793
 9562TIP3   OH250100   0.260   2.859   2.338  0.0266  0.5713  0.1197
 9562TIP3    H150101   0.213   2.842   2.420 -0.0536  0.8792  0.1381
 9562TIP3    H250102   0.216   2.805   2.273  1.0070 -0.7996  0.5718
 9563TIP3   OH250103   4.959   4.137  15.898 -0.0943 -0.2980 -0.0859
 9563TIP3    H150104   4.998   4.099  15.820 -0.9690  2.1435 -1.7647
 9563TIP3    H250105   5.006   4.220  15.911 -1.3579  0.3107  0.7447
 9564TIP3   OH250106   2.245   5.295   0.179 -0.1392  0.8752 -0.3851
 9564TIP3    H150107   2.180   5.267   0.114  0.0791  1.9975 -1.1083
 9564TIP3    H250108   2.194   5.314   0.258 -0.6391  1.2830 -0.7992
 9565TIP3   OH250109   6.672   0.325   3.289 -0.3692  0.3443 -0.3730
 9565TIP3    H150110   6.689   0.273   3.368 -2.4836  0.4392  0.1786
 9565TIP3    H250111   6.758   0.338   3.250  0.5927 -0.6013  1.3626
 9566TIP3   OH250112   3.231   6.619  16.636 -0.0142  0.2324  0.3242
 9566TIP3    H150113   3.288   6.562  16.584 -0.5704  0.4071 -0.4934
 9566TIP3    H250114   3.146   6.574  16.636  0.2338 -0.2645  1.9310
 9567TIP3   OH250115   3.272   6.317   1.488 -0.2945 -0.8678  0.2492
 9567TIP3    H150116   3.293   6.386   1.426  1.1282  0.5814  2.2922
 9567TIP3    H250117   3.320   6.240   1.456  0.0425 -0.2624 -0.6981
 9568TIP3   OH250118   3.542   5.896   0.378  0.5565 -0.0105 -0.1560
 9568TIP3    H150119   3.551   5.895   0.473  1.5003 -2.1668 -0.2295
 9568TIP3    H250120   3.470   5.835   0.360  0.0780  0.7379 -0.7973
 9569TIP3   OH250121   2.142   0.154  16.509  0.1358 -0.5890 -0.3801
 9569TIP3    H150122   2.106   0.202  16.583  0.3418  0.5721 -1.0059
 9569TIP3    H250123   2.188   0.080  16.547  1.1217  0.5821  0.7142
 9570TIP3   OH250124   2.243   3.949  12.441  0.1998  0.4179  0.0608
 9570TIP3    H150125   2.269   3.954  12.533 -0.0065  2.0335  0.0513
 9570TIP3    H250126   2.215   4.038  12.419 -1.1719 -0.2853 -1.1517
 9571TIP3   OH250127   2.093   1.562   5.026 -0.1300 -0.4495  0.3812
 9571TIP3    H150128   2.127   1.479   4.993 -0.5206 -0.3652 -0.2498
 9571TIP3    H250129   2.019   1.538   5.081 -1.1289 -0.4442 -0.9428
 9572TIP3   OH250130   4.029   0.892  10.337  1.0368  0.5402 -0.3261
 9572TIP3    H150131   4.081   0.907  10.258  1.1309 -1.1251 -0.6118
 9572TIP3    H250132   3.941   0.921  10.313  1.2088  0.6523 -0.8238
 9573TIP3   OH250133   5.190   5.741   0.538 -0.0492 -0.8967  0.3302
 9573TIP3    H150134   5.206   5.804   0.608 -0.1802 -1.1453  0.5834
 9573TIP3    H250135   5.104   5.765   0.503 -0.5615 -1.5722  1.1082
 9574TIP3   OH250136   4.539   5.053  14.767  0.3169  0.1390 -0.1918
 9574TIP3    H150137   4.489   5.133  14.784  0.0388 -0.6221  2.8666
 9574TIP3    H250138   4.626   5.083  14.744 -0.2342  1.3705 -0.7000
 9575TIP3   OH250139   4.252   3.617   3.461 -0.1743 -0.3812  0.1403
 9575TIP3    H150140   4.309   3.555   3.507 -0.2328  0.0653  0.8137
 9575TIP3    H250141   4.170   3.569   3.450  0.1865 -0.8791 -0.4751
 9576TIP3   OH250142   2.289   0.809  14.310 -0.4856 -0.2598 -0.0205
 9576TIP3    H150143   2.266   0.831  14.220 -2.9736 -0.3975  0.5481
 9576TIP3    H250144   2.209   0.772  14.348  1.4300 -3.3299  1.2892
 9577TIP3   OH250145   6.113   3.840  14.482 -0.4328  0.1972 -0.8448
 9577TIP3    H150146   6.179   3.904  14.454 -1.6135  1.3962 -0.9297
 9577TIP3    H250147   6.062   3.885  14.549 -0.8895 -0.8800 -0.4504
 9578TIP3   OH250148   6.295   1.426  11.800  0.2974  0.3446 -0.1237
 9578TIP3    H150149   6.309   1.497  11.738  0.5448  0.9913  0.6738
 9578TIP3    H250150   6.227   1.458  11.860 -0.9535 -0.8104 -0.8825
 9579TIP3   OH250151   2.330   2.583  11.383 -0.6410  0.1297  0.1897
 9579TIP3    H150152   2.370   2.511  11.334 -0.6295 -0.4696  1.0570
 9579TIP3    H250153   2.373   2.662  11.350  0.4881 -0.4070  0.3271
 9580TIP3   OH250154   4.644   5.246   3.588 -0.2210  0.2787 -0.3132
 9580TIP3    H150155   4.711   5.206   3.532  1.0183  1.4043  0.3376
 9580TIP3    H250156   4.623   5.329   3.545 -2.6691 -0.9356 -1.5718
 9581TIP3   OH250157   4.097   0.908   3.036 -0.4140  0.0337 -0.2148
 9581TIP3    H150158   4.133   0.833   2.987 -0.9208  0.5393 -1.3868
 9581TIP3    H250159   4.163   0.928   3.102  0.2311 -0.7483 -0.6193
 9582TIP3   OH250160   2.277   0.299  14.606 -0.5133  0.2063 -0.3203
 9582TIP3    H150161   2.330   0.285  14.528  1.3388 -0.7633  1.0839
 9582TIP3    H250162   2.240   0.212  14.625  1.1306 -0.1453  1.3541
 9583TIP3   OH250163   0.522   3.097  16.088 -0.1830  0.2309 -0.4170
 9583TIP3    H150164   0.437   3.071  16.123 -0.4130  1.4217 -0.0670
 9583TIP3    H250165   0.586   3.060  16.149 -0.4876  0.1997 -0.1177
 9584TIP3   OH250166   4.149   0.755  16.396 -0.2304  0.4624 -0.4183
 9584TIP3    H150167   4.228   0.721  16.438 -1.3667  0.1546  1.5186
 9584TIP3    H250168   4.182   0.803  16.319  1.8213  0.3594  0.3565
 9585TIP3   OH250169   6.507   5.937   3.508 -0.0460  0.5506 -0.0146
 9585TIP3    H150170   6.440   5.920   3.573 -0.5524  0.8070 -0.4672
 9585TIP3    H250171   6.469   5.906   3.426 -0.8923  3.5646 -0.8285
 9586TIP3   OH250172   6.083   3.287   4.191 -0.5715 -0.4534 -0.0026
 9586TIP3    H150173   6.116   3.308   4.104  0.1633  1.1943  0.6591
 9586TIP3    H250174   6.028   3.361   4.215 -2.5224 -1.8766  0.0807
 9587TIP3   OH250175   3.684   3.237  11.547 -0.0316 -0.4132  0.3693
 9587TIP3    H150176   3.724   3.323  11.536  1.4744 -1.0552  0.6386
 9587TIP3    H250177   3.615   3.233  11.481  0.2889  0.7720 -0.0369
 9588TIP3   OH250178   1.338   4.495   2.936  0.9737  0.2239  0.6471
 9588TIP3    H150179   1.276   4.535   2.997 -0.2628  0.1697 -0.5676
 9588TIP3    H250180   1.342   4.403   2.963 -0.2832 -0.0079  0.0755
 9589TIP3   OH250181   3.011   2.210   5.923 -0.0765  0.3350 -0.3512
 9589TIP3    H150182   3.025   2.224   6.017  1.3460  0.7432 -0.6035
 9589TIP3    H250183   2.919   2.228   5.909 -0.9741 -2.4951  1.4556
 9590TIP3   OH250184   6.237   0.713   2.189 -0.0119  0.4431  0.1391
 9590TIP3    H150185   6.301   0.642   2.192  0.9771  1.2474 -1.2436
 9590TIP3    H250186   6.196   0.703   2.103 -0.9727  0.5940  0.5846
 9591TIP3   OH250187   6.414   5.546   4.877  0.3695 -0.2224  0.6452
 9591TIP3    H150188   6.474   5.621   4.882  1.6135 -0.9419 -2.5413
 9591TIP3    H250189   6.468   5.470   4.898 -0.3422 -0.5231  1.4548
 9592TIP3   OH250190   0.411   3.836   2.698 -0.1449  0.2075  0.2991
 9592TIP3    H150191   0.392   3.856   2.607 -1.1334 -1.3077  0.1586
 9592TIP3    H250192   0.507   3.839   2.704 -0.1228  1.1931 -0.5735
 9593TIP3   OH250193   2.688   1.917   5.490 -0.1020 -0.3139 -0.0854
 9593TIP3    H150194   2.595   1.898   5.478  0.0364 -1.5547  0.7126
 9593TIP3    H250195   2.730   1.880   5.412 -0.0429 -1.6734  0.5819
 9594TIP3   OH250196   4.666   0.441  13.433 -0.6062 -0.4293  0.0170
 9594TIP3    H150197   4.735   0.491  13.476  0.9892  0.1791 -3.1065
 9594TIP3    H250198   4.687   0.349  13.450  0.6415 -0.2276 -0.4278
 9595TIP3   OH250199   3.791   5.111   1.706 -0.1599 -0.3104  0.2495
 9595TIP3    H150200   3.784   5.044   1.637  0.1708 -0.4649  0.3641
 9595TIP3    H250201   3.862   5.168   1.676  1.0342 -1.2699  1.2164
 9596TIP3   OH250202   6.387   1.937   4.583  0.0809 -0.3924 -0.7065
 9596TIP3    H150203   6.336   1.856   4.581  2.5758 -2.0543  0.5735
 9596TIP3    H250204   6.474   1.912   4.553  1.3542  1.4780  1.2412
 9597TIP3   OH250205   1.572   0.957  16.045 -0.4380  0.0303  0.1832
 9597TIP3    H150206   1.635   0.897  16.005 -1.0266  0.8609 -2.0420
 9597TIP3    H250207   1.612   0.982  16.128  2.4411  0.9576 -1.4260
 9598TIP3   OH250208   4.910   5.072  14.514 -0.1216  0.0019 -0.5288
 9598TIP3    H150209   4.858   4.995  14.537  1.3634 -1.4835 -2.0043
 9598TIP3    H250210   4.867   5.144  14.559 -1.4476 -1.7115  1.0142
 9599TIP3   OH250211   5.409   0.318   0.932 -0.0121  0.4869  0.0102
 9599TIP3    H150212   5.453   0.377   0.871 -2.2651  1.8148 -0.4111
 9599TIP3    H250213   5.318   0.316   0.901 -0.6539 -0.7560  1.8867
 9600TIP3   OH250214   5.079   6.051  13.618 -0.3236  0.0199 -0.4054
 9600TIP3    H150215   5.173   6.057  13.638 -0.6771 -0.2345  1.3753
 9600TIP3    H250216   5.069   5.968  13.572  0.6033  0.9234 -2.3095
 9601TIP3   OH250217   3.884   1.097  11.237 -0.4648  0.1135  0.1786
 9601TIP3    H150218   3.901   1.182  11.277 -0.4999 -0.1292  0.7164
 9601TIP3    H250219   3.822   1.115  11.167 -0.5455  0.5145  0.3499
 9602TIP3   OH250220   6.093   4.969  12.315  0.3466  0.1596  0.0485
 9602TIP3    H150221   6.034   4.913  12.262  1.0375 -0.5372  0.0041
 9602TIP3    H250222   6.059   4.961  12.404  0.2488 -0.0863 -0.0084
 9603TIP3   OH250223   2.528   2.781  12.345  0.0224  0.0741 -0.7123
 9603TIP3    H150224   2.536   2.687  12.330  1.2079  0.2697 -1.3554
 9603TIP3    H250225   2.494   2.816  12.262 -1.4274  0.0883 -0.1282
 9604TIP3   OH250226   1.768   2.593  12.081  0.1140 -0.1099  0.7374
 9604TIP3    H150227   1.719   2.627  12.006 -1.4982 -0.0696  1.7774
 9604TIP3    H250228   1.732   2.506  12.096  2.2436 -1.1592 -0.1335
 9605TIP3   OH250229   1.067   2.220   0.469  0.1124  0.2860  0.0688
 9605TIP3    H150230   1.156   2.242   0.441  0.7238 -2.1571 -0.0094
 9605TIP3    H250231   1.033   2.165   0.399 -1.2332  0.6334  0.4313
 9606TIP3   OH250232   2.114   6.293  16.498  0.6567 -0.0446  0.3058
 9606TIP3    H150233   2.195   6.250  16.525  0.5974 -0.0073  0.5464
 9606TIP3    H250234   2.093   6.352  16.571  0.8406  0.5359 -0.1130
 9607TIP3   OH250235   3.103   3.270  15.355 -0.2470  0.1787  0.3810
 9607TIP3    H150236   3.079   3.287  15.264  1.3584  1.6563  0.2063
 9607TIP3    H250237   3.053   3.335  15.405  1.2079  1.4359  0.2536
 9608TIP3   OH250238   6.122   0.100   1.076  0.1981 -0.0014 -0.2217
 9608TIP3    H150239   6.043   0.048   1.091  0.6473 -0.8584 -0.8352
 9608TIP3    H250240   6.089   0.185   1.045 -0.5785  0.5152  1.9386
 9609TIP3   OH250241   4.644   4.377  15.927  0.4429 -0.1452  0.1018
 9609TIP3    H150242   4.701   4.379  16.004 -0.1761 -1.0480  0.5941
 9609TIP3    H250243   4.577   4.443  15.945  0.3124 -0.3393  0.3136
 9610TIP3   OH250244   2.215   6.464  12.983  0.2959 -0.0210 -0.5042
 9610TIP3    H150245   2.284   6.473  13.049  0.3098 -1.3548 -0.3089
 9610TIP3    H250246   2.164   6.544  12.990  1.4249  0.6839 -0.1785
 9611TIP3   OH250247   5.391   2.611  16.417  0.2499  0.5297 -0.7272
 9611TIP3    H150248   5.299   2.636  16.414 -0.3590 -1.7013 -1.1926
 9611TIP3    H250249   5.429   2.645  16.336 -0.7058 -0.5422 -1.6384
 9612TIP3   OH250250   0.124   5.178   1.408  0.3417  0.0350 -0.6240
 9612TIP3    H150251   0.146   5.268   1.383 -0.4134 -0.1304 -1.9228
 9612TIP3    H250252   0.049   5.187   1.466 -0.2909  0.1990 -1.4583
 9613TIP3   OH250253   4.478   0.041  11.292  0.3847 -0.9722  0.3738
 9613TIP3    H150254   4.483  -0.022  11.220 -0.6331 -0.2551 -0.3371
 9613TIP3    H250255   4.385   0.048  11.311  0.3083  1.8003 -0.8914
 9614TIP3   OH250256   4.207   6.681   2.626  0.0250 -0.6178 -0.4255
 9614TIP3    H150257   4.165   6.701   2.710 -1.0155  1.1000 -1.3442
 9614TIP3    H250258   4.299   6.703   2.639 -0.5673  1.9613 -0.4808
 9615TIP3   OH250259   0.770   1.051  11.164 -0.1392  0.9038 -0.6089
 9615TIP3    H150260   0.706   0.986  11.135 -0.6941  0.6982  1.0327
 9615TIP3    H250261   0.739   1.134  11.126 -2.8654  1.2733  2.2301
 9616TIP3   OH250262   3.988   2.272   1.285 -0.6538 -0.4721  0.8481
 9616TIP3    H150263   4.044   2.312   1.352 -1.9198  0.7023  1.2408
 9616TIP3    H250264   3.964   2.345   1.227 -2.3764 -0.7769  1.1366
 9617TIP3   OH250265   2.980   5.743   0.849 -0.0884  0.8119  0.2042
 9617TIP3    H150266   2.922   5.687   0.900 -0.9626  0.9981 -0.5879
 9617TIP3    H250267   2.931   5.824   0.836  1.1091  1.7321  1.2180
 9618TIP3   OH250268   4.661   0.938  11.418  0.0690 -0.3530  0.3196
 9618TIP3    H150269   4.575   0.895  11.421  0.8370 -1.9113  0.3526
 9618TIP3    H250270   4.686   0.937  11.326  0.6488 -1.1052  0.4824
 9619TIP3   OH250271   2.897   4.957   2.188 -0.2625 -0.1846 -0.0613
 9619TIP3    H150272   2.890   4.910   2.106  0.8331  1.0193 -0.8595
 9619TIP3    H250273   2.807   4.963   2.220 -0.7515 -0.2242 -1.4194
 9620TIP3   OH250274   5.672   3.851  10.751 -0.3969  0.4906 -0.4848
 9620TIP3    H150275   5.665   3.816  10.840 -0.6588 -0.8742 -1.0409
 9620TIP3    H250276   5.582   3.871  10.726 -0.3446  0.6726 -0.5323
 9621TIP3   OH250277   0.828   0.641  16.982  0.1107 -0.1352  0.1375
 9621TIP3    H150278   0.890   0.604  17.045 -0.2703  0.6862  1.0231
 9621TIP3    H250279   0.788   0.715  17.029 -1.4571 -0.5893 -0.4613
 9622TIP3   OH250280   4.978   4.757   3.843 -1.2102 -0.5920 -0.3144
 9622TIP3    H150281   4.937   4.735   3.759 -0.5073  2.8648 -1.6631
 9622TIP3    H250282   4.924   4.828   3.878 -0.1783 -0.4702  1.0718
 9623TIP3   OH250283   2.971   4.271  16.249  0.3304  0.1599 -0.4924
 9623TIP3    H150284   3.053   4.291  16.293 -0.3577 -0.5281  1.1158
 9623TIP3    H250285   2.989   4.289  16.156  2.6337 -1.1478 -0.3268
 9624TIP3   OH250286   3.018   5.054   1.836 -0.0477 -0.7747  0.1335
 9624TIP3    H150287   3.059   5.075   1.919 -1.2247  1.8025  0.1106
 9624TIP3    H250288   3.091   5.039   1.776  0.9097  2.5261  0.3727
 9625TIP3   OH250289   5.551   6.575   5.888  0.6492  0.2816  0.0791
 9625TIP3    H150290   5.462   6.602   5.867  0.7201  0.8886  0.5386
 9625TIP3    H250291   5.544   6.481   5.906  0.2724  0.1376 -0.8050
 9626TIP3   OH250292   2.481   4.138   3.749 -0.3387  0.0383  0.3430
 9626TIP3    H150293   2.499   4.103   3.661 -1.8959 -2.2056  0.8741
 9626TIP3    H250294   2.458   4.230   3.733  2.7811  0.6107 -1.2036
 9627TIP3   OH250295   0.507   6.329   1.029  0.2423 -0.2760  0.2705
 9627TIP3    H150296   0.438   6.338   1.094 -1.0994  0.3967 -1.2016
 9627TIP3    H250297   0.589   6.334   1.079 -0.7374  1.0972  1.7816
 9628TIP3   OH250298   2.168   6.046  16.975  0.2268  0.2903  0.1921
 9628TIP3    H150299   2.199   6.137  16.971  0.3433  0.1836 -3.6300
 9628TIP3    H250300   2.244   5.997  17.007  0.9155  1.2654  0.0966
 9629TIP3   OH250301   5.734   0.736  12.133 -0.0914  0.2581  0.7237
 9629TIP3    H150302   5.640   0.736  12.151 -0.1156 -0.7316  0.6341
 9629TIP3    H250303   5.772   0.687  12.206 -0.1532 -3.5123 -1.5857
 9630TIP3   OH250304   3.782   6.360   6.256  0.1370 -0.2904 -0.1007
 9630TIP3    H150305   3.706   6.419   6.259  1.2582  1.2101 -0.3399
 9630TIP3    H250306   3.745   6.272   6.261 -1.7286  0.3650 -1.8389
 9631TIP3   OH250307   3.573   5.395  14.447  0.8148  0.2706  0.3541
 9631TIP3    H150308   3.625   5.387  14.367  0.6734 -0.0424  0.2957
 9631TIP3    H250309   3.599   5.480  14.483  1.3174  0.1472  0.2916
 9632TIP3   OH250310   4.278   1.267  13.760 -0.2208 -0.0429 -0.3448
 9632TIP3    H150311   4.285   1.229  13.673 -1.1318  0.4703 -0.6570
 9632TIP3    H250312   4.183   1.271  13.777 -0.0977  0.8989  0.1951
 9633TIP3   OH250313   4.603   3.662  11.065 -0.3661 -0.4304  0.5118
 9633TIP3    H150314   4.599   3.744  11.017  1.0205 -1.0686 -0.7489
 9633TIP3    H250315   4.528   3.612  11.034  0.5931 -0.8878 -1.1184
 9634TIP3   OH250316   3.353   0.323   1.040 -0.2530 -0.3033  0.5471
 9634TIP3    H150317   3.325   0.414   1.033  0.5305 -0.0987 -0.0488
 9634TIP3    H250318   3.448   0.327   1.030 -0.3042 -1.2769 -0.4208
 9635TIP3   OH250319   5.535   1.111  11.482 -0.3112 -0.3045  0.1206
 9635TIP3    H150320   5.464   1.093  11.421  0.5495 -0.7407 -0.7666
 9635TIP3    H250321   5.553   1.026  11.523 -0.3324 -0.1840  0.3813
 9636TIP3   OH250322   5.828   3.068   3.902 -0.5656 -0.3361 -0.4341
 9636TIP3    H150323   5.737   3.083   3.926  0.0791  1.3108  1.0860
 9636TIP3    H250324   5.871   3.044   3.984  0.9107  1.6441 -0.5965
 9637TIP3   OH250325   6.466   6.453   4.553  0.1799 -0.5211  0.5882
 9637TIP3    H150326   6.532   6.521   4.562 -0.5935  0.1483  1.2593
 9637TIP3    H250327   6.395   6.494   4.504  0.5014 -1.4159 -0.6652
 9638TIP3   OH250328   3.696   3.020  14.750 -0.5504 -0.1530 -0.6130
 9638TIP3    H150329   3.691   2.975  14.835  0.3847 -2.3019 -1.6772
 9638TIP3    H250330   3.647   2.963  14.690  1.4362 -0.2353 -2.1862
 9639TIP3   OH250331   5.431   0.532  12.786  0.1894 -0.7023  0.2909
 9639TIP3    H150332   5.420   0.550  12.692 -0.9565 -1.8153  0.1981
 9639TIP3    H250333   5.520   0.560  12.805 -0.8418  3.3530 -0.2431
 9640TIP3   OH250334   1.312   4.321   6.109  0.7388  0.1463 -0.1091
 9640TIP3    H150335   1.346   4.237   6.078  1.6237  0.4112  0.1157
 9640TIP3    H250336   1.220   4.305   6.127  0.6778 -0.5275 -0.9846
 9641TIP3   OH250337   6.632   3.978  12.072 -1.0696  0.2717 -0.1854
 9641TIP3    H150338   6.588   3.931  12.143  1.2898  0.3259  1.3821
 9641TIP3    H250339   6.628   4.070  12.099 -0.4912  0.3376 -0.3304
 9642TIP3   OH250340   1.303   0.481  12.821 -0.3153 -0.0621  0.1042
 9642TIP3    H150341   1.344   0.423  12.885 -1.2390 -1.1201 -0.2345
 9642TIP3    H250342   1.244   0.423  12.771  1.1542  0.4985 -2.3797
 9643TIP3   OH250343   4.623   6.521  13.313  0.3291 -0.0690  0.6892
 9643TIP3    H150344   4.549   6.582  13.320  0.8943  0.8126 -0.7966
 9643TIP3    H250345   4.597   6.461  13.243 -0.0437 -1.2946  1.8644
 9644TIP3   OH250346   1.692   6.642   3.081 -0.0692 -0.0353 -0.2339
 9644TIP3    H150347   1.600   6.619   3.094 -0.2634  0.9823  0.2255
 9644TIP3    H250348   1.729   6.645   3.169  0.0077  1.1661 -0.2975
 9645TIP3   OH250349   3.215   2.672  14.220 -0.5607  0.0582 -0.2859
 9645TIP3    H150350   3.264   2.737  14.271  0.2767  0.5630 -1.7103
 9645TIP3    H250351   3.190   2.606  14.284  2.7311 -0.6698  0.3648
 9646TIP3   OH250352   3.121   4.966   3.764  0.6665 -0.4950 -0.2319
 9646TIP3    H150353   3.059   4.894   3.764 -0.2085  0.2194  2.0102
 9646TIP3    H250354   3.196   4.933   3.814  0.9651 -0.4257 -0.6321
 9647TIP3   OH250355   6.450   4.198  11.825  0.5512 -0.3955  0.2938
 9647TIP3    H150356   6.361   4.177  11.852  0.5291  0.4265  0.8376
 9647TIP3    H250357   6.468   4.136  11.754 -0.8855  0.2378 -0.6354
 9648TIP3   OH250358   3.154   6.271  10.363  0.7922  0.3387 -0.3045
 9648TIP3    H150359   3.136   6.235  10.450  1.7632  1.2758  0.2859
 9648TIP3    H250360   3.237   6.231  10.337  0.8431  0.5837 -0.5198
 9649TIP3   OH250361   4.148   5.593   2.575  0.3115  0.6182  0.1176
 9649TIP3    H150362   4.218   5.657   2.588 -0.3393  1.4348 -0.3669
 9649TIP3    H250363   4.187   5.509   2.600  1.3587  1.1137  0.1605
 9650TIP3   OH250364   0.855   2.839  15.015  0.0019 -0.1268 -0.5089
 9650TIP3    H150365   0.832   2.916  15.067 -0.3723 -0.8627  0.4323
 9650TIP3    H250366   0.951   2.842  15.009  0.1056 -0.3923  0.8081
 9651TIP3   OH250367   2.086   2.765  16.300 -0.6485  0.8425 -0.2440
 9651TIP3    H150368   2.157   2.794  16.244 -1.0042  0.9011 -0.6716
 9651TIP3    H250369   2.009   2.811  16.266 -1.0506  0.0918 -0.3654
 9652TIP3   OH250370   6.083   2.233  17.226 -0.1629  0.1341  0.1125
 9652TIP3    H150371   5.995   2.223  17.190 -0.2423  2.2062 -0.3446
 9652TIP3    H250372   6.092   2.327  17.242  2.2150  0.0362 -0.4775
 9653TIP3   OH250373   6.025   0.556   0.079 -0.2227 -0.4771  0.1654
 9653TIP3    H150374   6.033   0.583   0.171  1.2331 -1.1581  0.2482
 9653TIP3    H250375   6.027   0.460   0.082  2.0714 -0.4742 -0.7554
 9654TIP3   OH250376   2.968   3.544   0.980  0.2845 -0.3669 -0.9980
 9654TIP3    H150377   2.873   3.533   0.980  0.3065 -1.1224 -3.7285
 9654TIP3    H250378   3.002   3.465   1.022 -0.2868 -0.4764 -0.7538
 9655TIP3   OH250379   1.854   1.697   6.285  0.4715 -0.3848 -0.4284
 9655TIP3    H150380   1.811   1.617   6.255  0.7427 -0.2201 -1.2765
 9655TIP3    H250381   1.819   1.712   6.373  0.3954 -1.4115 -0.2782
 9656TIP3   OH250382   4.410   6.640  13.695  0.2314  0.3120  0.5507
 9656TIP3    H150383   4.389   6.574  13.761 -0.2787 -1.2845 -1.1724
 9656TIP3    H250384   4.495   6.675  13.723 -1.0834  1.4057  3.3568
 9657TIP3   OH250385   1.416   1.742  12.732 -0.0479  0.1922  0.1677
 9657TIP3    H150386   1.477   1.791  12.787  0.7665  0.0985 -0.6561
 9657TIP3    H250387   1.354   1.808  12.702 -2.3239 -0.2122  3.5788
 9658TIP3   OH250388   1.858   0.984  11.874  0.3315 -0.1197  0.4262
 9658TIP3    H150389   1.888   0.997  11.964  0.3643  0.5834  0.3213
 9658TIP3    H250390   1.911   0.912  11.841  0.4149 -0.2870  0.9275
 9659TIP3   OH250391   4.524   0.369   5.057 -0.3638  0.5778  0.9302
 9659TIP3    H150392   4.498   0.280   5.080  2.1325 -0.0566  1.4477
 9659TIP3    H250393   4.469   0.425   5.112 -0.6107 -0.7096  2.0252
 9660TIP3   OH250394   0.440   3.626   0.353  0.5319 -0.5445 -0.2943
 9660TIP3    H150395   0.517   3.621   0.297  0.6238  1.5334 -0.3816
 9660TIP3    H250396   0.428   3.719   0.370 -0.1762 -1.0364  2.2006
 9661TIP3   OH250397   4.524   3.898   2.006 -0.3481  0.2272  0.3894
 9661TIP3    H150398   4.515   3.917   2.100 -2.3030  1.1478  0.0574
 9661TIP3    H250399   4.563   3.978   1.970 -0.0029  0.0447  0.3649
 9662TIP3   OH250400   1.641   4.782   3.251  0.4244  0.2371 -0.1721
 9662TIP3    H150401   1.584   4.814   3.320  1.4164 -0.9285  1.2137
 9662TIP3    H250402   1.715   4.843   3.251  1.1336 -0.6243  0.7967
 9663TIP3   OH250403   1.856   0.030  15.792 -0.3737  0.4564  0.4172
 9663TIP3    H150404   1.942   0.063  15.764 -0.1080 -0.3756  0.2494
 9663TIP3    H250405   1.841  -0.047  15.738 -0.9357  0.2287  0.8954
 9664TIP3   OH250406   6.487   0.762   3.019 -0.1428 -0.1159  0.0235
 9664TIP3    H150407   6.398   0.728   3.024  0.2411 -0.9019  2.3070
 9664TIP3    H250408   6.538   0.701   3.073  1.7570  0.3721 -1.1972
 9665TIP3   OH250409   5.000   4.521  15.263 -0.0951  0.1693 -0.5323
 9665TIP3    H150410   4.998   4.590  15.197 -1.2459  0.8422  0.1767
 9665TIP3    H250411   4.940   4.455  15.230 -2.4747  1.5461  0.9030
 9666TIP3   OH250412   3.135   3.539   5.867  0.5880  0.2324  0.4236
 9666TIP3    H150413   3.048   3.527   5.829  0.7017 -2.1175  0.8424
 9666TIP3    H250414   3.149   3.634   5.866 -1.5720  0.5624 -0.5260
 9667TIP3   OH250415   0.058   3.448  11.186 -0.8072 -0.6854 -0.3130
 9667TIP3    H150416  -0.031   3.483  11.195 -1.6719 -2.7318 -0.6199
 9667TIP3    H250417   0.055   3.364  11.233  1.0898 -0.5749  0.0434
 9668TIP3   OH250418   4.419   3.913   3.009 -0.2185  0.1158  0.4093
 9668TIP3    H150419   4.513   3.899   3.002 -0.2876 -0.3675  0.4665
 9668TIP3    H250420   4.386   3.837   3.056 -0.3978  1.1057  1.9220
 9669TIP3   OH250421   6.360   6.508  13.357  0.3927 -0.2624 -0.3529
 9669TIP3    H150422   6.376   6.424  13.313 -1.3877 -0.6930 -0.2330
 9669TIP3    H250423   6.355   6.485  13.450 -0.9881 -0.1879 -0.3921
 9670TIP3   OH250424   6.275   5.749  16.930  0.0979  0.0731 -0.4806
 9670TIP3    H150425   6.200   5.810  16.930  0.2367  0.2521 -1.4281
 9670TIP3    H250426   6.311   5.756  16.841  1.5355  0.3458  0.1081
 9671TIP3   OH250427   2.387   4.125  15.437  0.2394  0.3340  0.2236
 9671TIP3    H150428   2.325   4.198  15.440 -0.7681 -0.3292 -2.4070
 9671TIP3    H250429   2.372   4.078  15.518 -2.7409  0.2233 -0.3043
 9672TIP3   OH250430   1.804   5.006  14.486  0.9130  0.3308  0.0894
 9672TIP3    H150431   1.820   5.100  14.481  1.2353  0.2387 -0.5827
 9672TIP3    H250432   1.884   4.970  14.526  1.4275  0.1624 -1.0651
 9673TIP3   OH250433   5.550   4.661  15.491  0.1261 -0.2605 -0.1712
 9673TIP3    H150434   5.598   4.733  15.530  0.7889 -1.3789  1.1021
 9673TIP3    H250435   5.488   4.634  15.559 -1.5737  0.4583 -1.3996
 9674TIP3   OH250436   4.092   5.606   6.191 -0.0103  0.4445  1.1640
 9674TIP3    H150437   4.135   5.684   6.155  0.4022  0.3804  1.5081
 9674TIP3    H250438   4.154   5.574   6.257  0.1634 -0.6204  0.4783
 9675TIP3   OH250439   0.022   6.751  16.694  0.1783 -0.0107 -0.3209
 9675TIP3    H150440  -0.037   6.782  16.762  0.3356  0.5298 -0.4258
 9675TIP3    H250441  -0.035   6.712  16.628 -0.0136 -0.0306 -0.1440
 9676TIP3   OH250442   5.580   2.980  10.427  0.0298 -0.5593 -0.2664
 9676TIP3    H150443   5.627   3.046  10.477  0.6452  0.1683 -1.7812
 9676TIP3    H250444   5.640   2.905  10.423  0.0569 -0.5473 -0.0804
 9677TIP3   OH250445   4.274   2.941  15.438  0.7505 -0.0418  0.1137
 9677TIP3    H150446   4.220   2.863  15.445  0.0922  0.4139  0.1819
 9677TIP3    H250447   4.259   2.973  15.349 -0.5678  1.1460  0.7503
 9678TIP3   OH250448   1.432   4.750  13.435 -0.2982  0.2954 -0.0292
 9678TIP3    H150449   1.462   4.681  13.375 -0.9665  1.8610 -2.2267
 9678TIP3    H250450   1.358   4.790  13.390 -0.7913  1.5730  1.8479
 9679TIP3   OH250451   3.041   3.451  15.550  0.2221 -0.3516 -0.7287
 9679TIP3    H150452   2.995   3.534  15.562  0.0710 -0.5264 -0.0645
 9679TIP3    H250453   3.072   3.429  15.638  0.5943 -0.8034 -0.9720
 9680TIP3   OH250454   3.431   4.113   3.171  0.3966 -1.1154  0.4228
 9680TIP3    H150455   3.497   4.172   3.208  0.7764 -0.9178 -0.5341
 9680TIP3    H250456   3.362   4.110   3.237  1.9352 -2.3610  2.0305
 9681TIP3   OH250457   5.887   3.690   0.418  0.2567  0.3447 -0.7262
 9681TIP3    H150458   5.793   3.707   0.428  0.2062  1.0952 -2.2656
 9681TIP3    H250459   5.906   3.620   0.479 -1.4244 -0.1608 -0.7694
 9682TIP3   OH250460   2.096   3.933  11.181 -0.1761  0.3246 -0.0426
 9682TIP3    H150461   2.075   3.975  11.264  1.4278 -1.6674  1.4031
 9682TIP3    H250462   2.149   3.997  11.133 -0.0352  0.9791  0.9916
 9683TIP3   OH250463   2.743   6.392   2.003  0.1578 -0.1956 -0.4403
 9683TIP3    H150464   2.696   6.309   2.012  2.7729 -1.6329  0.3088
 9683TIP3    H250465   2.832   6.367   1.978  0.7311  2.4322 -1.1713
 9684TIP3   OH250466   6.592   4.793   0.357 -0.1696 -0.0439  0.4735
 9684TIP3    H150467   6.667   4.816   0.411 -1.2417 -1.3275  2.5764
 9684TIP3    H250468   6.550   4.877   0.335  1.1390  0.5784  0.3361
 9685TIP3   OH250469   3.276   6.502   4.345  0.0482  0.4928  0.2537
 9685TIP3    H150470   3.199   6.445   4.342 -1.6143  2.7237 -1.3391
 9685TIP3    H250471   3.342   6.450   4.390 -2.0841 -1.8476  0.8301
 9686TIP3   OH250472   6.272   6.587   0.012  0.3048 -0.1782 -0.8028
 9686TIP3    H150473   6.188   6.603  -0.032  0.9378  0.6456 -1.7252
 9686TIP3    H250474   6.336   6.636  -0.039  0.7537  2.6875  2.2771
 9687TIP3   OH250475   0.935   0.454   5.435 -0.7136 -0.2208 -0.1859
 9687TIP3    H150476   0.925   0.434   5.528  2.6683 -0.5197  0.1979
 9687TIP3    H250477   1.004   0.521   5.432  0.7773 -1.7562 -2.5390
 9688TIP3   OH250478   6.785   1.329  15.683  0.2953  0.3944 -0.5923
 9688TIP3    H150479   6.721   1.371  15.625 -1.4880 -0.9333  0.3342
 9688TIP3    H250480   6.833   1.268  15.627 -0.6077 -0.0215 -0.9239
 9689TIP3   OH250481   1.893   5.330   4.325  0.7765 -0.3377  0.4289
 9689TIP3    H150482   1.798   5.317   4.325  0.5390  1.2629  0.7865
 9689TIP3    H250483   1.909   5.389   4.252  1.8519 -2.8370 -1.3955
 9690TIP3   OH250484   1.502   4.442  16.652 -0.3807  0.2398 -0.0923
 9690TIP3    H150485   1.486   4.368  16.710  1.1294 -1.2983 -1.5868
 9690TIP3    H250486   1.557   4.501  16.703  0.4193 -0.8122  0.2679
 9691TIP3   OH250487   4.781   5.029  12.212 -0.3363  0.1700 -0.2039
 9691TIP3    H150488   4.707   5.083  12.239  0.9424  0.6608  2.4745
 9691TIP3    H250489   4.841   5.089  12.168 -0.3925  0.2643 -0.1512
 9692TIP3   OH250490   2.792   6.761  14.262  0.0338 -0.5308  0.1108
 9692TIP3    H150491   2.705   6.791  14.234  1.2041  0.3583 -2.7656
 9692TIP3    H250492   2.799   6.672  14.228  0.4589 -0.3823 -0.2022
 9693TIP3   OH250493   4.868   2.491   1.378 -0.0969  0.0552 -0.6350
 9693TIP3    H150494   4.802   2.552   1.347 -1.0761 -1.4065 -1.5046
 9693TIP3    H250495   4.893   2.441   1.300  0.8193 -0.5266  0.0205
 9694TIP3   OH250496   1.349   6.393  14.151  0.2380 -0.5177 -0.9183
 9694TIP3    H150497   1.310   6.305  14.151 -1.3601  0.1880 -0.5675
 9694TIP3    H250498   1.278   6.451  14.125  1.1998  0.7237 -0.7878
 9695TIP3   OH250499   6.272   1.865   6.092  0.7454 -0.0734  0.1430
 9695TIP3    H150500   6.338   1.814   6.139  0.9116 -1.1456 -1.2384
 9695TIP3    H250501   6.322   1.910   6.023  0.2492  0.2519 -0.0056
 9696TIP3   OH250502   1.164   2.511   5.739  0.8109 -0.3405  0.5044
 9696TIP3    H150503   1.214   2.577   5.787  2.8813 -0.5063 -1.3107
 9696TIP3    H250504   1.207   2.428   5.761 -0.0180 -0.7391  0.6196
 9697TIP3   OH250505   3.839   6.302  10.843 -0.2057  0.0135  0.4794
 9697TIP3    H150506   3.765   6.274  10.896  1.1570 -0.9370  1.9372
 9697TIP3    H250507   3.824   6.395  10.827 -0.5019  0.3910  2.7930
 9698TIP3   OH250508   1.550   6.124   2.431 -0.5357 -0.5893 -0.1005
 9698TIP3    H150509   1.588   6.065   2.497  0.2339 -0.2704 -0.2568
 9698TIP3    H250510   1.590   6.097   2.349  2.8269  2.6598  0.3768
 9699TIP3   OH250511   3.062   2.851   6.567 -0.3047  0.3024  0.3869
 9699TIP3    H150512   3.103   2.769   6.593 -0.9529 -0.2720 -0.3837
 9699TIP3    H250513   3.044   2.841   6.473 -0.0232  1.4810  0.1943
 9700TIP3   OH250514   5.959   5.026   6.034 -0.2117  0.0511 -0.6705
 9700TIP3    H150515   6.026   4.957   6.036 -0.4451 -0.2290 -2.4548
 9700TIP3    H250516   6.008   5.107   6.048  0.2383 -0.3273  0.0140
 9701TIP3   OH250517   5.872   2.218  11.881  0.0598 -0.5266 -0.7496
 9701TIP3    H150518   5.923   2.229  11.961 -1.4031  2.5989 -0.1884
 9701TIP3    H250519   5.811   2.147  11.901  1.7334 -1.8759 -0.2254
 9702TIP3   OH250520   6.236   1.048   6.421 -0.3824  0.3528 -0.9475
 9702TIP3    H150521   6.249   1.060   6.327 -0.7842 -0.1901 -1.0714
 9702TIP3    H250522   6.303   1.103   6.461 -0.0750  0.4261 -1.5529
 9703TIP3   OH250523   4.719   2.323  14.710  0.1286 -0.1152  0.4891
 9703TIP3    H150524   4.787   2.380  14.674  0.7345 -0.0742  1.6705
 9703TIP3    H250525   4.664   2.381  14.763 -0.1513 -0.3574  0.4648
 9704TIP3   OH250526   2.783   3.354   1.372  0.1062  0.2639  0.6130
 9704TIP3    H150527   2.726   3.280   1.393 -0.2846  0.1142 -0.9168
 9704TIP3    H250528   2.762   3.420   1.438  0.1468 -0.8219  1.7269
 9705TIP3   OH250529   1.314   3.294   0.644 -0.4576 -0.2277  0.1640
 9705TIP3    H150530   1.226   3.314   0.612 -0.2638  0.1364 -0.1497
 9705TIP3    H250531   1.362   3.377   0.636  0.4261 -0.8606 -1.3592
 9706TIP3   OH250532   6.782   4.542  13.975  0.0856 -0.1491 -0.2216
 9706TIP3    H150533   6.806   4.518  14.064 -3.1222  0.7713  0.9626
 9706TIP3    H250534   6.807   4.635  13.968  1.7232 -0.6261 -0.8111
 9707TIP3   OH250535   1.551   4.378   0.089  0.2915 -0.1075 -0.2399
 9707TIP3    H150536   1.637   4.342   0.065 -0.4450 -1.0257 -1.5508
 9707TIP3    H250537   1.564   4.412   0.178  1.9730 -0.3697 -0.3603
 9708TIP3   OH250538   1.084   1.873   3.456 -0.3807 -0.4399 -0.0668
 9708TIP3    H150539   1.014   1.811   3.476 -0.1387 -0.6785  0.0596
 9708TIP3    H250540   1.058   1.954   3.498 -1.2084 -0.1572 -1.1087
 9709TIP3   OH250541   5.691   6.046  15.987  0.0592 -0.2753 -0.3143
 9709TIP3    H150542   5.632   6.099  15.934  0.7810  1.4308  0.5502
 9709TIP3    H250543   5.705   6.098  16.066  1.4462 -1.3728  0.1772
 9710TIP3   OH250544   6.786   3.418  13.178  0.1433 -0.0908 -0.2384
 9710TIP3    H150545   6.753   3.484  13.239  0.7786  0.5229 -0.5457
 9710TIP3    H250546   6.870   3.453  13.149 -0.3329 -0.1766 -1.7805
 9711TIP3   OH250547   1.992   1.424   2.163 -1.0315 -0.2995 -0.0162
 9711TIP3    H150548   2.042   1.484   2.108  0.0636  0.9354  2.2716
 9711TIP3    H250549   1.908   1.414   2.118 -0.8577  2.1795 -0.9308
 9712TIP3   OH250550   5.382   4.893  17.151  0.1979  0.2390  0.8484
 9712TIP3    H150551   5.474   4.919  17.161  0.0253  1.4825 -0.5388
 9712TIP3    H250552   5.353   4.938  17.071 -0.9701 -1.9606 -0.0121
 9713TIP3   OH250553   6.118   0.139  16.988 -0.6030  0.4514  0.5690
 9713TIP3    H150554   6.189   0.114  16.929 -0.4903  0.9738  0.4728
 9713TIP3    H250555   6.163   0.173  17.066 -0.7338  1.5437  0.1767
 9714TIP3   OH250556   1.233   1.249  13.010 -0.0461 -0.2161 -0.7786
 9714TIP3    H150557   1.196   1.307  13.076 -0.6809 -1.9202  0.4156
 9714TIP3    H250558   1.311   1.294  12.978 -1.1033  1.7592 -0.6783
 9715TIP3   OH250559   2.424   2.854  14.458 -0.1681 -0.0697  0.2711
 9715TIP3    H150560   2.504   2.817  14.420  0.0057 -1.3600  1.8536
 9715TIP3    H250561   2.356   2.835  14.393  0.7972  1.1141 -1.1225
 9716TIP3   OH250562   2.959   2.401  11.873  0.5547  0.2438 -0.2050
 9716TIP3    H150563   2.941   2.308  11.882  0.3254  0.3020 -0.0556
 9716TIP3    H250564   3.002   2.425  11.956 -1.1846  0.6959  0.5879
 9717TIP3   OH250565   4.637   4.609   2.037 -0.0076 -0.1688 -0.2971
 9717TIP3    H150566   4.563   4.665   2.061 -0.6499 -0.8045 -0.7692
 9717TIP3    H250567   4.675   4.652   1.961 -1.1301 -0.9012 -1.2968
 9718TIP3   OH250568   1.899   1.869  14.491  0.6024  0.0569 -0.1628
 9718TIP3    H150569   1.879   1.808  14.420  0.6963 -0.3444  0.1560
 9718TIP3    H250570   1.880   1.955  14.454 -0.9211 -0.2579 -0.1359
 9719TIP3   OH250571   5.820   0.231  15.572 -0.1728 -0.1518  0.6503
 9719TIP3    H150572   5.814   0.293  15.646  1.5573  0.6496  0.1617
 9719TIP3    H250573   5.878   0.275  15.510 -1.2416 -1.0331 -0.9952
 9720TIP3   OH250574   3.393   6.449  15.200  0.1333  0.5444 -0.3390
 9720TIP3    H150575   3.372   6.376  15.259  0.8533 -0.4912 -1.3396
 9720TIP3    H250576   3.324   6.447  15.134 -0.9276  1.9879  0.6833
 9721TIP3   OH250577   3.612   3.445   0.927 -0.1365 -0.1567  0.1274
 9721TIP3    H150578   3.666   3.366   0.923 -0.8863 -0.8788  2.6405
 9721TIP3    H250579   3.674   3.517   0.929  0.5911 -0.7259 -1.2875
 9722TIP3   OH250580   2.661   2.653  13.484 -0.1357 -0.1156 -0.5240
 9722TIP3    H150581   2.614   2.570  13.476  2.5803 -1.7297 -0.1424
 9722TIP3    H250582   2.660   2.673  13.578 -1.1831  0.5784 -0.6607
 9723TIP3   OH250583   2.339   0.044   4.660  0.2754  0.0846  0.4383
 9723TIP3    H150584   2.342   0.128   4.613 -0.7908  0.7949  1.5897
 9723TIP3    H250585   2.246   0.030   4.677  0.4257 -1.5048 -0.0192
 9724TIP3   OH250586   6.370   0.235   4.420  0.3729  0.3713  0.1352
 9724TIP3    H150587   6.277   0.253   4.430  0.1262 -1.1090  0.6525
 9724TIP3    H250588   6.374   0.144   4.390  1.5593  1.1468 -2.2612
 9725TIP3   OH250589   2.679   5.593   5.325 -0.4516  0.1925 -0.1842
 9725TIP3    H150590   2.699   5.533   5.396 -1.3694 -0.0208 -0.0954
 9725TIP3    H250591   2.696   5.542   5.245  0.9317  0.5511 -0.1376
 9726TIP3   OH250592   0.586   0.105  13.118 -0.3022 -0.6996  0.3525
 9726TIP3    H150593   0.632   0.024  13.142 -1.5511 -0.4248  3.8058
 9726TIP3    H250594   0.497   0.076  13.096 -0.4619 -0.3958  0.5966
 9727TIP3   OH250595   2.788   3.377   0.610  0.2432  0.0564  0.1249
 9727TIP3    H150596   2.705   3.398   0.567 -0.3820 -0.5386  1.0399
 9727TIP3    H250597   2.764   3.348   0.698  1.3200 -1.2660  0.0117
 9728TIP3   OH250598   3.257   0.496  12.497 -0.3121 -0.0116 -0.4816
 9728TIP3    H150599   3.265   0.433  12.569 -1.4128  1.8613  1.3548
 9728TIP3    H250600   3.323   0.563  12.517 -0.9780  0.7833 -0.9292
 9729TIP3   OH250601   6.454   3.734  16.528 -0.0631 -0.2253 -0.2346
 9729TIP3    H150602   6.543   3.697  16.526 -0.7019 -1.7378 -1.2739
 9729TIP3    H250603   6.467   3.824  16.557  1.6444 -0.9300  1.3140
 9730TIP3   OH250604   6.249   3.977  11.603 -0.2482  0.0128  0.2739
 9730TIP3    H150605   6.190   4.043  11.568  0.3599 -0.0486 -0.8779
 9730TIP3    H250606   6.335   3.999  11.568  0.1076 -0.9187  0.5275
 9731TIP3   OH250607   2.703   4.105   1.996 -0.5790  0.0703 -0.3157
 9731TIP3    H150608   2.779   4.047   1.994  0.7704  1.7970 -0.4939
 9731TIP3    H250609   2.690   4.124   2.089  0.5425  1.4393 -0.4166
 9732TIP3   OH250610   2.267   4.111  13.663 -0.1895  0.4048 -0.0367
 9732TIP3    H150611   2.347   4.106  13.715 -0.3767  3.6602  0.6958
 9732TIP3    H250612   2.286   4.176  13.595 -1.9659  0.7775 -0.2067
 9733TIP3   OH250613   3.137   5.583   4.206  0.1051  0.0402  0.1436
 9733TIP3    H150614   3.183   5.552   4.128 -2.6177 -0.9667 -1.1264
 9733TIP3    H250615   3.191   5.655   4.239  2.1174 -0.5592 -1.7488
 9734TIP3   OH250616   6.059   1.815   5.913 -0.4450 -0.4752  0.4112
 9734TIP3    H150617   6.086   1.853   5.830 -3.1556  0.2102 -0.2007
 9734TIP3    H250618   6.132   1.832   5.973  0.5232  1.1079 -1.2044
 9735TIP3   OH250619   1.773   4.693   2.144 -0.0256  0.2040 -0.0820
 9735TIP3    H150620   1.785   4.681   2.238 -0.2852  0.8974  0.0399
 9735TIP3    H250621   1.855   4.663   2.105  0.6545  1.3188  0.4775
 9736TIP3   OH250622   5.156   5.672  14.915 -0.5998 -0.0126  0.2828
 9736TIP3    H150623   5.178   5.729  14.841 -0.7833 -0.5147 -0.1640
 9736TIP3    H250624   5.130   5.589  14.874 -0.3413 -0.4141  0.9303
 9737TIP3   OH250625   6.550   0.865  15.969 -0.4040  0.2242 -0.0778
 9737TIP3    H150626   6.630   0.819  15.994 -0.6114 -0.0831  0.0155
 9737TIP3    H250627   6.581   0.938  15.916 -0.1315 -0.4949 -0.9173
 9738TIP3   OH250628   0.626   4.081  16.151 -0.0255 -0.6466 -0.3197
 9738TIP3    H150629   0.705   4.131  16.133  0.3060 -1.2602 -0.5742
 9738TIP3    H250630   0.617   4.083  16.247  0.5286 -0.9179 -0.2603
 9739TIP3   OH250631   6.377   3.558   2.971 -0.0135 -0.4242  0.1814
 9739TIP3    H150632   6.309   3.618   2.940  1.2959  1.3153  0.6160
 9739TIP3    H250633   6.381   3.490   2.904 -0.8286  0.4906 -0.8234
 9740TIP3   OH250634   6.407   5.855   0.130 -0.1574 -0.2412 -0.0385
 9740TIP3    H150635   6.491   5.840   0.174 -0.7125 -1.0971  0.7383
 9740TIP3    H250636   6.395   5.950   0.134  1.4810  0.0638 -1.4908
 9741TIP3   OH250637   2.932   3.322   4.957  0.3938 -0.3668 -0.0085
 9741TIP3    H150638   2.896   3.397   5.005  0.1317 -0.8422  0.5413
 9741TIP3    H250639   2.997   3.284   5.017  0.0280 -0.9929 -0.0094
 9742TIP3   OH250640   0.848   3.281   3.069 -0.4411  0.1468  0.3790
 9742TIP3    H150641   0.753   3.282   3.077 -0.3935 -0.3628  1.0275
 9742TIP3    H250642   0.879   3.269   3.158  0.1951 -2.1111 -0.1342
 9743TIP3   OH250643   5.884   2.891  16.112 -0.7294 -0.0527 -0.2542
 9743TIP3    H150644   5.868   2.805  16.150  0.3927  0.5812  1.6890
 9743TIP3    H250645   5.970   2.884  16.070 -1.2089 -0.2433 -1.2259
 9744TIP3   OH250646   5.207   1.237   1.757 -0.3079  0.7812  1.1648
 9744TIP3    H150647   5.296   1.270   1.741  0.4796 -2.0732 -0.8573
 9744TIP3    H250648   5.150   1.302   1.718  1.1701  0.1599 -2.2573
 9745TIP3   OH250649   5.023   1.245   5.030 -0.3071 -0.1092 -0.2289
 9745TIP3    H150650   4.951   1.306   5.013 -0.5610 -0.6153 -0.9906
 9745TIP3    H250651   5.100   1.289   4.993  0.1201  1.2398  2.1508
 9746TIP3   OH250652   4.994   1.586  16.440  0.3407 -0.3520  0.1433
 9746TIP3    H150653   4.941   1.509  16.461 -0.1465 -0.3139 -0.9585
 9746TIP3    H250654   5.017   1.576  16.348  2.0385 -0.2367  0.5354
 9747TIP3   OH250655   6.314   1.151   4.255 -0.2764  0.0545 -0.0930
 9747TIP3    H150656   6.253   1.077   4.254  0.4825 -0.5562 -1.1123
 9747TIP3    H250657   6.313   1.181   4.346 -1.5122 -0.4345  0.0642
 9748TIP3   OH250658   6.103   5.262  13.195  0.0621  0.5560  0.0111
 9748TIP3    H150659   6.034   5.199  13.174  1.4243 -1.7950  2.2894
 9748TIP3    H250660   6.076   5.302  13.278  1.0761  0.1259  0.5631
 9749TIP3   OH250661   4.308   3.546   1.265  0.4371 -0.5419  0.1773
 9749TIP3    H150662   4.354   3.510   1.341 -0.4830 -0.7330  0.6479
 9749TIP3    H250663   4.348   3.632   1.251  0.1788 -0.2446  1.2670
 9750TIP3   OH250664   1.752   0.277   2.414 -1.0497  0.1828 -0.1914
 9750TIP3    H150665   1.848   0.277   2.414 -1.0017 -0.4757  2.1059
 9750TIP3    H250666   1.729   0.185   2.419 -1.7593  0.4020  0.6891
 9751TIP3   OH250667   3.505   0.118   0.604 -0.0718  0.6472  0.0630
 9751TIP3    H150668   3.594   0.083   0.609  0.1147  0.6800 -2.3974
 9751TIP3    H250669   3.452   0.044   0.572 -0.2134  1.6710 -2.1961
 9752TIP3   OH250670   0.919   4.125   1.694 -0.2266  0.1782  1.0271
 9752TIP3    H150671   0.967   4.046   1.718 -0.5386 -1.3430 -2.9101
 9752TIP3    H250672   0.827   4.098   1.692 -0.3180  0.5219 -0.5163
 9753TIP3   OH250673   1.063   0.926   0.176  0.2191 -0.1058  0.0929
 9753TIP3    H150674   1.064   0.837   0.210 -1.6955 -0.5532 -0.9307
 9753TIP3    H250675   1.126   0.925   0.104 -1.0058 -1.1204 -1.0043
 9754TIP3   OH250676   1.637   4.935   2.182  0.6755  0.4424  0.0869
 9754TIP3    H150677   1.641   4.839   2.179  0.0752  0.3457  1.7909
 9754TIP3    H250678   1.549   4.954   2.212  1.7472  1.4191  2.7931
 9755TIP3   OH250679   3.309   1.941   0.918 -0.3875  0.1774 -0.6267
 9755TIP3    H150680   3.230   1.966   0.966  0.0124  2.0800 -0.9272
 9755TIP3    H250681   3.276   1.900   0.838 -1.0580 -0.3522 -0.0861
 9756TIP3   OH250682   6.064   0.685  14.375 -0.2350 -0.2518  0.8634
 9756TIP3    H150683   6.022   0.750  14.432  0.3329 -0.7230  1.8224
 9756TIP3    H250684   6.123   0.637  14.433  0.5715 -0.5350 -0.1901
 9757TIP3   OH250685   1.503   4.296   2.758  0.1035  0.0393 -0.0916
 9757TIP3    H150686   1.497   4.227   2.823  3.2996  0.1450  0.4103
 9757TIP3    H250687   1.596   4.321   2.757  0.1683  0.1198 -4.5794
 9758TIP3   OH250688   3.233   5.316  12.472  0.1620  0.0595  0.4422
 9758TIP3    H150689   3.147   5.339  12.505  0.2206  0.2778  0.4473
 9758TIP3    H250690   3.222   5.314  12.377  0.3188  0.7813  0.4096
 9759TIP3   OH250691   1.035   6.174  11.542 -0.1990 -0.0428  0.2500
 9759TIP3    H150692   1.125   6.190  11.513 -0.0853  2.4955  1.8826
 9759TIP3    H250693   1.043   6.104  11.607  0.9503  1.8211  2.1683
 9760TIP3   OH250694   3.780   1.132  10.727  0.5872 -0.2223  0.2745
 9760TIP3    H150695   3.770   1.057  10.670  0.4733 -0.0917  0.1211
 9760TIP3    H250696   3.751   1.207  10.674 -3.5524 -0.5921  1.8430
 9761TIP3   OH250697   2.893   3.943   0.324  0.3904  0.4314  0.1731
 9761TIP3    H150698   2.935   4.003   0.262  0.5969  1.6630  1.4884
 9761TIP3    H250699   2.965   3.892   0.361  0.5774  1.4678  1.2742
 9762TIP3   OH250700   2.258   1.276   0.797  0.1552  0.4078  0.5413
 9762TIP3    H150701   2.268   1.197   0.743 -1.2271  1.1460 -0.8628
 9762TIP3    H250702   2.273   1.348   0.736 -1.7048  1.2694  1.0508
 9763TIP3   OH250703   3.099   4.751   0.866  0.4279  0.3725  0.0417
 9763TIP3    H150704   3.143   4.774   0.784  0.3927  0.9286  0.1746
 9763TIP3    H250705   3.046   4.674   0.844 -0.3985  1.1340 -0.7352
 9764TIP3   OH250706   1.218   1.975   3.238 -0.6268  0.0182  0.5597
 9764TIP3    H150707   1.191   1.928   3.317 -2.1408  1.1527  0.7377
 9764TIP3    H250708   1.203   2.068   3.259 -0.0916  0.3986 -0.6981
 9765TIP3   OH250709   1.078   1.758  14.553  0.0347 -0.2098  0.2987
 9765TIP3    H150710   1.084   1.835  14.609 -0.7532 -0.5031  0.8095
 9765TIP3    H250711   0.988   1.759  14.520  0.2349 -0.5150 -0.2547
 9766TIP3   OH250712   2.651   6.617  13.929  0.0334  0.0875  0.6493
 9766TIP3    H150713   2.603   6.570  13.997  1.0783 -0.3074  1.1183
 9766TIP3    H250714   2.589   6.683  13.897 -0.7656 -0.3168  1.3560
 9767TIP3   OH250715   4.589   0.891  16.375 -0.7414 -0.1537  0.3553
 9767TIP3    H150716   4.636   0.947  16.313  0.1009 -2.4531 -1.1180
 9767TIP3    H250717   4.657   0.854  16.431 -1.2593 -0.0465  1.0649
 9768TIP3   OH250718   4.581   6.706   0.106 -0.8497 -0.5472  0.1989
 9768TIP3    H150719   4.554   6.765   0.177 -0.7831 -1.1661  0.7341
 9768TIP3    H250720   4.545   6.621   0.130 -1.9067 -0.5098 -1.1291
 9769TIP3   OH250721   4.853   0.220  11.754  0.5889  0.3385  0.2589
 9769TIP3    H150722   4.774   0.185  11.713 -0.5415  0.6500  2.1495
 9769TIP3    H250723   4.873   0.159  11.825  0.3963  1.7921  1.6004
 9770TIP3   OH250724   1.849   0.834   3.874  0.3747  0.0317 -0.3657
 9770TIP3    H150725   1.901   0.822   3.954  1.9867 -3.4940 -1.8533
 9770TIP3    H250726   1.763   0.798   3.896  1.3107 -2.5001 -0.6752
 9771TIP3   OH250727   0.245   4.463  14.452  0.6372  0.0778  0.3540
 9771TIP3    H150728   0.181   4.411  14.402 -0.4786  0.1938  1.6275
 9771TIP3    H250729   0.259   4.412  14.532  0.8159  0.9226  0.8620
 9772TIP3   OH250730   0.846   0.829   5.586 -0.4018 -0.5762  0.3088
 9772TIP3    H150731   0.866   0.922   5.600  0.7809 -0.8067  0.2116
 9772TIP3    H250732   0.753   0.821   5.606 -0.6422  0.7392 -0.2192
 9773TIP3   OH250733   5.887   3.451  14.362 -0.0250  0.1914  0.2109
 9773TIP3    H150734   5.878   3.436  14.456  0.9131  1.1299  0.4571
 9773TIP3    H250735   5.798   3.467  14.332 -0.5374 -1.5904  0.6656
 9774TIP3   OH250736   3.587   4.399  16.050 -0.0678 -0.6639 -0.0460
 9774TIP3    H150737   3.545   4.438  15.974  0.3595 -1.3508 -0.6344
 9774TIP3    H250738   3.515   4.383  16.112 -0.3732  0.1471 -0.1885
 9775TIP3   OH250739   1.311   1.983   4.178 -0.3048  0.0047  0.6014
 9775TIP3    H150740   1.258   1.957   4.253 -1.1115  0.7420  0.2960
 9775TIP3    H250741   1.343   2.071   4.200 -0.6186  0.2615  0.0490
 9776TIP3   OH250742   2.854   2.037  15.473  0.2342 -0.5953 -0.5293
 9776TIP3    H150743   2.778   2.035  15.532  0.3640 -2.6386 -0.4007
 9776TIP3    H250744   2.816   2.053  15.386 -0.0715  1.2115 -0.0758
 9777TIP3   OH250745   5.255   1.263   1.397 -0.0730 -0.0328 -0.3386
 9777TIP3    H150746   5.170   1.292   1.428  1.1316 -0.0828  3.2418
 9777TIP3    H250747   5.297   1.342   1.364 -0.7188  0.3621 -0.2229
 9778TIP3   OH250748   4.387   0.371   4.800  0.3408  0.3465 -0.2921
 9778TIP3    H150749   4.456   0.343   4.860  0.5776  0.2423 -0.6151
 9778TIP3    H250750   4.404   0.464   4.786  0.4606  0.3014 -0.4370
 9779TIP3   OH250751   3.886   3.473   4.780 -0.5482  0.3128  0.4159
 9779TIP3    H150752   3.816   3.449   4.719 -1.0545  1.3408  0.5766
 9779TIP3    H250753   3.935   3.392   4.793 -2.1544 -0.6225  0.8701
 9780TIP3   OH250754   5.845   5.744   0.093  0.2158 -0.0554  0.3932
 9780TIP3    H150755   5.752   5.724   0.087 -0.1200  1.3797  0.7181
 9780TIP3    H250756   5.885   5.692   0.023 -0.7459 -1.1140  0.6145
 9781TIP3   OH250757   0.667   5.279  14.959 -0.2011 -0.1052  0.2166
 9781TIP3    H150758   0.631   5.341  15.022 -2.5881 -1.0858 -0.1198
 9781TIP3    H250759   0.682   5.331  14.880 -0.6604  0.3579  0.4346
 9782TIP3   OH250760   3.129   5.648  17.192 -0.3453 -0.1350 -0.9931
 9782TIP3    H150761   3.180   5.568  17.204  1.9243  1.5139  0.7179
 9782TIP3    H250762   3.090   5.638  17.105 -0.2259 -3.1272 -0.7731
 9783TIP3   OH250763   6.674   0.967  14.918  0.0070 -0.1476 -0.1055
 9783TIP3    H150764   6.710   0.988  15.004 -0.0742 -2.0362  0.3986
 9783TIP3    H250765   6.684   1.048  14.868  2.2254  0.2705  0.9513
 9784TIP3   OH250766   6.616   0.059   0.950 -0.1772  0.6716 -0.0584
 9784TIP3    H150767   6.641  -0.023   0.907 -1.6935 -0.1531  0.6065
 9784TIP3    H250768   6.522   0.049   0.967 -0.3968  2.6132 -0.1015
 9785TIP3   OH250769   3.223   0.815   0.315  0.2497 -0.7146 -0.2630
 9785TIP3    H150770   3.150   0.877   0.317 -0.1382 -1.1167 -1.4425
 9785TIP3    H250771   3.300   0.868   0.337 -0.1868  0.0333 -0.5166
 9786TIP3   OH250772   0.486   5.965  14.799  0.5473  0.1688  0.1275
 9786TIP3    H150773   0.443   5.956  14.714  0.3012 -0.4236  0.3197
 9786TIP3    H250774   0.472   6.057  14.823 -2.6721 -0.5816  1.3050
 9787TIP3   OH250775   5.525   4.610   6.197 -0.6988  0.0215  0.6268
 9787TIP3    H150776   5.611   4.608   6.155 -0.2698  0.2495  1.4885
 9787TIP3    H250777   5.536   4.557   6.276 -0.8202  1.6013  1.7142
 9788TIP3   OH250778   5.497   6.187  15.879 -0.4281 -0.0062  0.0160
 9788TIP3    H150779   5.403   6.172  15.871 -0.2867 -0.6301 -0.5008
 9788TIP3    H250780   5.506   6.247  15.953 -1.2741  0.5442 -0.3351
 9789TIP3   OH250781   1.675   2.832   0.704  0.0874  0.2251 -0.2343
 9789TIP3    H150782   1.727   2.846   0.625 -0.1032 -0.0850 -0.4144
 9789TIP3    H250783   1.598   2.887   0.692 -0.5531 -0.7903 -0.8407
 9790TIP3   OH250784   3.838   6.258   1.352 -0.3151  0.3621  0.0238
 9790TIP3    H150785   3.855   6.323   1.421  0.5243  0.1268  0.0417
 9790TIP3    H250786   3.895   6.284   1.280 -0.5349  0.0776 -0.2536
 9791TIP3   OH250787   3.720   6.187  11.365  0.0638 -0.0560 -0.0820
 9791TIP3    H150788   3.775   6.159  11.292  1.9998  0.2623  1.2442
 9791TIP3    H250789   3.767   6.261  11.404 -1.3711  0.3153  0.9789
 9792TIP3   OH250790   0.248   6.378  16.618 -0.0938 -0.2876  0.0941
 9792TIP3    H150791   0.326   6.336  16.655 -0.3763  0.4380  1.5324
 9792TIP3    H250792   0.283   6.440  16.553  0.7580  2.2846  2.9007
 9793TIP3   OH250793   5.628   2.929   5.246 -0.5576  0.0477  0.3556
 9793TIP3    H150794   5.674   2.948   5.164 -0.6597  0.8731  0.4853
 9793TIP3    H250795   5.662   2.994   5.308 -0.3371 -0.6932  1.0233
 9794TIP3   OH250796   0.321   4.167   6.537  0.3109 -0.2062  0.2086
 9794TIP3    H150797   0.403   4.212   6.556  1.8308 -2.2955 -1.2035
 9794TIP3    H250798   0.311   4.175   6.442 -0.4020 -1.1212  0.2011
 9795TIP3   OH250799   2.696   0.097   4.802 -0.3304  0.4971 -0.5812
 9795TIP3    H150800   2.776   0.046   4.816 -0.1139  0.9072 -0.3094
 9795TIP3    H250801   2.681   0.093   4.707  0.9027  1.7453 -0.8502
 9796TIP3   OH250802   6.024   4.022   1.761  0.1109 -0.7114  0.2916
 9796TIP3    H150803   6.092   4.084   1.738  0.5041 -0.8446  1.0769
 9796TIP3    H250804   5.945   4.075   1.773 -0.3797 -0.7456 -2.3747
 9797TIP3   OH250805   2.436   6.000   2.512  0.7349  0.0327 -0.0445
 9797TIP3    H150806   2.435   6.096   2.510  2.5435  0.1155  1.0984
 9797TIP3    H250807   2.525   5.979   2.542 -0.1031 -1.9649  1.0835
 9798TIP3   OH250808   1.448   1.385   1.158 -0.3046 -0.0705  0.2986
 9798TIP3    H150809   1.379   1.448   1.178 -1.3748 -1.1211  0.0112
 9798TIP3    H250810   1.448   1.380   1.062 -0.3545 -0.6445  0.3284
 9799TIP3   OH250811   3.364   1.441   3.820  0.1203  0.5978  1.0497
 9799TIP3    H150812   3.432   1.507   3.824 -0.4723  1.1473  2.0858
 9799TIP3    H250813   3.314   1.451   3.901 -0.3344 -0.7270  0.9603
 9800TIP3   OH250814   0.621   3.836  15.074  0.1765  0.0646 -0.0354
 9800TIP3    H150815   0.637   3.767  15.139  0.2982 -0.1714 -0.3165
 9800TIP3    H250816   0.707   3.871  15.054  0.1393  0.1328 -0.0765
 9801TIP3   OH250817   0.526   2.918   6.632 -0.4115 -0.0314  0.1158
 9801TIP3    H150818   0.557   2.861   6.562  0.8622  1.3828 -0.5058
 9801TIP3    H250819   0.462   2.976   6.589 -1.6529 -0.9292  0.7264
 9802TIP3   OH250820   6.153   2.009  13.975 -0.6325  0.3561 -0.0362
 9802TIP3    H150821   6.195   2.088  14.008 -0.2189  0.4540 -0.7899
 9802TIP3    H250822   6.192   1.995  13.889  0.6176 -1.6567  0.8122
 9803TIP3   OH250823   6.100   2.164  10.641  0.5787  0.1944  1.0078
 9803TIP3    H150824   6.019   2.207  10.667  0.7661  1.9685 -1.1523
 9803TIP3    H250825   6.078   2.071  10.637 -1.2337  0.6104  0.8406
 9804TIP3   OH250826   5.938   1.852   5.450 -0.1158 -0.3963  0.0697
 9804TIP3    H150827   5.879   1.925   5.468 -0.9387 -0.7974 -1.0045
 9804TIP3    H250828   5.922   1.790   5.521 -0.0850  0.0398  0.4649
 9805TIP3   OH250829   5.731   0.982   5.543 -0.9311 -0.4219  0.1196
 9805TIP3    H150830   5.674   0.995   5.467  0.7251 -2.6883 -1.6138
 9805TIP3    H250831   5.717   0.890   5.568 -2.3494  0.6103  3.3791
 9806TIP3   OH250832   0.382   2.404   0.198  0.3670 -0.2182  0.1734
 9806TIP3    H150833   0.374   2.313   0.168 -1.0578 -0.5276  1.4258
 9806TIP3    H250834   0.299   2.423   0.241  0.3965  1.9130 -0.6477
 9807TIP3   OH250835   2.503   2.765   1.633 -0.6718  0.8763 -0.2235
 9807TIP3    H150836   2.448   2.729   1.563 -0.0653 -1.8066  0.6231
 9807TIP3    H250837   2.591   2.765   1.597 -0.4362 -0.0258  0.3306
 9808TIP3   OH250838   6.780   4.330  11.391  0.2597 -0.3118  0.1637
 9808TIP3    H150839   6.802   4.352  11.300 -2.1579  1.8130  0.0633
 9808TIP3    H250840   6.709   4.266  11.383 -1.7163  1.8006  0.5499
 9809TIP3   OH250841   1.419   5.058   5.815  0.2065 -0.4097 -0.6210
 9809TIP3    H150842   1.365   5.093   5.744 -0.7341 -0.0577  0.2692
 9809TIP3    H250843   1.381   4.973   5.834  1.5337 -1.2801 -1.7085
 9810TIP3   OH250844   1.144   2.384   4.251  0.0050  0.2466  0.5244
 9810TIP3    H150845   1.081   2.383   4.323  1.7291 -1.0693  2.0259
 9810TIP3    H250846   1.197   2.462   4.266 -1.6442  1.7814 -1.1591
 9811TIP3   OH250847   0.506   2.671   0.589  0.4951 -0.3166 -0.1495
 9811TIP3    H150848   0.447   2.712   0.652  2.2505 -0.0038  1.3239
 9811TIP3    H250849   0.531   2.741   0.529  1.8649  0.3048  1.1318
 9812TIP3   OH250850   4.193   1.877  12.848 -0.0501 -0.1908  0.4812
 9812TIP3    H150851   4.274   1.897  12.800  0.4337  0.6709  1.6301
 9812TIP3    H250852   4.134   1.841  12.782  0.8846  0.2158 -0.5934
 9813TIP3   OH250853   4.392   1.664  10.578 -0.1139  0.0754 -0.5880
 9813TIP3    H150854   4.319   1.725  10.589 -0.8031 -0.8043 -0.2005
 9813TIP3    H250855   4.469   1.720  10.565 -0.9625  0.9998 -1.7039
 9814TIP3   OH250856   3.674   4.064  14.772  0.0372 -0.4398 -0.3653
 9814TIP3    H150857   3.720   3.988  14.809  0.0374 -0.1324  0.2551
 9814TIP3    H250858   3.602   4.026  14.722  1.2961 -0.9674 -1.8380
 9815TIP3   OH250859   6.080   5.927   3.034  0.0493 -0.0847 -0.5435
 9815TIP3    H150860   6.162   5.967   3.065  1.2074 -0.9160 -2.4611
 9815TIP3    H250861   6.014   5.995   3.047  0.8125  0.2351  2.0209
 9816TIP3   OH250862   5.013   0.976  14.732 -0.6548 -0.0772  0.3513
 9816TIP3    H150863   4.933   1.027  14.749 -1.0488 -0.8554  0.8647
 9816TIP3    H250864   4.993   0.889  14.767  0.4075 -0.2840  0.4367
 9817TIP3   OH250865   0.398   1.797  10.999  0.0028  0.3232 -0.7087
 9817TIP3    H150866   0.454   1.842  10.936  1.0740 -1.2902 -0.9336
 9817TIP3    H250867   0.395   1.706  10.969 -1.5224  0.0608  0.1559
 9818TIP3   OH250868   1.058   5.965  12.271  0.6320  0.2770 -0.4099
 9818TIP3    H150869   1.071   6.059  12.283 -0.2679  0.4379 -0.6488
 9818TIP3    H250870   0.970   5.958  12.235  0.3442 -0.7151  0.4614
 9819TIP3   OH250871   2.394   0.401  13.120  0.5813  0.2824 -0.1642
 9819TIP3    H150872   2.455   0.472  13.139  1.0712  0.1549 -1.2579
 9819TIP3    H250873   2.378   0.361  13.206 -0.0482  1.9665  0.5431
 9820TIP3   OH250874   6.142   5.347   2.911  0.3857  0.3537 -0.2865
 9820TIP3    H150875   6.163   5.386   2.996  0.4696  1.3415 -0.7528
 9820TIP3    H250876   6.048   5.331   2.914  0.9398 -3.0512  1.3883
 9821TIP3   OH250877   1.197   1.915   1.691  0.4061 -0.5580  0.5759
 9821TIP3    H150878   1.213   1.999   1.733 -0.5625 -0.1695  0.1805
 9821TIP3    H250879   1.222   1.928   1.600  0.8001 -0.8728  0.6350
 9822TIP3   OH250880   2.013   3.778  15.304 -0.1039  0.6884 -0.1320
 9822TIP3    H150881   2.088   3.836  15.295  1.8749 -1.7688 -0.0581
 9822TIP3    H250882   2.021   3.716  15.231 -2.8352  1.2085 -0.9206
 9823TIP3   OH250883   2.009   2.130  10.941  0.4988 -0.0458  0.0304
 9823TIP3    H150884   1.998   2.164  10.852  1.7740 -1.6622 -0.7864
 9823TIP3    H250885   1.921   2.101  10.966  0.3691 -0.8243 -1.2553
 9824TIP3   OH250886   3.581   1.679   3.859 -0.0360  0.1030 -0.6285
 9824TIP3    H150887   3.509   1.742   3.851 -1.4445 -1.3815  0.0624
 9824TIP3    H250888   3.605   1.659   3.769 -1.6210 -0.6334 -0.9121
 9825TIP3   OH250889   6.712   0.300  13.347 -0.2912 -0.1609 -0.2097
 9825TIP3    H150890   6.778   0.332  13.408 -0.1431  0.1742 -0.5421
 9825TIP3    H250891   6.668   0.379  13.315 -1.5322 -0.4458  0.7630
 9826TIP3   OH250892   5.687   3.916   0.800 -0.6090  0.2940  0.5265
 9826TIP3    H150893   5.756   3.855   0.773 -1.4067 -0.4291  0.0888
 9826TIP3    H250894   5.733   3.986   0.845  0.4278 -0.1177  0.1198
 9827TIP3   OH250895   4.110   1.549   1.389 -0.0854 -0.2010  0.1662
 9827TIP3    H150896   4.073   1.470   1.428 -1.1024 -0.6863 -1.7279
 9827TIP3    H250897   4.034   1.603   1.368  0.5912  1.1880  1.2058
 9828TIP3   OH250898   3.791   1.003  13.247  0.1820 -0.4411 -0.1427
 9828TIP3    H150899   3.786   1.089  13.206  2.3946  0.3152  1.1005
 9828TIP3    H250900   3.703   0.986  13.279 -0.2088  1.4972 -0.1561
 9829TIP3   OH250901   5.372   5.153   0.245 -0.5628  0.2915 -0.0360
 9829TIP3    H150902   5.438   5.087   0.224  1.0276  1.7001  0.3927
 9829TIP3    H250903   5.305   5.142   0.178  0.4749 -0.6802 -0.9400
 9830TIP3   OH250904   0.203   6.559  15.024  0.7026 -0.5129  0.0669
 9830TIP3    H150905   0.192   6.570  15.119  1.0227  0.5991 -0.0134
 9830TIP3    H250906   0.118   6.526  14.994  0.5192 -0.6413  0.7077
 9831TIP3   OH250907   6.726   3.419   1.180 -0.5514  0.3860 -0.4859
 9831TIP3    H150908   6.714   3.504   1.222 -1.8314 -0.3942  0.7652
 9831TIP3    H250909   6.637   3.385   1.169  0.0640 -2.0248  1.6531
 9832TIP3   OH250910   3.406   1.793   2.816  0.1002 -0.6082  0.7147
 9832TIP3    H150911   3.351   1.743   2.876 -0.8464 -0.1232  0.2590
 9832TIP3    H250912   3.494   1.756   2.827 -0.5978 -2.3987  0.3403
 9833TIP3   OH250913   4.962   0.257  13.711  0.2368 -0.1341  0.0427
 9833TIP3    H150914   5.019   0.249  13.635  1.0261  0.3918  0.5691
 9833TIP3    H250915   4.959   0.168  13.748  3.4458  0.4625  1.9338
 9834TIP3   OH250916   0.785   3.323  11.462  0.8540 -0.2693  0.0490
 9834TIP3    H150917   0.714   3.373  11.503 -0.1014 -2.0293  0.6126
 9834TIP3    H250918   0.852   3.315  11.530 -0.0373 -1.7956  0.7854
 9835TIP3   OH250919   4.750   4.170  14.190  0.1189 -0.0139 -0.0205
 9835TIP3    H150920   4.831   4.151  14.238 -0.8977  0.3135  1.8707
 9835TIP3    H250921   4.743   4.100  14.125  0.9343 -1.1236  1.0751
 9836TIP3   OH250922   2.394   0.753  16.178  0.2353  0.1798 -0.2346
 9836TIP3    H150923   2.460   0.792  16.121  0.7511 -0.2357  0.0730
 9836TIP3    H250924   2.322   0.816  16.180  1.3044  1.3839  0.7256
 9837TIP3   OH250925   3.811   1.314   5.806 -0.0873  0.1194  0.4861
 9837TIP3    H150926   3.900   1.280   5.816 -0.2218 -0.4896 -0.2811
 9837TIP3    H250927   3.789   1.295   5.715 -0.1706  2.2873  0.0333
 9838TIP3   OH250928   5.446   2.767  15.023 -0.1651 -0.5348 -0.1952
 9838TIP3    H150929   5.430   2.828  15.096 -0.6656 -0.2790 -0.5195
 9838TIP3    H250930   5.532   2.793  14.989 -0.0204 -0.5232  0.1674
 9839TIP3   OH250931   2.367   5.344  12.827 -0.3454 -0.2028 -0.1808
 9839TIP3    H150932   2.415   5.391  12.895 -0.6211 -0.1296 -0.0369
 9839TIP3    H250933   2.404   5.256  12.829 -2.1824 -0.9639  1.8984
 9840TIP3   OH250934   5.377   2.387  15.314  0.3261  0.2111  0.3681
 9840TIP3    H150935   5.320   2.398  15.390 -2.4003  1.0871 -1.6991
 9840TIP3    H250936   5.420   2.471  15.303 -1.5822  1.0668 -0.7885
 9841TIP3   OH250937   3.168   6.140  13.774  0.1203 -0.1971  0.2377
 9841TIP3    H150938   3.101   6.075  13.753 -0.4138  0.8433 -1.3513
 9841TIP3    H250939   3.245   6.111  13.725  0.5042 -0.7294  1.1266
 9842TIP3   OH250940   0.566   6.069   4.749 -0.0613 -0.3542 -0.2813
 9842TIP3    H150941   0.636   6.107   4.802  0.7886 -1.7162 -0.4086
 9842TIP3    H250942   0.581   6.105   4.661  1.7916 -2.2588 -0.8020
 9843TIP3   OH250943   0.370   2.121   3.699  0.2540  0.3099  0.1362
 9843TIP3    H150944   0.452   2.137   3.745  0.7823 -0.5844 -0.4897
 9843TIP3    H250945   0.337   2.039   3.735  0.3352 -0.0500 -0.5914
 9844TIP3   OH250946   5.965   5.634   3.902 -0.0105 -0.1960 -0.2902
 9844TIP3    H150947   5.970   5.552   3.951 -0.8712 -0.6590 -0.9501
 9844TIP3    H250948   6.034   5.625   3.835  1.6858  0.7672  1.2849
 9845TIP3   OH250949   4.282   4.957  11.581 -1.0603  0.0545  0.1931
 9845TIP3    H150950   4.369   4.994  11.593 -2.1379  2.2571  1.5541
 9845TIP3    H250951   4.293   4.892  11.512  1.8911 -0.5985  1.2249
 9846TIP3   OH250952   2.468   0.692  15.407  0.8379 -0.0725  0.1205
 9846TIP3    H150953   2.485   0.750  15.481  0.2365  0.0750  0.1505
 9846TIP3    H250954   2.372   0.684  15.405  1.0156 -2.8087  1.4289
 9847TIP3   OH250955   3.337   3.267  13.827 -0.1965  0.7304  0.5446
 9847TIP3    H150956   3.316   3.176  13.846  1.1727  0.1251 -0.7708
 9847TIP3    H250957   3.297   3.285  13.743 -0.8968  1.5041  1.0362
 9848TIP3   OH250958   4.445   3.552  13.162 -0.4662 -0.2022 -0.0307
 9848TIP3    H150959   4.386   3.530  13.235  0.3179  0.5354  0.8399
 9848TIP3    H250960   4.398   3.523  13.084 -0.6104 -2.5428  0.8697
 9849TIP3   OH250961   3.460   5.560   4.302 -0.1045 -0.0102  0.8847
 9849TIP3    H150962   3.484   5.486   4.357  0.0892 -0.2648  0.4674
 9849TIP3    H250963   3.515   5.550   4.224  0.6198  1.1131  1.2376
 9850TIP3   OH250964   3.184   0.238  15.796  0.3310 -0.0376 -0.5586
 9850TIP3    H150965   3.124   0.277  15.859  0.1667 -1.4241  0.1503
 9850TIP3    H250966   3.161   0.145  15.795  2.1660 -0.5125 -0.6006
 9851TIP3   OH250967   4.111   2.509  13.857 -0.2037 -0.1781  1.2361
 9851TIP3    H150968   4.167   2.576  13.896 -0.1651  0.3332  0.3107
 9851TIP3    H250969   4.165   2.430  13.858  0.7038  0.4017 -0.0122
 9852TIP3   OH250970   1.610   6.057   4.894 -0.6418  0.8108 -0.1242
 9852TIP3    H150971   1.644   5.979   4.849 -2.5352  0.0990 -0.3584
 9852TIP3    H250972   1.678   6.080   4.957 -0.2429 -1.3085  0.2598
 9853TIP3   OH250973   3.809   3.392   3.658  0.0000 -0.7671  0.0647
 9853TIP3    H150974   3.750   3.361   3.589  1.6138 -0.3740 -1.5186
 9853TIP3    H250975   3.815   3.486   3.644 -0.9830 -0.4118  1.8200
 9854TIP3   OH250976   6.629   4.879   5.644 -0.2242  0.3615 -0.5616
 9854TIP3    H150977   6.679   4.958   5.625  0.0769  0.6352  1.2392
 9854TIP3    H250978   6.659   4.852   5.730 -4.7504  1.8908  1.7175
 9855TIP3   OH250979   3.564   4.998   3.108 -0.0065  0.1547  0.1294
 9855TIP3    H150980   3.525   5.007   3.021  0.3592  0.2985 -0.0237
 9855TIP3    H250981   3.554   5.084   3.148 -1.0998 -0.1962  0.6276
 9856TIP3   OH250982   1.356   4.804   1.851  0.3170  0.5943  0.1615
 9856TIP3    H150983   1.408   4.855   1.914  0.2907 -0.1776  0.8154
 9856TIP3    H250984   1.384   4.714   1.865  0.7085  0.4858 -1.3268
 9857TIP3   OH250985   0.347   6.153  15.946 -0.5331 -0.3650 -0.5995
 9857TIP3    H150986   0.356   6.167  15.852 -1.9027  1.3094 -0.5108
 9857TIP3    H250987   0.253   6.147  15.961 -0.2689 -1.9607  0.5034
 9858TIP3   OH250988   1.893   0.669  15.886 -0.3433 -0.2364 -0.3965
 9858TIP3    H150989   1.847   0.753  15.888  0.0301 -0.0271 -0.6286
 9858TIP3    H250990   1.871   0.631  15.801  1.5181  0.7613 -1.3345
 9859TIP3   OH250991   5.897   3.893   4.777 -0.3453 -0.1034 -0.1620
 9859TIP3    H150992   5.960   3.929   4.839 -1.6999  1.7213  0.2222
 9859TIP3    H250993   5.940   3.897   4.692  1.1878 -1.7857  0.5033
 9860TIP3   OH250994   2.513   2.315   4.104  0.1882  0.6322 -0.4828
 9860TIP3    H150995   2.504   2.339   4.012 -1.4763  1.2143 -0.1938
 9860TIP3    H250996   2.461   2.235   4.113  0.5115  0.4660 -0.0880
 9861TIP3   OH250997   2.423   4.886   3.585  0.2087  0.1407 -0.3043
 9861TIP3    H150998   2.471   4.845   3.512  1.4752 -0.6120  0.9209
 9861TIP3    H250999   2.356   4.939   3.543 -0.5238 -2.0355 -1.9913
 9862TIP3   OH251000   0.199   2.521  10.877 -0.2066 -0.2365  0.1422
 9862TIP3    H151001   0.147   2.465  10.818 -1.0943 -0.2476  0.9265
 9862TIP3    H251002   0.284   2.479  10.880  0.0414  0.0731 -1.5956
 9863TIP3   OH251003   6.018   4.299  16.588  0.4986  0.4485  0.3091
 9863TIP3    H151004   6.108   4.290  16.617 -0.5261 -1.2284  3.2741
 9863TIP3    H251005   5.977   4.355  16.653 -0.4353  1.8546 -1.4494
 9864TIP3   OH251006   3.350   2.476  15.670  0.6683 -0.0274 -0.7199
 9864TIP3    H151007   3.368   2.563  15.705 -0.8725 -0.6288  1.6899
 9864TIP3    H251008   3.434   2.430  15.675  0.6379  0.1131  1.6948
 9865TIP3   OH251009   2.853   6.541   5.676 -0.2918  0.3322 -0.4594
 9865TIP3    H151010   2.847   6.446   5.665 -0.7628  0.1193  1.4064
 9865TIP3    H251011   2.946   6.561   5.661  0.2182 -0.7260  1.0666
 9866TIP3   OH251012   4.484   1.550   1.269 -0.4761 -0.3484  0.6707
 9866TIP3    H151013   4.442   1.475   1.227  0.5240 -0.0461 -0.9116
 9866TIP3    H251014   4.493   1.615   1.199  1.9048 -0.1235  1.1316
 9867TIP3   OH251015   0.556   0.810   2.631 -0.0270 -0.4099  0.2647
 9867TIP3    H151016   0.483   0.826   2.571  0.2762  0.1998  0.0503
 9867TIP3    H251017   0.618   0.880   2.612 -0.2545  0.2232  1.8047
 9868TIP3   OH251018   2.146   3.001  10.524 -0.5147 -0.5414  0.6452
 9868TIP3    H151019   2.162   3.057  10.448 -0.3522 -2.0847 -0.4864
 9868TIP3    H251020   2.055   3.017  10.547 -1.2510 -1.7247 -1.3003
 9869TIP3   OH251021   3.479   5.840  11.460  0.2032 -0.3682  0.0137
 9869TIP3    H151022   3.568   5.834  11.425 -0.4967 -1.0377 -1.6702
 9869TIP3    H251023   3.463   5.756  11.502  0.6243  0.0196  0.9652
 9870TIP3   OH251024   5.964   4.966   2.118  0.4960 -0.1186 -0.2754
 9870TIP3    H151025   6.027   4.980   2.189 -0.4703 -0.2110  0.6076
 9870TIP3    H251026   6.007   5.002   2.041  1.6559 -0.2184  0.3100
 9871TIP3   OH251027   1.315   0.888  16.122  0.5385  0.7137  0.2277
 9871TIP3    H151028   1.349   0.859  16.207 -0.0733  0.5960  0.4330
 9871TIP3    H251029   1.393   0.905  16.070  0.9666 -2.8974 -0.4318
 9872TIP3   OH251030   5.183   2.767   2.662  0.1383  0.4179 -0.3373
 9872TIP3    H151031   5.274   2.795   2.674  0.2889  1.0015 -2.6309
 9872TIP3    H251032   5.137   2.846   2.635 -1.0393  0.0771  0.6175
 9873TIP3   OH251033   2.781   1.461   3.716  0.3928 -0.3030  0.0046
 9873TIP3    H151034   2.862   1.471   3.765 -0.7140 -2.5147  2.4499
 9873TIP3    H251035   2.749   1.550   3.703  2.3863  0.4872  0.4115
 9874TIP3   OH251036   2.290   1.315  16.449 -0.1753 -0.4779 -0.1630
 9874TIP3    H151037   2.343   1.372  16.505 -0.7385 -0.7271  0.6335
 9874TIP3    H251038   2.203   1.316  16.489 -0.4272 -1.1515 -0.6840
 9875TIP3   OH251039   5.211   1.945   1.235 -0.3396  0.0150  0.1161
 9875TIP3    H151040   5.253   1.962   1.151  1.1373  1.0128  1.0292
 9875TIP3    H251041   5.119   1.931   1.214  0.3369 -1.7134 -1.8869
 9876TIP3   OH251042   3.255   3.234   2.758  0.2569 -0.0358 -0.2955
 9876TIP3    H151043   3.328   3.294   2.740 -0.0501  0.2182 -0.6739
 9876TIP3    H251044   3.195   3.246   2.685  0.3352 -1.0168 -0.5207
 9877TIP3   OH251045   1.427   2.792   4.754  0.6472  0.5854 -0.1052
 9877TIP3    H151046   1.517   2.761   4.762  0.5516  0.0072 -1.1163
 9877TIP3    H251047   1.383   2.725   4.701 -1.0444 -0.4629  2.5204
 9878TIP3   OH251048   3.914   4.921   2.325 -0.1622 -0.9099 -0.2334
 9878TIP3    H151049   3.855   4.880   2.388  0.9109  0.7937  1.9412
 9878TIP3    H251050   4.000   4.919   2.368 -0.0610  3.5047 -0.0268
 9879TIP3   OH251051   6.318   6.301   1.496  0.3551  0.0867  0.2468
 9879TIP3    H151052   6.400   6.338   1.463 -0.4871  0.6199 -1.2908
 9879TIP3    H251053   6.251   6.334   1.436 -1.2205  1.0252  2.4789
 9880TIP3   OH251054   5.227   4.138   6.193  0.2974  0.4295  0.6076
 9880TIP3    H151055   5.283   4.144   6.116 -1.2478  0.8800 -0.4886
 9880TIP3    H251056   5.254   4.211   6.249  1.1269  0.3547  0.3048
 9881TIP3   OH251057   4.209   5.020   1.852  0.2992  0.1580 -0.2016
 9881TIP3    H151058   4.271   4.947   1.855  2.2216  1.7512  0.3368
 9881TIP3    H251059   4.194   5.042   1.944 -0.9087 -0.0644 -0.3384
 9882TIP3   OH251060   6.591   5.406   1.997 -0.4445 -0.3574 -0.2234
 9882TIP3    H151061   6.564   5.403   2.089 -0.0463 -0.3441 -0.1024
 9882TIP3    H251062   6.550   5.486   1.963  0.3166  0.2445  0.2444
 9883TIP3   OH251063   6.542   6.529   4.213  0.1211 -0.8826  0.1509
 9883TIP3    H151064   6.518   6.457   4.156 -2.0729 -0.1618  0.1137
 9883TIP3    H251065   6.468   6.538   4.273  0.4364  1.1842  0.2764
 9884TIP3   OH251066   1.269   0.084   2.161 -0.1934  0.3158  0.1335
 9884TIP3    H151067   1.284   0.124   2.247  0.4421  0.0707  0.1371
 9884TIP3    H251068   1.174   0.088   2.149 -0.2724  0.4515  0.7980
 9885TIP3   OH251069   4.224   3.742  12.710 -0.0541 -0.1356  0.0490
 9885TIP3    H151070   4.297   3.803  12.717 -0.8553  0.6235  2.1626
 9885TIP3    H251071   4.166   3.766  12.782 -0.5055 -3.2400  0.7976
 9886TIP3   OH251072   1.357   2.124  15.154  0.3608  0.3665 -0.3445
 9886TIP3    H151073   1.278   2.084  15.119  1.6391 -0.6280 -2.2019
 9886TIP3    H251074   1.390   2.179  15.082  0.8118  1.5736  0.7587
 9887TIP3   OH251075   2.489   3.379   2.184  0.7980  0.1000 -0.0697
 9887TIP3    H151076   2.436   3.412   2.257  1.4819 -0.9690  0.9260
 9887TIP3    H251077   2.428   3.378   2.110  0.5859  2.9303  0.0062
 9888TIP3   OH251078   4.923   0.041   6.345 -0.3680  0.5516 -0.3289
 9888TIP3    H151079   4.873  -0.040   6.337  1.7116 -0.7343 -0.6874
 9888TIP3    H251080   4.894   0.095   6.272 -1.4197 -0.0621 -0.3707
 9889TIP3   OH251081   5.771   3.888  14.227 -0.0865  0.1708  0.7591
 9889TIP3    H151082   5.684   3.906  14.262 -0.6652  0.7305 -0.9212
 9889TIP3    H251083   5.821   3.967  14.246 -0.5391  0.6679 -0.1084
 9890TIP3   OH251084   0.089   6.288   5.560  0.4651 -0.4264 -0.0147
 9890TIP3    H151085   0.087   6.358   5.495  0.5410 -0.9300 -0.5567
 9890TIP3    H251086   0.013   6.305   5.616  0.8332  0.4505  0.2313
 9891TIP3   OH251087   3.440   6.082  14.252 -0.6483  0.4905  0.0356
 9891TIP3    H151088   3.384   6.006  14.235  0.7641 -0.5433 -0.0655
 9891TIP3    H251089   3.506   6.079  14.182  0.2323  1.0140  0.8398
 9892TIP3   OH251090   6.667   4.130   5.323 -0.1934  0.4284  0.3706
 9892TIP3    H151091   6.651   4.042   5.290  1.2292 -0.5247  2.1326
 9892TIP3    H251092   6.700   4.117   5.412  1.7125  2.6272  0.0425
 9893TIP3   OH251093   2.317   0.526   5.788  0.2104 -0.2224 -0.1319
 9893TIP3    H151094   2.412   0.520   5.786  0.3292  1.5453 -1.3481
 9893TIP3    H251095   2.294   0.524   5.881  1.2187 -3.1515  0.1015
 9894TIP3   OH251096   1.245   3.632   5.730  0.1794 -0.2734 -0.5334
 9894TIP3    H151097   1.210   3.719   5.749 -1.9205 -1.1734 -0.1468
 9894TIP3    H251098   1.338   3.639   5.749 -0.1262  1.6324  0.3960
 9895TIP3   OH251099   0.424   5.618  16.665  0.3108  0.3600  0.2011
 9895TIP3    H151100   0.463   5.560  16.599  0.2743 -0.7468  1.1387
 9895TIP3    H251101   0.381   5.558  16.727 -1.3209  1.4717  0.1705
 9896TIP3   OH251102   4.627   6.071   1.210 -0.6202  0.7853 -0.0860
 9896TIP3    H151103   4.582   6.153   1.232 -0.1990  1.3345 -1.2187
 9896TIP3    H251104   4.577   6.003   1.254 -1.4797  1.5722  0.1586
 9897TIP3   OH251105   5.687   0.315   3.250 -0.0500  0.1772  0.1404
 9897TIP3    H151106   5.675   0.229   3.290  0.3465  0.2579  0.4362
 9897TIP3    H251107   5.713   0.296   3.160  0.7463 -0.0230  0.4065
 9898TIP3   OH251108   3.687   6.759   3.331  0.5712  0.0461 -0.0939
 9898TIP3    H151109   3.736   6.678   3.324  1.0614  0.3922 -0.7460
 9898TIP3    H251110   3.601   6.738   3.296  0.9528  0.0167 -1.0286
 9899TIP3   OH251111   1.692   2.079  15.404 -0.3432  0.2250  0.1511
 9899TIP3    H151112   1.626   2.145  15.423 -1.4683 -0.8742  0.1266
 9899TIP3    H251113   1.773   2.115  15.440 -0.6731  2.1892 -1.0264
 9900TIP3   OH251114   5.587   2.367   5.713 -0.7415  0.1578  0.1825
 9900TIP3    H151115   5.560   2.445   5.762 -0.9456 -0.6764  1.4189
 9900TIP3    H251116   5.531   2.367   5.635 -2.0771  0.2269  1.1209
 9901TIP3   OH251117   6.403   1.515   2.095  0.6281 -0.1972  0.2563
 9901TIP3    H151118   6.387   1.559   2.012 -1.1209  0.6367  1.0154
 9901TIP3    H251119   6.353   1.434   2.090  1.0679 -0.4658  0.2222
 9902TIP3   OH251120   1.573   1.018  14.947 -0.2049 -0.4089  0.4486
 9902TIP3    H151121   1.508   0.947  14.945 -0.1437 -0.4556  0.1873
 9902TIP3    H251122   1.628   1.003  14.870 -1.0281  0.7128 -0.3664
 9903TIP3   OH251123   3.837   4.151  16.496 -0.1438 -0.4091  0.3530
 9903TIP3    H151124   3.864   4.062  16.472 -2.0621 -1.0931  0.6829
 9903TIP3    H251125   3.773   4.176  16.430 -2.3354 -0.6955  2.3118
 9904TIP3   OH251126   3.880   2.936  16.640  0.4555  0.3165  0.4337
 9904TIP3    H151127   3.849   2.931  16.731 -1.5437  2.6843 -0.0604
 9904TIP3    H251128   3.929   3.019  16.637 -0.9341  1.1069 -1.0304
 9905TIP3   OH251129   5.373   5.799  12.533 -0.0800 -0.4969 -0.4845
 9905TIP3    H151130   5.397   5.775  12.443 -1.1875  0.3560 -1.0348
 9905TIP3    H251131   5.286   5.761  12.544  0.7157 -1.9702  0.8071
 9906TIP3   OH251132   4.333   0.599   5.790  0.1933 -0.0913  0.3574
 9906TIP3    H151133   4.427   0.608   5.806  0.3239  0.2230 -0.5606
 9906TIP3    H251134   4.326   0.572   5.699 -0.6770  2.2187 -0.3046
 9907TIP3   OH251135   1.777   1.769   4.987 -0.0676  0.0813 -0.9139
 9907TIP3    H151136   1.790   1.675   5.003 -1.9188 -0.4612 -2.4597
 9907TIP3    H251137   1.695   1.790   5.032  0.6619  1.1301 -0.0359
 9908TIP3   OH251138   3.517   5.841   3.963 -0.5987  0.0366 -0.0548
 9908TIP3    H151139   3.576   5.901   4.009  0.4673 -0.5232 -0.6860
 9908TIP3    H251140   3.440   5.894   3.943 -0.0956  0.9117  0.2971
 9909TIP3   OH251141   5.754   2.777  14.268 -1.1702  0.4874  0.3085
 9909TIP3    H151142   5.763   2.682  14.270  1.1129  0.6590 -0.3911
 9909TIP3    H251143   5.814   2.808  14.335 -1.7623  1.4539  0.4007
 9910TIP3   OH251144   0.131   3.953   4.511 -0.6289  0.4812  0.3679
 9910TIP3    H151145   0.077   3.937   4.588 -0.2144  1.0730  0.7865
 9910TIP3    H251146   0.159   4.044   4.520  1.5945 -0.2135  0.9173
 9911TIP3   OH251147   0.294   1.738   1.438 -0.3307 -0.0610 -0.2858
 9911TIP3    H151148   0.284   1.684   1.360  0.2187 -0.3448 -0.1650
 9911TIP3    H251149   0.251   1.820   1.417 -0.7950 -0.3899 -0.6304
 9912TIP3   OH251150   4.299   6.576  11.693  0.1235 -0.3468  0.5633
 9912TIP3    H151151   4.295   6.500  11.750 -0.1800 -2.1145 -1.7354
 9912TIP3    H251152   4.383   6.567  11.647 -0.1597  0.3860 -0.1105
 9913TIP3   OH251153   3.215   5.729   2.362 -0.0891  0.2515  0.2652
 9913TIP3    H151154   3.260   5.667   2.306  0.2095  0.9886 -0.3290
 9913TIP3    H251155   3.259   5.813   2.346  0.6957  0.2871  2.3866
 9914TIP3   OH251156   2.568   1.262  15.921  0.2990  0.2820 -0.0354
 9914TIP3    H151157   2.520   1.334  15.962  0.0171  0.5221 -0.7764
 9914TIP3    H251158   2.651   1.301  15.893  0.9436 -0.1379  1.2632
 9915TIP3   OH251159   3.857   4.475  17.114  0.0949 -0.1449  0.0370
 9915TIP3    H151160   3.790   4.413  17.086 -0.9546  0.2859  1.4917
 9915TIP3    H251161   3.876   4.450  17.205  0.4598  0.9585  0.2779
 9916TIP3   OH251162   5.011   2.427   5.457  0.3264  0.4810  0.4355
 9916TIP3    H151163   5.003   2.491   5.528 -1.4308  1.6597 -0.7806
 9916TIP3    H251164   5.074   2.467   5.396  0.4118  0.3320  0.4263
 9917TIP3   OH251165   6.589   6.407  16.274  0.0605  0.7978 -0.1144
 9917TIP3    H151166   6.592   6.323  16.320  0.5380  0.1877 -1.2457
 9917TIP3    H251167   6.517   6.399  16.213  0.9110  0.7342 -1.1192
 9918TIP3   OH251168   1.291   1.753  13.579  0.6220 -0.2308 -0.1660
 9918TIP3    H151169   1.217   1.802  13.616 -0.3495 -0.9202 -1.1366
 9918TIP3    H251170   1.337   1.816  13.524 -0.2772 -0.2336 -0.9365
 9919TIP3   OH251171   2.137   1.979  13.242 -0.7355 -0.1911  0.7668
 9919TIP3    H151172   2.072   2.031  13.195  0.3935  0.2077 -0.3865
 9919TIP3    H251173   2.138   2.015  13.330 -1.0441  0.7355  0.3957
 9920TIP3   OH251174   6.070   3.608   3.127 -0.1070 -0.0790  0.0039
 9920TIP3    H151175   6.057   3.609   3.222  1.3831 -0.8982  0.2276
 9920TIP3    H251176   6.164   3.598   3.115 -0.3367 -0.6177 -1.5636
 9921TIP3   OH251177   4.518   6.619  14.557  0.3292  0.3101 -0.0766
 9921TIP3    H151178   4.588   6.678  14.584  0.1466 -0.1759  1.5449
 9921TIP3    H251179   4.563   6.545  14.516  0.7903 -0.0222  0.9947
 9922TIP3   OH251180   0.086   1.547   5.130 -0.0000  0.1156 -0.3092
 9922TIP3    H151181   0.004   1.534   5.179 -0.3356 -0.6702 -1.0589
 9922TIP3    H251182   0.058   1.590   5.049  0.2526 -0.6278 -0.7998
 9923TIP3   OH251183   5.380   6.242  13.833  0.0575 -0.0833 -0.2821
 9923TIP3    H151184   5.375   6.204  13.921 -0.7129  0.7332  0.0328
 9923TIP3    H251185   5.462   6.292  13.833 -0.4052  0.6878  0.2920
 9924TIP3   OH251186   5.183   5.339  16.261 -0.1017  0.0184 -0.2808
 9924TIP3    H151187   5.250   5.352  16.328 -0.9464  0.6538  0.4436
 9924TIP3    H251188   5.176   5.244  16.253 -1.2110 -0.1082  1.7878
 9925TIP3   OH251189   4.463   6.411  13.514  0.0901 -0.6927  0.4943
 9925TIP3    H151190   4.539   6.438  13.462 -2.1560  0.9605 -2.0657
 9925TIP3    H251191   4.453   6.480  13.580 -0.6274  0.3845 -0.7239
 9926TIP3   OH251192   1.639   4.307   1.567  0.2885  0.3549 -0.3162
 9926TIP3    H151193   1.593   4.223   1.565  0.5707  0.2077 -0.8442
 9926TIP3    H251194   1.584   4.364   1.621 -1.1757  0.5606 -1.9955
 9927TIP3   OH251195   5.957   5.346  14.274  0.0156  0.0044  0.5240
 9927TIP3    H151196   5.900   5.323  14.347 -2.2929  0.7184 -0.9808
 9927TIP3    H251197   5.910   5.416  14.228  0.3516 -1.8603 -2.8536
 9928TIP3   OH251198   5.154   5.242   3.460 -0.4609 -0.6848  0.0975
 9928TIP3    H151199   5.130   5.334   3.453  1.0365 -0.0254  2.7888
 9928TIP3    H251200   5.108   5.211   3.538 -0.7545 -2.1490 -0.6401
 9929TIP3   OH251201   2.985   1.633   4.782  0.3651  0.3340  1.0186
 9929TIP3    H151202   2.923   1.690   4.735  1.4279  1.4410  0.9384
 9929TIP3    H251203   3.066   1.638   4.731  0.0982 -2.3113  0.2631
 9930TIP3   OH251204   1.087   2.864   0.984 -0.1865  0.1869  0.1100
 9930TIP3    H151205   1.154   2.844   1.049 -0.9648 -2.3359  0.1877
 9930TIP3    H251206   1.004   2.856   1.032 -0.6538  1.2420 -0.4945
 9931TIP3   OH251207   1.256   6.349  16.319  0.1315 -0.1361 -0.2431
 9931TIP3    H151208   1.329   6.362  16.380 -0.3616  1.3608  0.0522
 9931TIP3    H251209   1.270   6.262  16.283  1.5415 -0.2408  0.5279
 9932TIP3   OH251210   2.336   4.455   1.913  0.7259 -0.4876 -0.4535
 9932TIP3    H151211   2.342   4.360   1.924  1.3020 -0.4446 -0.3754
 9932TIP3    H251212   2.415   4.489   1.955  0.9477 -0.0372 -1.2176
 9933TIP3   OH251213   3.549   0.945  13.337  0.0191 -0.2598 -0.2994
 9933TIP3    H151214   3.545   0.861  13.384 -0.8489 -0.3042 -0.4382
 9933TIP3    H251215   3.460   0.957  13.303  0.3329  0.3646 -0.8976
 9934TIP3   OH251216   4.803   4.573  12.206  0.0456  0.5635  0.2621
 9934TIP3    H151217   4.783   4.641  12.143 -0.4469 -0.0780 -0.2766
 9934TIP3    H251218   4.884   4.602  12.248  1.2303  0.2721 -1.7362
 9935TIP3   OH251219   2.532   0.560   6.472 -0.0858 -0.5824  0.4920
 9935TIP3    H151220   2.555   0.499   6.543  0.6366 -1.1841 -0.2375
 9935TIP3    H251221   2.452   0.524   6.434  0.5867 -1.3616 -0.2310
 9936TIP3   OH251222   1.546   2.714  12.655 -0.7969  0.2908 -0.3080
 9936TIP3    H151223   1.584   2.652  12.594  0.2125  0.5127  0.0866
 9936TIP3    H251224   1.482   2.663  12.705 -2.7027  0.4357 -2.5235
 9937TIP3   OH251225   1.869   0.932  13.063  0.1670  0.2538 -0.3797
 9937TIP3    H151226   1.816   0.991  13.117  1.9501 -0.1373  1.8624
 9937TIP3    H251227   1.885   0.980  12.982 -0.1944  1.9702  0.5620
 9938TIP3   OH251228   1.518   4.282  16.108  0.7443 -0.1546  0.0627
 9938TIP3    H151229   1.455   4.344  16.070  1.3417 -0.3987 -1.3609
 9938TIP3    H251230   1.591   4.337  16.135  1.2027 -0.2029 -1.0482
 9939TIP3   OH251231   4.660   5.183  15.013  0.1694  0.0837  0.4075
 9939TIP3    H151232   4.651   5.275  15.038 -0.4311  0.4665 -1.2211
 9939TIP3    H251233   4.619   5.176  14.927  0.6922 -1.5996  0.2691
 9940TIP3   OH251234   3.080   4.974  11.041 -0.1163  0.5728  0.1334
 9940TIP3    H151235   3.153   4.924  11.005 -1.2701 -0.1206 -1.2700
 9940TIP3    H251236   3.115   5.063  11.049  0.8279  0.2888 -0.6974
 9941TIP3   OH251237   5.964   4.795   1.114 -0.2296  0.7274  0.6896
 9941TIP3    H151238   5.932   4.810   1.026  1.1713 -1.0555 -0.1538
 9941TIP3    H251239   6.057   4.773   1.103  0.6324  3.0362  2.8099
 9942TIP3   OH251240   5.925   1.672   5.669 -0.1847  0.0471  0.4654
 9942TIP3    H151241   5.982   1.690   5.744  1.4934  0.6054 -0.9021
 9942TIP3    H251242   5.861   1.609   5.702  0.8388 -0.1129  2.2248
 9943TIP3   OH251243   0.007   0.231  17.009 -0.2457  0.3952 -0.0493
 9943TIP3    H151244   0.086   0.281  16.991  0.6078 -0.6756  0.6831
 9943TIP3    H251245   0.018   0.198  17.098 -1.6437  0.4738  0.1672
 9944TIP3   OH251246   0.412   1.963   4.362 -0.2276  0.7509 -0.5778
 9944TIP3    H151247   0.478   1.909   4.405 -0.4389 -0.3720 -1.6224
 9944TIP3    H251248   0.339   1.966   4.424 -1.3466 -2.5266 -1.6042
 9945TIP3   OH251249   4.431   5.208   5.294  0.2812 -0.2525  0.5599
 9945TIP3    H151250   4.450   5.204   5.200 -2.1803 -1.2499  0.0678
 9945TIP3    H251251   4.365   5.277   5.303  0.4433 -0.2138  1.5558
 9946TIP3   OH251252   3.172   5.247  16.364  0.0152 -0.2466  0.1101
 9946TIP3    H151253   3.180   5.207  16.451  1.1925  3.0754  1.6254
 9946TIP3    H251254   3.246   5.213  16.314 -0.8350 -2.4068  0.2698
 9947TIP3   OH251255   6.337   3.294  17.001 -0.2684 -0.2711 -0.2147
 9947TIP3    H151256   6.395   3.239  16.949  0.3439 -1.2215  1.4325
 9947TIP3    H251257   6.347   3.382  16.964  0.7897 -0.7805 -1.1426
 9948TIP3   OH251258   4.093   0.611   4.070 -0.1093  0.6672 -0.1481
 9948TIP3    H151259   4.093   0.518   4.092  0.1727  1.2432  2.4783
 9948TIP3    H251260   4.005   0.641   4.095  0.4989  1.5172  1.0530
 9949TIP3   OH251261   2.717   3.369   1.792 -0.1037 -0.7313 -0.8979
 9949TIP3    H151262   2.798   3.381   1.743  1.3396  1.6938  1.9681
 9949TIP3    H251263   2.735   3.295   1.851 -0.6937 -1.4966 -1.6652
 9950TIP3   OH251264   1.177   5.028  12.592 -0.1139 -0.2305  0.2217
 9950TIP3    H151265   1.099   5.061  12.636 -0.3323  0.0717 -0.4038
 9950TIP3    H251266   1.166   4.933  12.592 -0.0976 -0.2387  0.8488
 9951TIP3   OH251267   2.588   3.145  14.600 -0.4647  0.2618  0.9159
 9951TIP3    H151268   2.660   3.094  14.563 -0.1489  0.4112  1.3197
 9951TIP3    H251269   2.545   3.085  14.661 -1.2874 -0.1447 -0.0444
 9952TIP3   OH251270   6.128   6.709  13.449 -0.1337 -0.2511  0.2616
 9952TIP3    H151271   6.144   6.624  13.408  0.7653 -0.3047  0.7044
 9952TIP3    H251272   6.049   6.742  13.406 -0.3319 -1.1847 -0.1055
 9953TIP3   OH251273   1.737   2.112  10.970  0.1817  0.8454  0.4959
 9953TIP3    H151274   1.667   2.105  11.035 -0.1806  0.4843  0.0707
 9953TIP3    H251275   1.694   2.151  10.893  0.1259 -0.6051 -0.2283
 9954TIP3   OH251276   5.005   2.243   0.758  0.4139  0.7815  1.3793
 9954TIP3    H151277   4.957   2.195   0.690  1.2361  0.3095  1.1202
 9954TIP3    H251278   4.954   2.322   0.772  0.0280  0.7027  0.4809
 9955TIP3   OH251279   0.808   6.668   2.734 -0.8497  0.7340  0.5080
 9955TIP3    H151280   0.898   6.648   2.759  0.0079 -0.5711 -3.2654
 9955TIP3    H251281   0.811   6.759   2.702 -1.2303  1.2396  1.8869
 9956TIP3   OH251282   2.135   2.766  13.213 -0.4493  0.3653  0.4982
 9956TIP3    H151283   2.142   2.748  13.119  4.2692  1.9822  0.4042
 9956TIP3    H251284   2.182   2.694  13.254 -0.7726  0.7230  1.4915
 9957TIP3   OH251285   6.014   0.263  15.351  0.0044  0.1905 -0.2061
 9957TIP3    H151286   5.994   0.354  15.374 -2.6588 -0.2976 -0.5166
 9957TIP3    H251287   6.089   0.270  15.292  1.1580  2.0347  1.4007
 9958TIP3   OH251288   2.875   5.505  15.313 -0.7474  0.6582 -0.1780
 9958TIP3    H151289   2.919   5.537  15.392 -1.4852  1.2331 -0.0027
 9958TIP3    H251290   2.944   5.458  15.265 -0.2902  0.3157  0.7971
 9959TIP3   OH251291   5.812   3.282  17.109  0.4611  0.1833 -0.2878
 9959TIP3    H151292   5.795   3.241  17.193 -1.4965  1.5603  0.0403
 9959TIP3    H251293   5.891   3.240  17.076 -0.4421 -2.5080  0.8476
 9960TIP3   OH251294   3.899   0.527   1.773  0.0277  0.0171 -0.6315
 9960TIP3    H151295   3.954   0.549   1.848 -0.4575  0.8227 -0.4993
 9960TIP3    H251296   3.955   0.474   1.716  0.2104 -1.1021  0.5709
 9961TIP3   OH251297   4.329   6.076  15.105  0.0852  0.4329 -0.4729
 9961TIP3    H151298   4.366   6.102  15.189 -1.6898  0.4119  0.3486
 9961TIP3    H251299   4.404   6.066  15.047  1.2554  1.3723  0.8592
 9962TIP3   OH251300   5.636   1.107  13.599  0.0929 -0.2387  0.1207
 9962TIP3    H151301   5.545   1.119  13.572 -0.2540 -3.6517 -0.3635
 9962TIP3    H251302   5.634   1.119  13.694 -1.4836 -3.4525  0.5488
 9963TIP3   OH251303   2.316   0.659   1.605  0.4579  0.2736 -0.0754
 9963TIP3    H151304   2.352   0.732   1.555 -3.2699  0.7677 -2.2721
 9963TIP3    H251305   2.297   0.695   1.692  1.8138  0.9547 -0.0645
 9964TIP3   OH251306   4.979   3.321   0.846 -0.4559  0.5244 -0.0359
 9964TIP3    H151307   5.021   3.393   0.893 -1.3216  0.9981  0.0188
 9964TIP3    H251308   4.995   3.339   0.754 -1.5059  1.3162 -0.0722
 9965TIP3   OH251309   2.765   6.473  14.185 -0.7456  0.0260 -0.0914
 9965TIP3    H151310   2.720   6.458  14.269 -0.6251 -1.6094 -0.2968
 9965TIP3    H251311   2.743   6.396  14.132 -0.3077  0.7505 -1.3424
 9966TIP3   OH251312   3.722   5.714  14.916  0.3022 -0.0439 -0.3308
 9966TIP3    H151313   3.735   5.717  14.822  0.1814 -0.2893 -0.3542
 9966TIP3    H251314   3.798   5.665  14.949 -1.3665 -2.9307 -0.6232
 9967TIP3   OH251315   5.924   5.945  13.870  0.0492  0.3739  0.0809
 9967TIP3    H151316   5.883   5.859  13.863  1.8761 -0.4150 -1.2086
 9967TIP3    H251317   5.991   5.934  13.938 -0.8194  1.2564  1.1109
 9968TIP3   OH251318   6.104   5.807  16.644  0.0366 -0.2176 -0.1423
 9968TIP3    H151319   6.016   5.823  16.609 -0.2155 -0.3713  0.4096
 9968TIP3    H251320   6.148   5.892  16.636 -0.4388  0.0793  0.3530
 9969TIP3   OH251321   5.395   0.082  11.792 -0.2885 -0.1289 -0.0402
 9969TIP3    H151322   5.462   0.099  11.726 -0.0822  0.9247  0.4303
 9969TIP3    H251323   5.440   0.034  11.861 -0.1631  0.0205 -0.0178
 9970TIP3   OH251324   4.418   5.336  12.423  0.5169 -0.1739 -0.7996
 9970TIP3    H151325   4.408   5.297  12.510  1.7794  1.4924  0.1115
 9970TIP3    H251326   4.356   5.409  12.423  2.2231  1.3036 -0.4001
 9971TIP3   OH251327   6.096   4.831  16.977  0.3209  0.6423  0.1979
 9971TIP3    H151328   6.111   4.884  17.055  0.6566 -0.2359  0.7463
 9971TIP3    H251329   6.052   4.890  16.916 -1.8344  0.7642  1.7942
 9972TIP3   OH251330   3.511   1.671  17.030 -0.0411 -0.2155 -0.5506
 9972TIP3    H151331   3.586   1.701  16.978  0.3687  0.7403  0.5816
 9972TIP3    H251332   3.543   1.593  17.076  0.9484  1.3661  1.5425
 9973TIP3   OH251333   4.027   0.152  13.984  0.1160  0.1499  0.4196
 9973TIP3    H151334   4.108   0.114  13.950 -0.1715 -0.7873  0.7715
 9973TIP3    H251335   4.044   0.246  13.988  1.3769 -0.0968  1.0080
 9974TIP3   OH251336   6.052   0.255   3.293  0.0828 -0.6280  0.3366
 9974TIP3    H151337   6.017   0.174   3.331  0.5106 -0.8695  0.2232
 9974TIP3    H251338   6.137   0.266   3.335 -0.6086  0.5576  1.4370
 9975TIP3   OH251339   0.022   2.265   0.439 -0.1492 -0.4251  0.4309
 9975TIP3    H151340  -0.046   2.206   0.407 -0.9905  0.7464  0.0135
 9975TIP3    H251341   0.024   2.336   0.374  3.1471 -1.6326 -0.9033
 9976TIP3   OH251342   2.862   4.648   0.290 -0.4199  0.1649 -0.2331
 9976TIP3    H151343   2.869   4.582   0.359  0.4477 -1.0327 -1.4281
 9976TIP3    H251344   2.899   4.605   0.212  0.5406  2.1952 -0.9484
 9977TIP3   OH251345   3.168   4.020  11.896 -0.1310  0.9192 -0.5259
 9977TIP3    H151346   3.183   4.105  11.937  0.6913 -0.1863  1.5897
 9977TIP3    H251347   3.132   3.966  11.967  0.8317 -0.9290 -1.4113
 9978TIP3   OH251348   6.633   3.619   0.331 -0.1079 -0.2236  0.2182
 9978TIP3    H151349   6.545   3.600   0.298  0.0367 -0.9528  0.2266
 9978TIP3    H251350   6.667   3.687   0.273 -0.2081 -0.8272 -0.5543
 9979TIP3   OH251351   0.013   2.360  10.749  0.2453 -0.0409 -0.6849
 9979TIP3    H151352  -0.021   2.447  10.726 -0.8380 -0.0170  0.9523
 9979TIP3    H251353  -0.049   2.300  10.709  0.8764 -0.0710 -1.6337
 9980TIP3   OH251354   2.050   6.534   5.423  0.2437  0.2320 -0.0653
 9980TIP3    H151355   2.081   6.554   5.511  0.6948  1.5807 -0.5129
 9980TIP3    H251356   2.069   6.614   5.373 -0.7011 -0.2459 -1.1938
 9981TIP3   OH251357   5.073   0.214  15.929  0.1573  0.3864  0.3319
 9981TIP3    H151358   4.985   0.182  15.912  0.2752 -0.9655  2.1326
 9981TIP3    H251359   5.074   0.235  16.022  2.0552 -0.6637  0.5696
 9982TIP3   OH251360   4.797   2.441  14.174  0.2831 -0.1158  0.1174
 9982TIP3    H151361   4.829   2.359  14.211  0.7130  0.1213  0.2763
 9982TIP3    H251362   4.853   2.458  14.099  1.0499  0.7021  0.8609
 9983TIP3   OH251363   5.006   6.025   1.656  0.0284 -0.4675 -0.1321
 9983TIP3    H151364   4.987   6.002   1.565  0.1977  1.0152 -0.5554
 9983TIP3    H251365   4.938   5.980   1.707  1.5018 -3.4986 -0.7095
 9984TIP3   OH251366   3.337   5.810  12.712  0.0109 -0.0588 -0.1702
 9984TIP3    H151367   3.418   5.862  12.714 -0.3047  0.4160  0.2399
 9984TIP3    H251368   3.338   5.769  12.625  0.1072  0.8876 -0.6280
 9985TIP3   OH251369   4.970   6.179   4.075 -0.3901  0.1734 -0.5940
 9985TIP3    H151370   4.986   6.270   4.048  1.1117 -0.1101 -0.6496
 9985TIP3    H251371   4.924   6.140   4.000 -1.4573  1.0045 -0.3858
 9986TIP3   OH251372   4.561   5.442  10.905 -0.2247  0.0035  0.6851
 9986TIP3    H151373   4.567   5.411  10.996 -2.9201  0.4507  1.0345
 9986TIP3    H251374   4.541   5.363  10.855  0.4098 -0.0896  0.5673
 9987TIP3   OH251375   5.046   2.188  11.059 -0.5767  0.0670  0.5527
 9987TIP3    H151376   5.010   2.260  11.007  0.1070  0.8670  1.1627
 9987TIP3    H251377   5.028   2.213  11.150  0.1353 -0.2757  0.7937
 9988TIP3   OH251378   0.363   0.715   5.030  0.2367 -0.2788  0.4739
 9988TIP3    H151379   0.354   0.670   4.945  0.7443  2.1205 -0.8964
 9988TIP3    H251380   0.278   0.702   5.072  0.3378 -2.4401  0.0954
 9989TIP3   OH251381   2.277   1.018   3.920  0.0107  0.1184  0.5649
 9989TIP3    H151382   2.183   1.012   3.904 -0.3922  1.7200  2.2342
 9989TIP3    H251383   2.307   1.085   3.859  0.3282 -1.3619 -0.9371
 9990TIP3   OH251384   2.353   0.445   1.177  0.2077 -0.6984 -0.1754
 9990TIP3    H151385   2.360   0.458   1.082  2.2397 -1.5796 -0.1709
 9990TIP3    H251386   2.363   0.534   1.213  1.8032 -0.6314 -0.7070
 9991TIP3   OH251387   0.469   1.560  17.146  0.5623 -0.4449  0.1087
 9991TIP3    H151388   0.547   1.544  17.201  0.2480 -1.6318  0.2195
 9991TIP3    H251389   0.425   1.475  17.143  0.2267 -0.2150 -1.4542
 9992TIP3   OH251390   4.616   2.074   4.558  0.2348  0.3795 -0.6837
 9992TIP3    H151391   4.667   2.135   4.611 -0.3055  0.5040 -0.3033
 9992TIP3    H251392   4.617   1.992   4.607 -0.1763  0.4644 -0.5327
 9993TIP3   OH251393   6.344   2.707  15.133  0.9071  0.5441 -0.2139
 9993TIP3    H151394   6.377   2.748  15.053  1.5026 -1.5981 -1.1098
 9993TIP3    H251395   6.412   2.644  15.157 -0.6792 -1.0479  0.2218
 9994TIP3   OH251396   4.310   6.133  16.240 -0.0287  0.2876 -0.2376
 9994TIP3    H151397   4.290   6.091  16.323  1.1970  1.1168  0.4817
 9994TIP3    H251398   4.247   6.205  16.233  0.5120  0.8418  0.4672
 9995TIP3   OH251399   4.014   0.593   5.086 -0.4306  0.5142  0.0649
 9995TIP3    H151400   4.072   0.529   5.126 -0.2640  0.9581  0.5483
 9995TIP3    H251401   3.930   0.549   5.079  0.0016 -0.1822 -0.7713
 9996TIP3   OH251402   3.421   0.466   4.531  0.0818 -0.0082  0.3737
 9996TIP3    H151403   3.421   0.560   4.550  1.7009 -0.1471  1.1957
 9996TIP3    H251404   3.456   0.459   4.443 -0.1697  0.1727  0.2599
 9997TIP3   OH251405   2.060   6.675   2.351  0.5067 -0.5428 -0.0454
 9997TIP3    H151406   2.152   6.655   2.335  0.1212 -1.0058 -1.7199
 9997TIP3    H251407   2.059   6.768   2.374  1.4374 -0.6361  0.3743
 9998TIP3   OH251408   0.031   1.177   3.715  0.0638  0.0978 -0.3085
 9998TIP3    H151409   0.073   1.144   3.794 -0.5241  0.1958  0.0427
 9998TIP3    H251410   0.081   1.254   3.691 -0.7107  0.9682  0.8468
 9999TIP3   OH251411   4.193   1.033  12.953  0.2733 -0.2095  0.3580
 9999TIP3    H151412   4.160   1.084  12.879  1.9396  0.2346 -0.1151
 9999TIP3    H251413   4.288   1.046  12.949  0.3685 -0.0858  2.6433
10000TIP3   OH251414   0.321   6.149  16.875  0.2895  0.0418 -0.2091
10000TIP3    H151415   0.319   6.110  16.962  1.3125 -1.5120 -0.8603
10000TIP3    H251416   0.233   6.185  16.863 -0.5189 -1.5964  0.6281
10001TIP3   OH251417   4.665   2.622  16.941 -0.0102 -0.1201 -0.2687
10001TIP3    H151418   4.628   2.620  16.853  2.0951 -0.7014 -1.1630
10001TIP3    H251419   4.711   2.538  16.950  0.0445  0.0556  1.2787
10002TIP3   OH251420   4.000   4.052  10.718  0.0757 -0.1402 -0.4587
10002TIP3    H151421   3.990   3.968  10.675 -1.1014  0.3350 -1.1451
10002TIP3    H251422   4.093   4.058  10.739  0.3536 -1.1375 -1.3735
10003TIP3   OH251423   3.647   3.951  11.340  0.5175 -0.0731 -0.3657
10003TIP3    H151424   3.591   4.010  11.290 -0.7135  0.0946  1.2070
10003TIP3    H251425   3.588   3.903  11.397  1.7690 -1.2283 -0.0078
10004TIP3   OH251426   3.033   0.383   4.494  0.1483  0.2289 -0.2084
10004TIP3    H151427   3.023   0.302   4.545  2.3332 -0.2189 -0.4346
10004TIP3    H251428   3.101   0.432   4.541 -1.6016  2.2392  0.2825
10005TIP3   OH251429   1.118   1.159  11.676  0.3743  0.1852 -0.1160
10005TIP3    H151430   1.099   1.198  11.761  2.3529 -3.1300  1.9194
10005TIP3    H251431   1.214   1.160  11.670  0.3473 -1.7252 -1.2583
10006TIP3   OH251432   1.767   6.315   5.428  0.0662  0.4961 -0.1571
10006TIP3    H151433   1.752   6.329   5.334 -0.9985  1.4913  0.1457
10006TIP3    H251434   1.820   6.390   5.455  1.1491 -0.2627 -0.1370
10007TIP3   OH251435   6.042   5.861   4.999  0.1425 -0.2534 -0.3654
10007TIP3    H151436   6.070   5.773   4.974  0.7861  0.2766 -1.5093
10007TIP3    H251437   5.948   5.862   4.982  0.4761 -0.0714 -2.3079
10008TIP3   OH251438   0.832   0.100   0.989  0.4009 -0.3897 -1.0232
10008TIP3    H151439   0.810   0.059   0.905 -3.7082 -1.0036  0.2030
10008TIP3    H251440   0.839   0.026   1.050 -0.9064  0.2982 -0.0164
10009TIP3   OH251441   1.331   2.158  13.040 -0.0933  0.0292 -0.0435
10009TIP3    H151442   1.413   2.187  13.081  0.4634 -0.7296 -0.6180
10009TIP3    H251443   1.268   2.159  13.112  0.6743 -0.4536  0.6588
10010TIP3   OH251444   2.829   0.432  12.189  0.4127  1.0549  0.1855
10010TIP3    H151445   2.846   0.406  12.280 -0.7327  0.4380  0.2212
10010TIP3    H251446   2.774   0.510  12.196  1.3454  1.7348  0.0324
10011TIP3   OH251447   4.860   1.298   4.742 -0.4430  0.1320  0.1699
10011TIP3    H151448   4.877   1.323   4.833 -2.5577 -0.4009  0.7454
10011TIP3    H251449   4.798   1.363   4.710 -1.9300 -1.3385  0.0178
10012TIP3   OH251450   3.992   4.773   3.071 -0.2995  0.2743 -0.3931
10012TIP3    H151451   4.020   4.864   3.077  1.1887 -0.2085  0.2674
10012TIP3    H251452   3.934   4.761   3.145  0.5097  0.3465  0.2581
10013TIP3   OH251453   1.330   5.573   1.993 -0.0453 -0.1485 -0.4710
10013TIP3    H151454   1.343   5.511   2.065 -1.2352 -0.4753 -0.5271
10013TIP3    H251455   1.373   5.654   2.022 -1.3669  0.0276  1.0202
10014TIP3   OH251456   0.793   2.130  15.540  0.2664 -0.4267 -0.3958
10014TIP3    H151457   0.755   2.077  15.612 -1.4781  0.4642 -0.6299
10014TIP3    H251458   0.880   2.092  15.527 -0.0620 -1.7660  0.9943
10015TIP3   OH251459   5.456   3.882   0.145  0.3107  0.3484 -0.5010
10015TIP3    H151460   5.364   3.892   0.120  0.1879 -0.6437 -0.4711
10015TIP3    H251461   5.465   3.932   0.227 -0.6323 -1.0043  0.4456
10016TIP3   OH251462   5.112   3.243  12.381  0.2828  0.3787  0.3012
10016TIP3    H151463   5.046   3.237  12.312  0.0433  0.9237  0.4834
10016TIP3    H251464   5.114   3.155  12.420 -0.0563  0.2561  0.0441
10017TIP3   OH251465   2.088   4.371   3.855  0.6122 -0.2388 -0.2386
10017TIP3    H151466   2.083   4.466   3.855  2.2619 -0.1288 -0.4159
10017TIP3    H251467   2.162   4.351   3.798  0.0667 -1.6405 -0.4713
10018TIP3   OH251468   2.808   2.966  13.757 -0.3899  0.2370  0.6612
10018TIP3    H151469   2.818   2.924  13.672 -0.2022  2.2894 -0.3780
10018TIP3    H251470   2.885   2.938  13.806 -0.5587 -1.0606  0.1984
10019TIP3   OH251471   1.564   0.210  17.167 -0.8908  0.8478 -0.0273
10019TIP3    H151472   1.484   0.162  17.189 -0.5698  0.3160 -0.0100
10019TIP3    H251473   1.547   0.245  17.080 -0.6680 -0.3221 -0.5584
10020TIP3   OH251474   3.725   3.451  10.827 -0.2858 -0.2024 -0.1448
10020TIP3    H151475   3.814   3.484  10.838 -0.2359  0.0932 -1.3511
10020TIP3    H251476   3.719   3.378  10.888  1.2043 -1.0263 -0.9584
10021TIP3   OH251477   0.219   3.321   3.414  0.5847  0.2223 -0.0433
10021TIP3    H151478   0.215   3.349   3.323 -1.4590  0.1733  0.0097
10021TIP3    H251479   0.198   3.400   3.465  3.2713  0.6493  0.4852
10022TIP3   OH251480   2.723   2.232  16.032 -0.1007  0.2854  0.3617
10022TIP3    H151481   2.641   2.242  16.081 -0.2469  1.3676 -0.0716
10022TIP3    H251482   2.699   2.254  15.942  1.1577  2.9690  0.6445
10023TIP3   OH251483   5.704   6.023   0.130 -0.4184  0.4467 -0.4623
10023TIP3    H151484   5.782   5.970   0.143 -0.1159  1.1490  0.6710
10023TIP3    H251485   5.714   6.061   0.043  1.2756  1.8087  0.3107
10024TIP3   OH251486   1.923   1.967   2.454 -0.0514 -0.0436 -0.0531
10024TIP3    H151487   1.911   2.054   2.492  0.1372  0.1559 -0.4469
10024TIP3    H251488   1.849   1.956   2.393 -0.2227 -0.2667  0.1928
10025TIP3   OH251489   3.065   3.413  12.643  0.0784  0.0547  0.3319
10025TIP3    H151490   3.073   3.363  12.724 -1.1768 -1.0873 -0.2312
10025TIP3    H251491   2.970   3.423  12.630  0.3062  2.9383  0.6521
10026TIP3   OH251492   4.914   0.343   3.086  0.0902 -0.1307  0.3765
10026TIP3    H151493   4.924   0.339   2.991  0.5710 -0.2929  0.4359
10026TIP3    H251494   4.952   0.261   3.118 -1.0460 -0.5745  0.6274
10027TIP3   OH251495   6.512   5.438   3.759 -0.2741 -0.6238  0.2018
10027TIP3    H151496   6.471   5.516   3.721  2.2644 -0.8125 -3.2227
10027TIP3    H251497   6.442   5.374   3.764 -1.3716  0.4082 -1.4373
10028TIP3   OH251498   4.354   6.521  10.337  0.6557  0.3835  0.0273
10028TIP3    H151499   4.336   6.615  10.337  0.7191  0.4089  1.6558
10028TIP3    H251500   4.427   6.510  10.276  1.4536  1.5549  0.7719
10029TIP3   OH251501   2.774   3.691  11.359  0.4936 -0.0057  0.0586
10029TIP3    H151502   2.708   3.623  11.354 -0.1628  0.7290 -1.8737
10029TIP3    H251503   2.836   3.670  11.289  1.3176  0.3095  0.6843
10030TIP3   OH251504   4.357   3.233  12.763 -0.1194  0.6990  0.0820
10030TIP3    H151505   4.320   3.250  12.850 -1.5502  0.3432 -0.4434
10030TIP3    H251506   4.332   3.142  12.744  0.1570  0.7906 -0.7193
10031TIP3   OH251507   1.467   4.639  15.169 -0.1152  0.2276 -0.4602
10031TIP3    H151508   1.420   4.713  15.209 -0.4990 -0.8717  1.1543
10031TIP3    H251509   1.414   4.562  15.191  1.0326 -0.6978 -0.9135
10032TIP3   OH251510   4.208   5.356  13.663 -0.1671  0.4033  0.6161
10032TIP3    H151511   4.293   5.396  13.644  0.6875 -1.4669  0.3338
10032TIP3    H251512   4.212   5.270  13.620 -0.4354 -1.5512  4.2976
10033TIP3   OH251513   1.153   0.797   2.606  0.0141  0.3054 -0.2444
10033TIP3    H151514   1.137   0.821   2.515 -1.1924  0.5526  0.0147
10033TIP3    H251515   1.089   0.849   2.656  2.6246  2.4140  1.0269
10034TIP3   OH251516   4.072   3.916   0.668 -0.2185 -0.0806 -0.5437
10034TIP3    H151517   4.094   3.892   0.577 -0.9498  0.3463 -0.8369
10034TIP3    H251518   4.071   3.832   0.715 -2.2342 -0.5808 -1.4484
10035TIP3   OH251519   0.596   4.698   1.193 -0.0258 -0.4269  0.3485
10035TIP3    H151520   0.552   4.645   1.127 -1.0631 -0.8462  1.3802
10035TIP3    H251521   0.680   4.653   1.208 -0.4631 -1.2043  0.4748
10036TIP3   OH251522   2.553   6.248   2.663 -0.2852 -0.2995 -0.2762
10036TIP3    H151523   2.640   6.283   2.680 -0.5173  0.3495 -0.4140
10036TIP3    H251524   2.493   6.321   2.681 -0.7567 -0.5758 -0.6970
10037TIP3   OH251525   1.498   0.231  12.654 -0.1483 -0.7313 -0.5112
10037TIP3    H151526   1.466   0.266  12.737 -1.8420 -0.4946 -1.2449
10037TIP3    H251527   1.419   0.215  12.603  0.9366  1.4027 -2.9989
10038TIP3   OH251528   0.464   5.584  11.243 -0.6876  0.1710  0.0552
10038TIP3    H151529   0.520   5.508  11.260  1.8770  2.2011  0.8827
10038TIP3    H251530   0.455   5.585  11.148 -0.8131 -1.1961  0.0320
10039TIP3   OH251531   0.959   5.824  12.001  0.1751  0.3906 -0.7074
10039TIP3    H151532   1.054   5.825  11.996  0.1918 -1.7004 -0.8988
10039TIP3    H251533   0.935   5.916  12.014  2.2681  0.7416  0.8184
10040TIP3   OH251534   5.360   3.175   0.551 -0.0368  0.0788 -0.1191
10040TIP3    H151535   5.364   3.093   0.502  1.1307 -0.0584  0.1959
10040TIP3    H251536   5.267   3.194   0.557 -0.3213 -1.2059 -0.2416
10041TIP3   OH251537   1.977   4.824  11.722 -0.3115 -0.5249 -0.0450
10041TIP3    H151538   2.035   4.810  11.797 -0.2464  0.7125  0.1527
10041TIP3    H251539   1.995   4.751  11.664 -0.8907 -1.9038  1.4804
10042TIP3   OH251540   6.373   1.811  14.312 -0.1893 -0.1643 -0.2066
10042TIP3    H151541   6.286   1.831  14.346  0.6728  0.5671  1.6551
10042TIP3    H251542   6.359   1.795  14.218 -2.6919 -2.5698  0.4980
10043TIP3   OH251543   2.520   1.797  13.045  0.2946 -0.4481  0.3459
10043TIP3    H151544   2.517   1.870  13.107  1.9530  0.9427 -1.1651
10043TIP3    H251545   2.457   1.820  12.977 -1.0501 -1.6716  1.1326
10044TIP3   OH251546   6.075   2.143  15.150 -0.1124 -0.4167  0.0263
10044TIP3    H151547   6.033   2.094  15.080  0.1035 -0.5311 -0.0222
10044TIP3    H251548   6.026   2.119  15.229 -1.5738  1.1507 -0.3577
10045TIP3   OH251549   0.173   1.988  15.501  0.6849  0.1158  0.7180
10045TIP3    H151550   0.238   1.969  15.569  3.5331  0.1294 -1.9012
10045TIP3    H251551   0.156   1.904  15.459  3.3584  0.9634 -2.2752
10046TIP3   OH251552   5.929   3.993   3.944  0.5770  0.1416  0.4862
10046TIP3    H151553   5.897   3.906   3.920  1.3941 -0.2161  0.6716
10046TIP3    H251554   5.917   4.046   3.865  2.9023 -0.9284 -0.6055
10047TIP3   OH251555   2.108   4.696  13.893  0.6833  0.5187 -0.3818
10047TIP3    H151556   2.050   4.673  13.821  0.1848  2.5867 -0.6743
10047TIP3    H251557   2.049   4.719  13.965  1.1323  1.2594 -0.2425
10048TIP3   OH251558   0.208   0.069   1.295 -0.0262 -0.0607 -0.0082
10048TIP3    H151559   0.285   0.069   1.239  0.5790 -0.7190  0.8101
10048TIP3    H251560   0.134   0.062   1.235  0.5651  0.1904 -0.7710
10049TIP3   OH251561   2.227   6.558  14.525 -0.7268  0.1933 -0.1861
10049TIP3    H151562   2.136   6.527  14.532 -0.5306 -0.1208  1.0302
10049TIP3    H251563   2.278   6.491  14.570 -0.1273  1.4764  1.0455
10050TIP3   OH251564   3.522   0.546  14.716  0.3474  0.0729 -0.1402
10050TIP3    H151565   3.468   0.473  14.687  0.3976 -0.2638  0.6049
10050TIP3    H251566   3.612   0.520  14.696  0.2014  0.8609 -1.8718
10051TIP3   OH251567   1.335   0.463  12.340  0.3461 -0.4946 -0.1404
10051TIP3    H151568   1.377   0.538  12.299  0.2939 -0.9403 -1.0323
10051TIP3    H251569   1.331   0.397  12.270  0.2961 -1.2842  0.5945
10052TIP3   OH251570   5.363   2.803  15.977 -0.1306  0.2344 -0.0589
10052TIP3    H151571   5.310   2.833  15.903  0.2473 -0.1324 -0.4774
10052TIP3    H251572   5.453   2.805  15.945 -0.1579 -2.2021 -0.3859
10053TIP3   OH251573   0.391   6.354  15.166  0.5748  0.2468  0.5534
10053TIP3    H151574   0.347   6.343  15.081  3.3083 -0.3835 -0.8396
10053TIP3    H251575   0.482   6.331  15.149  1.4037  1.1692  3.4424
10054TIP3   OH251576   2.604   3.046   3.041  0.0787  0.0626 -0.2460
10054TIP3    H151577   2.675   3.097   3.081 -1.1682  0.9626  0.8659
10054TIP3    H251578   2.526   3.100   3.053 -0.9040 -1.1768 -0.9291
10055TIP3   OH251579   2.300   3.784   2.466  0.1645  0.1856 -0.3515
10055TIP3    H151580   2.373   3.788   2.404 -0.5497  1.8076 -1.1238
10055TIP3    H251581   2.336   3.743   2.544  2.1261  1.7542 -0.4106
10056TIP3   OH251582   3.136   4.354  12.600 -0.0021 -0.1020 -0.0320
10056TIP3    H151583   3.169   4.419  12.538  0.2451  0.7799  1.0102
10056TIP3    H251584   3.214   4.316  12.639 -0.1590 -0.5101 -0.1182
10057TIP3   OH251585   5.403   0.432  14.221 -0.2969 -0.1555  0.2786
10057TIP3    H151586   5.414   0.508  14.164  0.5173  0.1694  0.8572
10057TIP3    H251587   5.351   0.464  14.295 -1.4068 -0.5925 -0.3020
10058TIP3   OH251588   0.388   5.741   4.247  0.0733 -0.1998 -0.3090
10058TIP3    H151589   0.341   5.808   4.296 -0.6022 -0.3473 -0.7483
10058TIP3    H251590   0.333   5.663   4.254  0.6983 -0.6333 -0.0678
10059TIP3   OH251591   2.692   1.903  11.394  0.3649 -0.0108  0.2510
10059TIP3    H151592   2.771   1.864  11.429  0.6420  1.5261  1.4205
10059TIP3    H251593   2.720   1.950  11.316  0.3606 -0.5716 -0.0909
10060TIP3   OH251594   1.375   2.478   4.886  0.6516 -0.1989 -0.1578
10060TIP3    H151595   1.352   2.566   4.917  0.4991 -0.2944  0.0033
10060TIP3    H251596   1.470   2.476   4.887  0.6405 -0.4942  1.1304
10061TIP3   OH251597   3.557   5.872   0.043 -0.3314 -0.0666  0.1032
10061TIP3    H151598   3.629   5.832  -0.006 -0.5206 -1.4212  0.8996
10061TIP3    H251599   3.485   5.874  -0.020 -0.2557 -0.8020 -0.0170
10062TIP3   OH251600   0.968   5.402  16.148 -0.0672 -0.2271 -0.2735
10062TIP3    H151601   0.966   5.449  16.065  3.1629 -0.4225 -0.5086
10062TIP3    H251602   0.953   5.470  16.214 -0.7970  0.2333 -0.9088
10063TIP3   OH251603   0.961   0.846   5.220 -0.4862  0.3767 -0.4542
10063TIP3    H151604   0.871   0.819   5.204 -0.3554  0.4939 -1.3981
10063TIP3    H251605   0.966   0.858   5.315 -0.8644 -1.7497 -0.1611
10064TIP3   OH251606   3.425   0.216   3.250 -0.0025 -0.3317 -0.9294
10064TIP3    H151607   3.419   0.122   3.233  0.1257 -0.4977 -0.0726
10064TIP3    H251608   3.348   0.253   3.207 -1.7261 -1.1948  1.3192
10065TIP3   OH251609   3.293   5.850  16.292  0.3349 -0.5475 -0.2442
10065TIP3    H151610   3.245   5.915  16.241  0.2216 -1.2708 -1.0794
10065TIP3    H251611   3.374   5.835  16.242  0.6052 -0.6527  0.2219
10066TIP3   OH251612   0.292   6.444  11.019 -0.1767 -0.6948  0.9579
10066TIP3    H151613   0.371   6.498  11.014 -0.2285 -0.6361  0.7376
10066TIP3    H251614   0.223   6.505  11.047 -0.2133 -0.6667  0.8119
10067TIP3   OH251615   3.220   0.213   1.263 -0.1759  0.4539  0.1662
10067TIP3    H151616   3.259   0.248   1.183 -0.0876  2.4235  1.0547
10067TIP3    H251617   3.255   0.124   1.268 -0.1420  0.3027 -1.9484
10068TIP3   OH251618   2.666   1.620  15.525  0.2705 -0.3194  0.6256
10068TIP3    H151619   2.666   1.653  15.615  0.4681 -0.1333  0.5581
10068TIP3    H251620   2.668   1.524  15.535 -0.4810 -0.3172  0.8195
10069TIP3   OH251621   2.726   4.120   0.128 -0.6066  0.7276 -0.6382
10069TIP3    H151622   2.671   4.139   0.051  0.3250  0.6687 -1.3316
10069TIP3    H251623   2.793   4.188   0.126  0.0001  0.1304 -0.4463
10070TIP3   OH251624   2.321   3.060  13.869  0.2889 -0.2757  0.3616
10070TIP3    H151625   2.378   3.136  13.855 -0.5294  0.1638 -0.6090
10070TIP3    H251626   2.283   3.042  13.783 -2.7631  0.8293  1.4034
10071TIP3   OH251627   4.893   4.751  16.285  0.4365 -0.0561 -0.0104
10071TIP3    H151628   4.913   4.686  16.353 -1.2900 -1.0320 -0.4115
10071TIP3    H251629   4.840   4.817  16.330 -0.4570 -0.5517 -0.3178
10072TIP3   OH251630   1.012   3.304  13.520  0.7118  0.6128 -0.1739
10072TIP3    H151631   1.053   3.373  13.467  1.0714  0.0452 -0.6375
10072TIP3    H251632   1.045   3.223  13.483  3.3316  0.2298  2.7924
10073TIP3   OH251633   5.886   2.628   3.959  1.0346 -0.2267 -0.6365
10073TIP3    H151634   5.882   2.552   3.901 -0.9229  0.2485 -1.1894
10073TIP3    H251635   5.869   2.593   4.046 -2.6959 -0.1472 -1.2322
10074TIP3   OH251636   4.182   1.801   0.641  0.4494 -0.7218  0.2275
10074TIP3    H151637   4.153   1.849   0.719 -2.8512 -0.0611 -1.3196
10074TIP3    H251638   4.198   1.712   0.673 -0.1152 -0.2862  1.7948
10075TIP3   OH251639   0.436   5.043   3.620 -0.8234  0.8297 -0.0926
10075TIP3    H151640   0.392   5.068   3.539  0.3991 -1.8472 -1.6349
10075TIP3    H251641   0.527   5.068   3.607 -0.8766  1.6224  1.0094
10076TIP3   OH251642   2.672   0.382  16.402  0.0930 -0.7433  0.1319
10076TIP3    H151643   2.729   0.446  16.360 -0.0052 -0.4591  0.4380
10076TIP3    H251644   2.586   0.398  16.362 -0.2659  0.3376  1.3271
10077TIP3   OH251645   5.272   2.943  14.671  0.3730 -0.6057  0.0700
10077TIP3    H151646   5.336   2.897  14.617 -0.3512 -3.2446  1.3939
10077TIP3    H251647   5.324   2.978  14.744  0.6675 -0.7459 -0.0727
10078TIP3   OH251648   1.143   4.740   3.752 -0.0811  0.2030  0.4768
10078TIP3    H151649   1.074   4.792   3.712 -1.9519 -2.9958 -0.6596
10078TIP3    H251650   1.108   4.716   3.838  0.1495 -0.3422  0.4233
10079TIP3   OH251651   5.213   6.359  16.215 -0.4664  0.3416  0.2211
10079TIP3    H151652   5.210   6.436  16.159 -2.5986  1.1663  1.4140
10079TIP3    H251653   5.203   6.393  16.303  0.0805 -1.1846  0.8873
10080TIP3   OH251654   1.564   6.069  17.167 -0.3024  0.2447 -0.0820
10080TIP3    H151655   1.622   6.137  17.203 -0.4010  0.9792 -1.2758
10080TIP3    H251656   1.559   6.090  17.073  0.9191 -2.3238 -0.7522
10081TIP3   OH251657   5.168   6.586   3.739  0.1979 -0.4873 -0.4228
10081TIP3    H151658   5.187   6.492   3.744  0.6321 -0.4896 -1.7212
10081TIP3    H251659   5.253   6.628   3.753 -0.1396 -0.2564  0.9682
10082TIP3   OH251660   1.518   2.717  15.473  0.1674  0.5823 -0.0518
10082TIP3    H151661   1.587   2.717  15.539  0.5738 -1.5510 -0.4539
10082TIP3    H251662   1.448   2.662  15.510 -1.4679  2.9316  0.4759
10083TIP3   OH251663   2.529   2.950  16.146 -0.2563  0.7839  0.0861
10083TIP3    H151664   2.573   3.003  16.080  0.1249  1.9996  1.3185
10083TIP3    H251665   2.599   2.920  16.204 -1.0488  3.1642  2.3679
10084TIP3   OH251666   3.448   2.382   2.758  0.1198  0.2079  0.0471
10084TIP3    H151667   3.422   2.315   2.822  0.3774  1.3041  1.3303
10084TIP3    H251668   3.366   2.427   2.736  0.2799  0.9973  0.9945
10085TIP3   OH251669   5.751   1.240   4.199  0.8430 -0.2236  0.0294
10085TIP3    H151670   5.822   1.280   4.149 -0.4860  0.6723 -1.1929
10085TIP3    H251671   5.686   1.216   4.133  0.4001 -1.8739  1.0356
10086TIP3   OH251672   0.452   3.849   1.497  0.0084 -0.2830  0.1268
10086TIP3    H151673   0.513   3.806   1.556 -1.2677 -1.3477  0.7069
10086TIP3    H251674   0.379   3.876   1.553  1.1265  3.4085 -0.0811
10087TIP3   OH251675   2.794   1.027  15.122  0.3261 -0.0004 -0.4246
10087TIP3    H151676   2.781   1.082  15.199 -1.1973 -2.2002  0.9632
10087TIP3    H251677   2.887   1.038  15.100  0.0471  3.1390 -0.2904
10088TIP3   OH251678   0.623   6.722  11.400 -0.0461 -0.5837  0.8197
10088TIP3    H151679   0.575   6.640  11.401 -0.2514 -0.6308 -3.9156
10088TIP3    H251680   0.715   6.696  11.406 -0.1679 -1.0417  0.6559
10089TIP3   OH251681   6.133   1.489   5.804 -0.1147 -0.3951 -0.0027
10089TIP3    H151682   6.213   1.470   5.853 -0.1096 -0.2581  0.0437
10089TIP3    H251683   6.067   1.432   5.843  0.0618 -0.8249 -0.3377
10090TIP3   OH251684   0.328   5.790  16.144  0.4492  0.1909 -0.8464
10090TIP3    H151685   0.256   5.805  16.205 -0.1313 -0.3909 -1.3782
10090TIP3    H251686   0.292   5.729  16.080  1.7277 -0.8958 -0.5461
10091TIP3   OH251687   3.534   4.793  12.143 -0.0435  0.3285  1.1990
10091TIP3    H151688   3.519   4.855  12.071  1.5714  0.1207  0.6586
10091TIP3    H251689   3.603   4.834  12.195 -2.0444  1.0519  3.3559
10092TIP3   OH251690   4.224   6.545  15.258 -0.5088 -0.5468 -0.3358
10092TIP3    H151691   4.260   6.517  15.173  1.7571  0.0384  0.3837
10092TIP3    H251692   4.249   6.474  15.318 -0.6617 -0.1772  0.1590
10093TIP3   OH251693   0.438   2.336   2.969  0.2147  0.5193 -0.2236
10093TIP3    H151694   0.513   2.276   2.966  0.0007  0.2710 -0.6519
10093TIP3    H251695   0.414   2.340   3.061  2.0352  2.1728  0.2234
10094TIP3   OH251696   1.915   2.264  16.165 -0.3220 -0.3297  0.1322
10094TIP3    H151697   1.886   2.173  16.166 -3.5022  0.6139  0.1989
10094TIP3    H251698   1.888   2.299  16.250 -0.3334  1.0334 -0.4163
10095TIP3   OH251699   6.289   2.368   0.286 -0.2832  0.1968 -0.0729
10095TIP3    H151700   6.296   2.437   0.352 -0.8477  0.0935  0.0989
10095TIP3    H251701   6.244   2.296   0.331  0.9206 -0.5538 -0.0421
10096TIP3   OH251702   4.627   5.453  15.027  0.3041 -0.0779 -0.1494
10096TIP3    H151703   4.707   5.505  15.040  0.6386  0.0681 -2.6181
10096TIP3    H251704   4.556   5.514  15.048  0.7800  0.3429  0.2671
10097TIP3   OH251705   1.630   4.166  11.743  0.1998  0.1883 -1.0105
10097TIP3    H151706   1.724   4.180  11.746  0.2561 -0.2276 -0.7238
10097TIP3    H251707   1.604   4.196  11.656  0.6299  0.1059 -1.1687
10098TIP3   OH251708   5.135   0.463  12.489 -0.4369  0.0104 -0.0685
10098TIP3    H151709   5.096   0.423  12.567 -0.3349  0.0269 -0.0090
10098TIP3    H251710   5.077   0.436  12.418 -1.0749  0.7824  0.1415
10099TIP3   OH251711   3.200   2.207  14.220 -0.4533  0.2173  0.4695
10099TIP3    H151712   3.295   2.207  14.207 -0.5865  2.6355 -0.5301
10099TIP3    H251713   3.165   2.157  14.146  0.0441 -1.2211  1.1726
10100TIP3   OH251714   4.712   3.773   2.253 -0.4287 -0.3413 -0.0802
10100TIP3    H151715   4.776   3.765   2.182  0.1322 -0.4192  0.4237
10100TIP3    H251716   4.685   3.865   2.251 -0.3471 -0.3228 -0.3376
10101TIP3   OH251717   0.712   6.254  16.868 -0.5475  0.3162 -0.1943
10101TIP3    H151718   0.676   6.208  16.944 -0.7879  1.8184  0.6398
10101TIP3    H251719   0.654   6.230  16.796 -1.5294  0.4581  0.5383
10102TIP3   OH251720   1.809   0.333   5.869  0.2734 -0.1744  0.3100
10102TIP3    H151721   1.808   0.379   5.785  1.5822  0.7443  0.7768
10102TIP3    H251722   1.879   0.268   5.860 -0.4711 -0.9833  0.2364
10103TIP3   OH251723   1.909   1.998  16.216  0.3722 -0.7202  0.3025
10103TIP3    H151724   1.932   1.931  16.280  2.6464 -0.6698 -0.4150
10103TIP3    H251725   1.953   1.971  16.136  1.2786  1.5829 -0.0155
10104TIP3   OH251726   6.611   3.758  17.106  0.0709  0.7995  0.5682
10104TIP3    H151727   6.542   3.812  17.066 -1.0387  0.1826  1.6250
10104TIP3    H251728   6.662   3.820  17.159 -1.0517  0.8692  1.5889
10105TIP3   OH251729   4.253   4.992   5.265  0.0370  0.0281 -0.1081
10105TIP3    H151730   4.337   5.034   5.284  0.0047 -0.2624  0.6801
10105TIP3    H251731   4.187   5.058   5.286  0.0755  0.2957 -0.8371
10106TIP3   OH251732   5.768   2.076  11.626 -0.4420 -0.4683 -0.2954
10106TIP3    H151733   5.766   2.049  11.534  0.7578 -0.7330 -0.2533
10106TIP3    H251734   5.861   2.085  11.646 -0.7186  0.1206  0.7428
10107TIP3   OH251735   0.450   0.326   3.293 -0.2928 -0.3994  0.4548
10107TIP3    H151736   0.538   0.288   3.291 -0.3602 -0.5349 -0.2351
10107TIP3    H251737   0.464   0.420   3.283 -0.1853 -0.3504  1.0762
10108TIP3   OH251738   5.650   6.278   1.652 -0.2791  0.3963 -0.5101
10108TIP3    H151739   5.657   6.191   1.692  1.8901  0.2008 -1.2344
10108TIP3    H251740   5.644   6.338   1.726  1.4298 -0.1388  0.0871
10109TIP3   OH251741   5.621   6.577   2.828 -0.1255  0.1104 -0.3667
10109TIP3    H151742   5.681   6.617   2.765  0.1022  1.1629  0.4972
10109TIP3    H251743   5.574   6.510   2.778  2.2578 -1.2148 -0.8997
10110TIP3   OH251744   0.378   3.914   5.207  0.2460  0.4966  0.1990
10110TIP3    H151745   0.434   3.853   5.255  0.6108  0.1824 -0.6023
10110TIP3    H251746   0.387   3.887   5.115  0.9152  2.1520 -0.2446
10111TIP3   OH251747   3.270   3.798   3.131 -0.4652  0.0885  0.3241
10111TIP3    H151748   3.253   3.841   3.047 -0.0311 -1.2063 -0.4462
10111TIP3    H251749   3.196   3.823   3.186 -0.3641  1.5802 -0.1796
10112TIP3   OH251750   3.575   4.822  13.990 -0.1044  0.1441 -0.2593
10112TIP3    H151751   3.627   4.829  14.070  1.6462  0.5314 -1.4062
10112TIP3    H251752   3.628   4.770  13.930 -0.7645  1.0073 -1.6491
10113TIP3   OH251753   1.426   0.335  14.063 -0.4445 -0.4569  0.0853
10113TIP3    H151754   1.456   0.421  14.090 -2.5558  0.6388 -0.9297
10113TIP3    H251755   1.470   0.318  13.980 -0.5639 -0.0420 -0.0606
10114TIP3   OH251756   3.714   4.114   4.593 -0.7726  1.0688  0.7788
10114TIP3    H151757   3.718   4.050   4.663  0.3215 -0.7638 -0.9040
10114TIP3    H251758   3.803   4.150   4.588 -0.3371 -0.1622 -0.8514
10115TIP3   OH251759   2.922   1.619  16.924 -0.1988  0.4784  0.3012
10115TIP3    H151760   2.954   1.709  16.912  2.1403 -0.4322 -0.7469
10115TIP3    H251761   2.899   1.590  16.836 -1.0071  0.0617  0.6454
10116TIP3   OH251762   6.252   2.124  14.290  0.2300  0.5944 -0.2723
10116TIP3    H151763   6.344   2.118  14.263  0.2727 -0.9734  0.2060
10116TIP3    H251764   6.244   2.061  14.362 -1.1919  0.8161 -0.2357
10117TIP3   OH251765   6.138   2.292  16.359 -0.0312  1.0805 -0.0889
10117TIP3    H151766   6.050   2.257  16.342  0.0185  1.3776 -0.9762
10117TIP3    H251767   6.160   2.258  16.446 -0.2716 -0.5484 -0.6298
10118TIP3   OH251768   0.364   4.423   6.347 -0.0483 -0.4944 -0.0635
10118TIP3    H151769   0.345   4.337   6.308 -1.2357 -0.4590  0.3981
10118TIP3    H251770   0.448   4.448   6.311 -0.1077 -1.4616 -0.8928
10119TIP3   OH251771   5.178   0.927  12.044  0.4322 -0.4743  0.3575
10119TIP3    H151772   5.138   0.864  11.984  0.1114  0.3579 -0.3147
10119TIP3    H251773   5.261   0.949  12.004 -0.5300  1.3827 -0.6868
10120TIP3   OH251774   0.778   1.168  12.178  0.0760 -0.0115 -0.4780
10120TIP3    H151775   0.810   1.248  12.135  0.1564  0.7134  0.9114
10120TIP3    H251776   0.851   1.141  12.234 -0.8487  0.3131  0.9008
10121TIP3   OH251777   4.849   6.337   0.493 -0.4699 -0.0315  0.4212
10121TIP3    H151778   4.873   6.249   0.463 -2.9666 -0.4819 -0.3503
10121TIP3    H251779   4.805   6.322   0.577 -1.9208  0.3535 -0.2534
10122TIP3   OH251780   0.609   4.978  14.653  0.0852  0.5410  0.4379
10122TIP3    H151781   0.670   5.015  14.717 -0.7507 -0.2377  1.7152
10122TIP3    H251782   0.624   4.883  14.657 -2.0785  0.1967  1.7472
10123TIP3   OH251783   5.468   3.923   4.832 -0.6685 -0.2485 -0.1205
10123TIP3    H151784   5.404   3.971   4.885 -0.7248 -0.4101 -0.0405
10123TIP3    H251785   5.480   3.840   4.879  2.1041  1.1095  1.7195
10124TIP3   OH251786   0.161   5.342  16.645  0.3872 -0.2920 -0.0114
10124TIP3    H151787   0.231   5.320  16.706  0.8027  1.5081  0.1923
10124TIP3    H251788   0.202   5.338  16.559 -0.2958 -3.2113 -0.2253
10125TIP3   OH251789   6.527   3.604  11.522  0.2373  0.3365  0.0393
10125TIP3    H151790   6.591   3.675  11.533 -0.6190  0.9202  1.3798
10125TIP3    H251791   6.479   3.629  11.443  0.9391  0.4655 -0.3520
10126TIP3   OH251792   2.010   0.313   4.662 -0.2190  0.1675 -0.4178
10126TIP3    H151793   2.065   0.372   4.714  0.3829  2.5828 -3.6173
10126TIP3    H251794   1.956   0.267   4.727  1.5231  1.9284  2.4040
10127TIP3   OH251795   6.086   6.706  10.708  0.2577  0.2408 -0.3516
10127TIP3    H151796   6.173   6.688  10.673 -0.4899 -0.7172 -1.8011
10127TIP3    H251797   6.051   6.775  10.651  1.0192  2.4927  1.8092
10128TIP3   OH251798   0.409   4.783  14.073  0.9997 -0.4136 -0.2324
10128TIP3    H151799   0.396   4.855  14.012 -0.3047  0.4305  1.0197
10128TIP3    H251800   0.367   4.708  14.031 -0.5355  0.3300 -0.0525
10129TIP3   OH251801   5.334   4.368  12.354  0.3898  0.6402 -0.0926
10129TIP3    H151802   5.280   4.346  12.278  0.1141  1.2847 -0.0897
10129TIP3    H251803   5.422   4.342  12.330  0.2427  0.5262 -0.5020
10130TIP3   OH251804   2.674   4.139   6.590  0.1671 -0.7160 -0.0332
10130TIP3    H151805   2.584   4.171   6.585  0.6075  0.6151  0.3991
10130TIP3    H251806   2.666   4.047   6.614 -0.9812  0.2053  3.3546
10131TIP3   OH251807   2.653   6.509   0.802 -0.2718 -0.0312 -0.2354
10131TIP3    H151808   2.653   6.414   0.813  0.1465 -0.0937 -0.7903
10131TIP3    H251809   2.701   6.524   0.721  0.3551  0.7059  0.2688
10132TIP3   OH251810   1.890   4.151  10.713 -0.0304 -0.6752  0.2970
10132TIP3    H151811   1.866   4.120  10.626  0.2530 -0.8875  0.2930
10132TIP3    H251812   1.930   4.075  10.755 -2.1954 -1.2459  1.4178
10133TIP3   OH251813   2.891   3.661  15.614  0.2009  0.5075 -0.1268
10133TIP3    H151814   2.806   3.657  15.658  0.3121  1.3965  0.1742
10133TIP3    H251815   2.910   3.754  15.607  0.7669  0.3316 -0.9444
10134TIP3   OH251816   0.653   2.938   6.124 -0.0935 -0.3900  0.7040
10134TIP3    H151817   0.558   2.946   6.112 -0.3034 -1.9145  1.2184
10134TIP3    H251818   0.689   2.936   6.036 -0.4449  1.0512  0.5074
10135TIP3   OH251819   5.954   6.360  10.659 -0.3838 -0.3606 -0.8206
10135TIP3    H151820   5.895   6.427  10.694  0.7004  0.4668 -0.5579
10135TIP3    H251821   6.014   6.342  10.731  0.1455 -0.6564 -1.3424
10136TIP3   OH251822   4.326   3.533  17.159  0.4185  0.0673  0.5628
10136TIP3    H151823   4.296   3.447  17.190  0.4225  0.5927  2.0352
10136TIP3    H251824   4.419   3.520  17.141  0.8613  0.2246  2.5763
10137TIP3   OH251825   6.297   6.191  14.303 -0.2779  0.1387 -0.2138
10137TIP3    H151826   6.347   6.120  14.263  0.5198  0.6494 -0.1364
10137TIP3    H251827   6.311   6.181  14.397 -1.4773 -0.5579 -0.0888
10138TIP3   OH251828   2.841   6.179   4.384  0.4960  0.0097 -0.4278
10138TIP3    H151829   2.895   6.157   4.309  0.7799  0.8158 -0.4690
10138TIP3    H251830   2.815   6.095   4.422  2.0791 -0.3770 -0.1852
10139TIP3   OH251831   2.679   6.456  11.653 -0.0392 -0.0759  0.4745
10139TIP3    H151832   2.614   6.409  11.706  0.0336 -1.0833 -0.3102
10139TIP3    H251833   2.753   6.470  11.712 -0.1358 -0.8054  0.7745
10140TIP3   OH251834   4.089   1.670   4.406  0.3888 -0.2966  0.6883
10140TIP3    H151835   4.040   1.715   4.337 -0.5708 -1.9088  0.2844
10140TIP3    H251836   4.180   1.673   4.376  0.3183  1.1883  0.5829
10141TIP3   OH251837   2.152   2.093  13.483 -0.1853  0.4074 -0.0649
10141TIP3    H151838   2.207   2.021  13.514 -1.3322 -0.1022  0.8114
10141TIP3    H251839   2.142   2.150  13.560 -0.5097  0.7381 -0.3510
10142TIP3   OH251840   0.460   1.163  14.241 -0.5026 -0.1346 -0.2385
10142TIP3    H151841   0.497   1.172  14.328 -0.3357  1.6059 -0.4638
10142TIP3    H251842   0.514   1.219  14.186 -1.2384 -0.4025 -1.2546
10143TIP3   OH251843   5.840   3.369  11.603 -0.4218  0.0812 -0.6485
10143TIP3    H151844   5.820   3.378  11.510  1.2931 -1.0288 -1.1600
10143TIP3    H251845   5.866   3.277  11.614 -1.4826 -0.0451  1.1157
10144TIP3   OH251846   1.649   0.116  16.336 -0.0323 -0.5038  0.1225
10144TIP3    H151847   1.618   0.030  16.307 -0.9146 -0.9764  2.2953
10144TIP3    H251848   1.741   0.118  16.313  0.3656 -2.6651  1.3870
10145TIP3   OH251849   0.177   3.705  15.335  0.6712 -0.6499 -0.0290
10145TIP3    H151850   0.160   3.710  15.429  1.6430 -0.1423  0.1276
10145TIP3    H251851   0.265   3.741  15.325 -0.1279  1.0118 -1.3358
10146TIP3   OH251852   6.305   3.924  12.079  0.2308 -0.1924 -0.0480
10146TIP3    H151853   6.328   3.856  12.143  0.2260  0.0143  0.1746
10146TIP3    H251854   6.354   3.901  12.000  2.0721  0.8511  0.7503
10147TIP3   OH251855   0.839   3.902   4.794  0.3952  0.9729  0.0712
10147TIP3    H151856   0.826   3.889   4.888 -1.3547  0.8447 -0.1744
10147TIP3    H251857   0.901   3.975   4.788  1.3077  0.3276  1.3201
10148TIP3   OH251858   6.086   4.545   5.207 -0.2199  0.2607 -0.8444
10148TIP3    H151859   6.100   4.491   5.129  0.1222  1.5426 -1.6972
10148TIP3    H251860   6.132   4.499   5.277  0.8410 -0.0773 -1.7456
10149TIP3   OH251861   3.839   6.123  12.582 -0.4026  0.3745 -0.1923
10149TIP3    H151862   3.834   6.129  12.678 -1.1026  0.2041 -0.2150
10149TIP3    H251863   3.887   6.201  12.555  0.1037  0.2466  0.3250
10150TIP3   OH251864   4.279   5.643   0.649  0.2060 -0.7105 -0.0815
10150TIP3    H151865   4.310   5.555   0.626 -0.6591 -1.1611  0.4691
10150TIP3    H251866   4.313   5.658   0.738  2.4855  0.5323 -1.1035
10151TIP3   OH251867   4.562   3.407  15.918 -0.0232  0.0058 -0.2491
10151TIP3    H151868   4.566   3.375  16.008  0.3192  0.0111 -0.2602
10151TIP3    H251869   4.569   3.502  15.925 -0.5172  0.0439 -0.2506
10152TIP3   OH251870   5.405   2.939  11.566  0.0010 -0.6336  0.3094
10152TIP3    H151871   5.472   2.935  11.634 -0.6650 -1.4666  0.9336
10152TIP3    H251872   5.338   2.877  11.595  0.5840 -2.4337 -2.0196
10153TIP3   OH251873   1.238   4.064  12.789 -0.4334  0.1152 -0.0578
10153TIP3    H151874   1.260   3.971  12.791  0.6318  0.3474 -0.4603
10153TIP3    H251875   1.147   4.068  12.760 -1.8179 -1.0166  3.7560
10154TIP3   OH251876   5.745   5.705   5.318  0.0004 -0.2119 -0.4836
10154TIP3    H151877   5.724   5.795   5.342 -0.7287 -0.6300  0.4882
10154TIP3    H251878   5.833   5.710   5.280  0.4761  0.7222  0.7102
10155TIP3   OH251879   4.284   6.090   4.982  0.5159 -0.2596  0.4752
10155TIP3    H151880   4.266   6.117   5.072  1.3575 -0.0905  0.6019
10155TIP3    H251881   4.266   6.167   4.929 -0.5075 -0.5197  0.4314
10156TIP3   OH251882   1.490   2.922   5.664 -0.0019 -0.2094  0.5246
10156TIP3    H151883   1.507   2.829   5.648  0.6200  0.1916 -1.2842
10156TIP3    H251884   1.417   2.923   5.725  1.0929 -1.9006  1.9075
10157TIP3   OH251885   1.433   1.327  13.992  0.3682 -0.0090 -0.1165
10157TIP3    H151886   1.444   1.233  13.999  0.8481  0.1058  0.6633
10157TIP3    H251887   1.367   1.349  14.057  0.3802  0.2157 -0.1796
10158TIP3   OH251888   1.877   6.137   0.600  0.2612  0.4228 -0.1623
10158TIP3    H151889   1.788   6.117   0.571  0.0800 -2.0480  1.8760
10158TIP3    H251890   1.898   6.221   0.560 -1.7922 -0.4619 -3.2302
10159TIP3   OH251891   4.874   1.183  15.728  0.5889  0.0489 -0.6704
10159TIP3    H151892   4.882   1.119  15.657  3.1651 -1.6301  1.0280
10159TIP3    H251893   4.950   1.241  15.718  0.2263  0.6296 -0.1138
10160TIP3   OH251894   6.213   5.018  13.002 -0.1610 -0.0436 -0.4695
10160TIP3    H151895   6.150   4.963  12.955 -0.0816 -0.7401  0.2245
10160TIP3    H251896   6.229   5.091  12.943 -0.9324 -0.3210 -1.0392
10161TIP3   OH251897   6.662   3.747  12.931  0.5040 -0.5254  0.4291
10161TIP3    H151898   6.620   3.818  12.882  2.3405  2.2932  2.7476
10161TIP3    H251899   6.719   3.704  12.868 -2.0236 -1.2038 -1.4738
10162TIP3   OH251900   1.613   0.664  15.159  0.2315  0.2867 -0.5741
10162TIP3    H151901   1.689   0.612  15.186 -0.5984 -0.6001  0.0775
10162TIP3    H251902   1.629   0.683  15.066  1.2350  0.0959 -0.4456
10163TIP3   OH251903   1.453   6.517   5.482 -0.6275  0.1138  0.3737
10163TIP3    H151904   1.470   6.611   5.492  2.0948 -0.3749  0.8703
10163TIP3    H251905   1.365   6.512   5.445 -0.9376  2.8437  0.6281
10164TIP3   OH251906   1.684   3.745  16.215 -0.1115  0.3217 -0.6440
10164TIP3    H151907   1.724   3.802  16.149  0.1367  0.7993 -0.0876
10164TIP3    H251908   1.622   3.802  16.261 -0.0655  0.0687 -0.2693
10165TIP3   OH251909   4.044   3.302   1.106 -0.0542  0.5328 -0.1314
10165TIP3    H151910   4.034   3.388   1.146  1.7130  0.0602  1.3793
10165TIP3    H251911   4.117   3.311   1.045 -0.7259  0.4336 -0.9664
10166TIP3   OH251912   2.685   6.715   4.062 -0.3238  0.0754 -0.3984
10166TIP3    H151913   2.769   6.685   4.029  0.1772 -1.7895  2.4065
10166TIP3    H251914   2.706   6.791   4.116 -0.4342 -0.3961  0.3105
10167TIP3   OH251915   3.988   0.603  11.646  0.1544  0.3764  0.0372
10167TIP3    H151916   3.899   0.582  11.675  0.1782 -0.1402 -0.2515
10167TIP3    H251917   3.993   0.568  11.557  1.3511 -1.6098  0.8437
10168TIP3   OH251918   4.104   3.885   1.937  0.7001 -0.0017 -0.4626
10168TIP3    H151919   4.010   3.905   1.942  0.9772  1.1005  0.5557
10168TIP3    H251920   4.111   3.821   1.865 -0.8296 -0.1449 -0.5057
10169TIP3   OH251921   0.982   1.610   4.690  0.2178  0.0757 -0.3760
10169TIP3    H151922   0.921   1.543   4.657  0.7101 -0.2411 -0.6394
10169TIP3    H251923   1.035   1.563   4.755  1.0161  0.0418 -1.0487
10170TIP3   OH251924   0.313   0.167  12.643  0.9322 -0.6059  0.0283
10170TIP3    H151925   0.293   0.242  12.588  2.9960  0.3264  0.5137
10170TIP3    H251926   0.357   0.105  12.584  3.1470  0.3947  0.5931
10171TIP3   OH251927   0.079   5.542   1.265 -0.5120 -0.0875 -0.4422
10171TIP3    H151928   0.172   5.524   1.279 -0.5061 -0.2223 -0.6430
10171TIP3    H251929   0.077   5.626   1.219 -0.6397  1.5873  2.5206
10172TIP3   OH251930   2.737   0.691  12.197 -0.0613 -0.2853  0.2982
10172TIP3    H151931   2.716   0.767  12.143  1.0343 -0.0670  0.1670
10172TIP3    H251932   2.747   0.727  12.286 -1.0677 -0.5206  0.5129
10173TIP3   OH251933   1.137   6.616  12.268 -0.3094  0.3781 -0.0891
10173TIP3    H151934   1.225   6.654  12.263 -0.1684 -0.0967 -1.3967
10173TIP3    H251935   1.146   6.541  12.327 -0.1725  1.2221  0.9778
10174TIP3   OH251936   2.632   5.359   4.260 -0.5708 -0.1347 -0.7469
10174TIP3    H151937   2.646   5.412   4.338 -2.5087  1.1566 -1.2371
10174TIP3    H251938   2.713   5.368   4.210  0.3287 -0.2285  0.6732
10175TIP3   OH251939   1.483   2.799   5.036  0.0591  0.0982  0.0691
10175TIP3    H151940   1.538   2.783   4.959 -1.3243  1.4018 -1.2377
10175TIP3    H251941   1.543   2.834   5.102  1.1298 -0.3235 -0.6797
10176TIP3   OH251942   6.359   6.201  14.577  0.1642  0.8067  0.5626
10176TIP3    H151943   6.306   6.174  14.652 -1.2614  2.1768  0.0590
10176TIP3    H251944   6.429   6.253  14.615  1.4766 -1.3841  1.2775
10177TIP3   OH251945   5.630   0.249  10.345 -0.2585 -0.4376 -0.4405
10177TIP3    H151946   5.544   0.285  10.366 -0.1379 -0.2846 -0.2069
10177TIP3    H251947   5.652   0.195  10.421  1.4871  2.4642  1.2283
10178TIP3   OH251948   3.546   4.127  16.891 -0.0678  0.2656 -0.3831
10178TIP3    H151949   3.503   4.079  16.821  1.4166 -0.7695 -0.5970
10178TIP3    H251950   3.636   4.140  16.860 -0.1472  2.2010  0.1507
10179TIP3   OH251951   0.110   3.718   4.095  0.3449 -0.1438  0.4945
10179TIP3    H151952   0.107   3.795   4.152 -1.9961 -0.5195  0.9218
10179TIP3    H251953   0.198   3.683   4.108  0.5707  0.9821  2.2880
10180TIP3   OH251954   6.371   2.813  12.190  0.4470 -0.3506  0.0802
10180TIP3    H151955   6.307   2.755  12.148 -0.1159 -0.0086  0.4531
10180TIP3    H251956   6.348   2.811  12.283 -0.5776  1.6718 -0.0958
10181TIP3   OH251957   3.058   3.351   4.095 -0.3957  0.1972 -0.4325
10181TIP3    H151958   3.041   3.444   4.103 -0.2262  0.1351  0.7172
10181TIP3    H251959   3.142   3.338   4.140 -0.3443 -0.4843 -0.7154
10182TIP3   OH251960   0.399   0.386  13.024 -0.1544  0.5531  0.0591
10182TIP3    H151961   0.318   0.386  13.075  0.9008  0.6658  1.7926
10182TIP3    H251962   0.397   0.469  12.977 -0.6652  0.9365  0.7430
10183TIP3   OH251963   3.861   6.186  17.165  0.2188 -0.3161  0.5805
10183TIP3    H151964   3.775   6.161  17.133 -0.5407  2.5317  0.2603
10183TIP3    H251965   3.923   6.142  17.106 -0.9694 -2.5585  0.9512
10184TIP3   OH251966   3.996   2.050  11.619  0.0338 -0.1568 -0.3488
10184TIP3    H151967   3.963   2.139  11.605 -0.3815  0.0974  2.0198
10184TIP3    H251968   4.090   2.062  11.635 -0.1031 -0.0906  0.4181
10185TIP3   OH251969   6.139   1.904   4.228  0.0631  0.4758  0.0301
10185TIP3    H151970   6.155   1.975   4.165  0.7946  0.1460 -0.1618
10185TIP3    H251971   6.173   1.938   4.311  0.4865  0.3169 -0.0793
10186TIP3   OH251972   4.732   5.097  16.729  0.2303  0.0782 -0.1773
10186TIP3    H151973   4.654   5.150  16.721  0.6281  0.6847 -0.0612
10186TIP3    H251974   4.750   5.093  16.823  1.5105  1.6681 -0.3324
10187TIP3   OH251975   6.382   4.575  11.531 -0.6939  0.3935 -0.3368
10187TIP3    H151976   6.471   4.571  11.568 -0.2669 -0.2674 -1.4374
10187TIP3    H251977   6.356   4.667  11.544 -0.0449  0.4775  0.4368
10188TIP3   OH251978   1.427   6.703  13.715  0.2182 -0.4428 -0.5363
10188TIP3    H151979   1.522   6.695  13.702  0.2863  0.1295 -0.3692
10188TIP3    H251980   1.394   6.614  13.700  0.9814 -1.0211  1.0485
10189TIP3   OH251981   2.381   2.762  10.715  0.3759 -0.0816  0.4707
10189TIP3    H151982   2.318   2.769  10.643  0.5667 -4.0406 -0.2320
10189TIP3    H251983   2.443   2.695  10.685  2.8698  1.2125  2.6174
10190TIP3   OH251984   4.265   0.044  13.903 -0.1382 -0.1988 -0.5738
10190TIP3    H151985   4.293  -0.008  13.828 -0.1658 -1.9022  0.5821
10190TIP3    H251986   4.341   0.099  13.923  1.0399 -2.0522  0.1436
10191TIP3   OH251987   3.649   0.950   4.824 -0.8737 -0.5597 -0.1752
10191TIP3    H151988   3.630   1.002   4.902  0.0531  0.6781 -0.7539
10191TIP3    H251989   3.594   0.988   4.756 -1.8674 -1.7968 -0.0943
10192TIP3   OH251990   4.454   6.403   6.094 -0.2246 -0.5200 -0.1708
10192TIP3    H151991   4.521   6.382   6.028 -1.5398 -0.5275 -1.5310
10192TIP3    H251992   4.435   6.319   6.135 -0.7405 -0.8627 -1.0830
10193TIP3   OH251993   3.465   4.030  13.778 -0.5226  0.1708 -0.3653
10193TIP3    H151994   3.546   4.010  13.825  0.3250  0.5832 -1.6263
10193TIP3    H251995   3.492   4.041  13.687 -1.4585  3.6408 -0.2790
10194TIP3   OH251996   0.623   3.598   3.087  0.1455 -0.5196 -0.1078
10194TIP3    H151997   0.566   3.670   3.063  0.5204 -0.1740  0.0269
10194TIP3    H251998   0.704   3.640   3.116  0.6866 -1.0241 -0.8759
10195TIP3   OH251999   6.720   4.013  16.472  0.1903  0.8428 -0.1167
10195TIP3    H152000   6.670   3.968  16.540  0.1399 -1.5898 -1.6899
10195TIP3    H252001   6.654   4.042  16.409  0.4501  0.5407 -0.5342
10196TIP3   OH252002   2.471   1.274   1.223  0.0858 -0.6188 -0.3036
10196TIP3    H152003   2.451   1.260   1.130 -2.2312  2.0590 -0.2954
10196TIP3    H252004   2.428   1.201   1.267 -1.4066 -0.2851 -1.1369
10197TIP3   OH252005   4.915   1.128   2.686 -0.2360  0.2675 -0.3642
10197TIP3    H152006   4.823   1.144   2.666 -0.2020 -0.4397 -1.0967
10197TIP3    H252007   4.916   1.108   2.779 -0.7142  1.1148 -0.1718
10198TIP3   OH252008   2.109   0.089  15.639  0.2380 -0.0840 -0.1831
10198TIP3    H152009   2.160   0.014  15.607  0.9840 -0.1249  1.0848
10198TIP3    H252010   2.171   0.162  15.639 -0.1504  0.2471 -0.2219
10199TIP3   OH252011   0.982   3.791  10.798 -0.4079 -0.2655 -0.0783
10199TIP3    H152012   1.038   3.736  10.743 -0.8270 -0.3919 -0.3835
10199TIP3    H252013   0.908   3.735  10.820 -0.1538 -0.2692  0.7664
10200TIP3   OH252014   6.156   2.861   1.157  0.2444 -0.4923 -0.5636
10200TIP3    H152015   6.123   2.802   1.225 -1.4436 -0.0254 -0.9676
10200TIP3    H252016   6.220   2.808   1.109 -0.0680 -1.4758  0.0834
10201TIP3   OH252017   3.084   0.110  14.570 -0.1891  0.0997 -0.1437
10201TIP3    H152018   3.108   0.109  14.477 -0.9903  0.5139 -0.3550
10201TIP3    H252019   2.991   0.085  14.571 -0.1300 -0.1025  0.5641
10202TIP3   OH252020   3.976   4.954   0.109  0.2683 -0.1877  0.3154
10202TIP3    H152021   3.966   4.980   0.017  0.0345  0.6739  0.5777
10202TIP3    H252022   3.968   4.859   0.108  1.5683 -0.2880 -0.7174
10203TIP3   OH252023   1.310   5.802   0.009 -0.0512 -0.2200 -0.1779
10203TIP3    H152024   1.373   5.730   0.008 -1.0064 -1.0578 -0.3312
10203TIP3    H252025   1.326   5.849  -0.072 -0.0045 -0.7645 -0.4877
10204TIP3   OH252026   1.596   5.387  12.194 -0.0611 -0.3255 -0.0356
10204TIP3    H152027   1.581   5.293  12.204  0.3567 -0.3481  0.4410
10204TIP3    H252028   1.636   5.397  12.108  2.2782 -0.8793  0.9558
10205TIP3   OH252029   4.081   0.381  11.293 -0.8647  0.1135  0.2426
10205TIP3    H152030   3.986   0.385  11.305 -0.8186 -0.5677  0.8224
10205TIP3    H252031   4.113   0.329  11.366 -0.0879 -0.0565 -0.2082
10206TIP3   OH252032   6.699   5.505   2.597  0.2037 -0.0542  0.0907
10206TIP3    H152033   6.605   5.515   2.611  0.4334  2.0857  0.3258
10206TIP3    H252034   6.707   5.437   2.531 -1.5185 -0.2552  0.0816
10207TIP3   OH252035   0.637   6.709   2.322 -0.2020  0.2604 -0.2540
10207TIP3    H152036   0.699   6.665   2.264  0.2076  0.0266  0.3490
10207TIP3    H252037   0.552   6.671   2.301  0.1830 -0.9832  0.4250
10208TIP3   OH252038   0.902   4.331  14.094  0.4705  0.7825 -0.4084
10208TIP3    H152039   0.828   4.387  14.120  0.7434  1.1298 -0.3850
10208TIP3    H252040   0.882   4.306  14.004  0.1743  0.6270 -0.3030
10209TIP3   OH252041   3.863   2.031   3.537  0.4436 -0.5919  0.3673
10209TIP3    H152042   3.944   2.018   3.586 -0.0241 -2.2194  0.7403
10209TIP3    H252043   3.797   2.048   3.604  0.3212 -0.0502  0.1126
10210TIP3   OH252044   3.538   2.160   2.409 -0.3481  0.1069  0.1219
10210TIP3    H152045   3.613   2.212   2.380 -1.1382  1.7952  1.0205
10210TIP3    H252046   3.564   2.125   2.494 -0.1734 -0.1949 -0.0551
10211TIP3   OH252047   5.560   2.106   6.042 -0.4463  0.8783  0.7028
10211TIP3    H152048   5.582   2.182   6.097 -2.6018  2.6266 -0.7770
10211TIP3    H252049   5.587   2.132   5.954 -1.5916  0.0851  0.1153
10212TIP3   OH252050   0.851   5.857  14.169 -0.3101 -0.7642 -0.4454
10212TIP3    H152051   0.819   5.836  14.081  0.1050  1.9143 -1.2672
10212TIP3    H252052   0.792   5.925  14.201  0.3337 -0.7895  0.8637
10213TIP3   OH252053   6.375   3.418   2.728  0.3056  0.1930  0.0568
10213TIP3    H152054   6.304   3.356   2.715  0.4396 -0.1634  0.9778
10213TIP3    H252055   6.353   3.493   2.672 -1.5221  0.6852  1.4262
10214TIP3   OH252056   3.650   0.509   2.420  0.2838 -0.7875 -0.6169
10214TIP3    H152057   3.744   0.501   2.436  0.6323  0.5757 -1.8742
10214TIP3    H252058   3.635   0.602   2.404 -1.6352 -0.6702  1.5906
10215TIP3   OH252059   5.702   0.824  15.503 -0.5434  0.4991 -0.0704
10215TIP3    H152060   5.690   0.781  15.588  0.0225  1.3755  0.4695
10215TIP3    H252061   5.621   0.873  15.489 -1.6574 -1.6500 -1.2341
10216TIP3   OH252062   4.809   4.931   6.335  0.0416 -0.2314  0.3120
10216TIP3    H152063   4.743   4.966   6.394  0.7850  1.5210  0.1486
10216TIP3    H252064   4.791   4.837   6.330 -1.2205 -0.0727  1.7771
10217TIP3   OH252065   5.172   5.912   1.948 -0.0168 -0.0668 -0.1009
10217TIP3    H152066   5.098   5.952   1.903 -0.2987 -0.8439 -0.3426
10217TIP3    H252067   5.172   5.821   1.918  0.1984 -0.4278  0.9489
10218TIP3   OH252068   3.075   0.251  13.624  0.5147 -0.7637 -0.3650
10218TIP3    H152069   3.004   0.220  13.680 -0.0301 -2.2723 -1.8655
10218TIP3    H252070   3.035   0.263  13.538  1.8362 -0.6229 -0.9743
10219TIP3   OH252071   1.268   4.697   6.645  0.3256 -0.6006 -0.0754
10219TIP3    H152072   1.359   4.725   6.633  0.5113 -1.3049 -0.3020
10219TIP3    H252073   1.271   4.602   6.641 -0.3419 -0.6533  0.4983
10220TIP3   OH252074   2.173   1.412  16.199  0.2195 -0.2647  0.9533
10220TIP3    H152075   2.144   1.486  16.252  0.1476 -0.0366  0.5976
10220TIP3    H252076   2.219   1.356  16.260 -0.8881 -0.5874  1.5094
10221TIP3   OH252077   6.285   3.088   1.374  0.0572  0.3969 -0.2199
10221TIP3    H152078   6.359   3.058   1.320 -0.9870 -0.3146 -1.2784
10221TIP3    H252079   6.250   3.008   1.412  0.2304  0.8073  0.8084
10222TIP3   OH252080   1.266   2.204  16.369 -0.2851 -0.0750  0.1593
10222TIP3    H152081   1.326   2.277  16.385 -0.7634  0.1410  1.0076
10222TIP3    H252082   1.284   2.178  16.278 -0.8668  1.8032 -0.5229
10223TIP3   OH252083   0.815   6.614  13.228  0.2629  0.1696 -1.0300
10223TIP3    H152084   0.800   6.541  13.167  2.6112 -0.2064 -1.1844
10223TIP3    H252085   0.882   6.667  13.186  1.7669  0.0285  1.0917
10224TIP3   OH252086   3.506   1.156  11.929  0.1742  0.0942  0.0575
10224TIP3    H152087   3.456   1.235  11.949 -0.3754  0.0124 -0.9474
10224TIP3    H252088   3.541   1.127  12.013 -0.0719  1.0998  0.5115
10225TIP3   OH252089   3.634   5.358   4.353  0.0292 -0.3870 -0.3988
10225TIP3    H152090   3.568   5.290   4.369  0.1211 -0.5480 -0.7014
10225TIP3    H252091   3.672   5.335   4.269 -0.6455  0.5962 -0.9980
10226TIP3   OH252092   2.440   6.566  12.147 -0.6984 -0.1136 -0.1956
10226TIP3    H152093   2.461   6.510  12.222 -1.3736 -1.1584 -0.7827
10226TIP3    H252094   2.515   6.625  12.139 -1.6895  1.7066  2.8707
10227TIP3   OH252095   1.818   2.103   4.327 -0.6837  0.3943  0.1775
10227TIP3    H152096   1.814   2.198   4.315  0.2818  0.6782  1.8392
10227TIP3    H252097   1.862   2.092   4.412  0.3622 -1.5636 -0.5780
10228TIP3   OH252098   2.234   2.779  11.636  0.0121  0.0479  0.2091
10228TIP3    H152099   2.302   2.713  11.652 -0.6438 -0.6213  0.2418
10228TIP3    H252100   2.271   2.835  11.567 -0.0847 -1.2900 -0.9297
10229TIP3   OH252101   3.085   6.652  11.815 -0.0129  0.4576 -0.3951
10229TIP3    H152102   2.998   6.613  11.814  0.0020  0.3776 -2.4123
10229TIP3    H252103   3.069   6.746  11.811 -0.0209  0.4517 -0.5096
10230TIP3   OH252104   2.403   1.583   4.591  0.3297 -0.1603  0.1593
10230TIP3    H152105   2.315   1.590   4.555  0.2061  0.2515  0.5299
10230TIP3    H252106   2.426   1.672   4.617  1.3851 -0.0334 -1.1555
10231TIP3   OH252107   6.588   1.257   3.398 -0.1615 -0.0852 -0.1601
10231TIP3    H152108   6.634   1.330   3.440  0.8380  0.0130 -1.4281
10231TIP3    H252109   6.549   1.209   3.471 -1.3634  2.0667  0.6616
10232TIP3   OH252110   5.288   5.559   2.951  0.4759 -0.3061 -0.8938
10232TIP3    H152111   5.327   5.512   3.025 -1.3764 -0.4537  0.0395
10232TIP3    H252112   5.348   5.630   2.933  0.7836 -0.0462  1.0262
10233TIP3   OH252113   5.009   6.748  13.804  0.0244 -0.3773 -0.0304
10233TIP3    H152114   5.023   6.656  13.828  0.3399 -0.5831 -0.9944
10233TIP3    H252115   5.076   6.796  13.853  1.8733 -0.9856 -1.9254
10234TIP3   OH252116   4.745   2.881  11.847 -0.1014 -0.5817 -0.0352
10234TIP3    H152117   4.688   2.818  11.891  1.3158 -2.1417 -0.3758
10234TIP3    H252118   4.791   2.926  11.918  0.3783 -1.3736  0.1619
10235TIP3   OH252119   2.293   5.593  12.773  0.6360  0.6152 -0.3332
10235TIP3    H152120   2.298   5.500  12.751 -0.0464  0.7286 -1.0219
10235TIP3    H252121   2.302   5.638  12.688  0.2968  1.1484 -0.0944
10236TIP3   OH252122   0.623   4.336  11.719  0.4506  0.7147  0.5740
10236TIP3    H152123   0.658   4.259  11.764  0.2078 -0.6372 -1.4821
10236TIP3    H252124   0.550   4.365  11.773 -0.4019 -1.4062  0.5902
10237TIP3   OH252125   1.174   3.558   6.649  0.0605 -0.5225 -0.3250
10237TIP3    H152126   1.197   3.465   6.645  0.2974 -0.4079 -2.0289
10237TIP3    H252127   1.259   3.603   6.655 -0.0088 -0.3736 -0.4520
10238TIP3   OH252128   1.406   5.212   2.082 -0.1052 -0.2681  0.1768
10238TIP3    H152129   1.403   5.238   1.990  0.7609 -0.4257  0.0979
10238TIP3    H252130   1.344   5.139   2.088 -1.6231  0.9854  0.1389
10239TIP3   OH252131   4.660   0.467  16.500  0.3074  0.2410 -0.5562
10239TIP3    H152132   4.616   0.389  16.466 -0.8734  0.8411 -0.4100
10239TIP3    H252133   4.612   0.540  16.463  0.4048  0.9015  0.6005
10240TIP3   OH252134   6.011   5.960  13.143 -0.6102  0.3921 -0.7122
10240TIP3    H152135   6.033   6.050  13.169  0.6145  0.3587 -1.5994
10240TIP3    H252136   5.950   5.971  13.070 -0.4535  0.4910 -0.8275
10241TIP3   OH252137   5.839   6.122  10.604 -0.1846 -0.0152  0.6654
10241TIP3    H152138   5.872   6.209  10.626 -2.9641  0.9456  1.1583
10241TIP3    H252139   5.917   6.073  10.578  1.1818  3.1884 -1.5362
10242TIP3   OH252140   2.947   4.994  13.524  0.1441 -0.2743 -0.6930
10242TIP3    H152141   3.024   4.964  13.476  0.4817  0.9467 -0.9471
10242TIP3    H252142   2.983   5.051  13.593 -0.4390 -0.8113  0.0654
10243TIP3   OH252143   4.180   5.423   5.988  0.1021  0.7122  0.3709
10243TIP3    H152144   4.114   5.354   5.976  0.5846  0.3311 -0.1122
10243TIP3    H252145   4.151   5.470   6.066 -0.9188  0.7488 -0.0251
10244TIP3   OH252146   6.171   2.535   2.283 -0.2118  0.0330  0.1856
10244TIP3    H152147   6.207   2.446   2.278 -0.4350 -0.1432  1.6361
10244TIP3    H252148   6.171   2.556   2.376 -1.4824  1.0182 -0.0221
10245TIP3   OH252149   3.117   6.477  15.680 -0.0862 -0.2480 -0.3093
10245TIP3    H152150   3.105   6.385  15.657 -0.3915 -0.3812  0.3667
10245TIP3    H252151   3.063   6.489  15.758  0.2247  0.4191 -0.1956
10246TIP3   OH252152   0.786   1.418  16.180 -0.2216 -0.4289 -0.0283
10246TIP3    H152153   0.790   1.351  16.248  3.7565  0.3796  0.6598
10246TIP3    H252154   0.784   1.368  16.098  0.6388 -1.4235  0.5340
10247TIP3   OH252155   4.679   1.239   1.320  0.5220 -0.2916  0.0448
10247TIP3    H152156   4.698   1.157   1.274 -0.8776 -1.4137  1.4359
10247TIP3    H252157   4.584   1.249   1.313  0.5897  0.7764  0.5942
10248TIP3   OH252158   4.127   0.853  13.790  0.1736  0.8951 -0.0729
10248TIP3    H152159   4.216   0.869  13.823  0.5871  0.8206 -1.1549
10248TIP3    H252160   4.123   0.900  13.707 -0.8296  0.9553  0.0045
10249TIP3   OH252161   4.134   5.024  14.976  0.4312 -0.0333 -0.1129
10249TIP3    H152162   4.049   4.991  14.948  0.4605 -0.4545  0.2884
10249TIP3    H252163   4.195   4.953  14.956  0.7487  0.4118 -0.7402
10250TIP3   OH252164   6.635   5.794  14.190  0.2741 -0.5168  0.0160
10250TIP3    H152165   6.640   5.814  14.284  0.5271  0.6660 -0.2354
10250TIP3    H252166   6.725   5.806  14.159  0.5907 -2.8170 -0.0210
10251TIP3   OH252167   2.129   4.299  11.690 -0.2346  0.6409  0.7337
10251TIP3    H152168   2.092   4.319  11.604  2.5656 -0.2172 -0.7160
10251TIP3    H252169   2.107   4.206  11.704  1.6370  0.0070 -0.3245
10252TIP3   OH252170   0.271   1.689   3.402 -0.1522  0.2510 -0.0809
10252TIP3    H152171   0.187   1.727   3.425 -1.3482 -1.9268 -0.7306
10252TIP3    H252172   0.274   1.693   3.306 -0.2450 -1.1257 -0.1557
10253TIP3   OH252173   6.387   3.447  13.348 -0.3612  0.4492 -0.5127
10253TIP3    H152174   6.398   3.528  13.398  0.2149  0.8381 -1.2626
10253TIP3    H252175   6.465   3.442  13.292  0.2622 -1.2838  0.4535
10254TIP3   OH252176   1.240   6.187   0.842  0.0466  0.7400  0.2619
10254TIP3    H152177   1.272   6.097   0.851  0.7795  0.9940  0.1796
10254TIP3    H252178   1.189   6.186   0.761  1.8901  0.9276 -0.9362
10255TIP3   OH252179   4.909   6.243  16.864  0.7247  0.7179 -0.0379
10255TIP3    H152180   4.946   6.329  16.846 -2.2225  2.1396  0.3811
10255TIP3    H252181   4.874   6.250  16.952  0.1206 -0.8004 -0.1397
10256TIP3   OH252182   6.350   2.638   3.432 -0.2109  0.3843 -0.1120
10256TIP3    H152183   6.430   2.689   3.426  0.0931  0.0668  1.0782
10256TIP3    H252184   6.380   2.547   3.442 -0.7149  0.2121 -0.1385
10257TIP3   OH252185   0.332   6.239   4.675  0.1528  0.3242 -0.0731
10257TIP3    H152186   0.427   6.234   4.665  0.4275 -0.2909  2.3184
10257TIP3    H252187   0.317   6.327   4.710 -0.1021  0.2939 -0.1102
10258TIP3   OH252188   2.605   3.023  11.293 -0.4895 -0.2500  0.2203
10258TIP3    H152189   2.592   2.976  11.211 -0.2998  3.2700 -1.9696
10258TIP3    H252190   2.693   2.999  11.321  0.2325  0.0405 -1.7172
10259TIP3   OH252191   1.676   5.235  13.470 -0.2292 -0.0285  0.7142
10259TIP3    H152192   1.676   5.251  13.376  3.0224 -1.8813  0.3488
10259TIP3    H252193   1.600   5.179  13.485 -1.2182  0.9216 -0.6622
10260TIP3   OH252194   5.511   0.173  14.081 -0.6662 -0.2972 -0.4785
10260TIP3    H152195   5.550   0.091  14.113  1.0086 -0.3485 -2.5181
10260TIP3    H252196   5.495   0.225  14.160  0.6769 -1.5525  0.6398
10261TIP3   OH252197   4.572   1.088  15.523 -0.8814  0.1614 -0.4926
10261TIP3    H152198   4.505   1.030  15.487 -1.0944  1.0293 -1.5279
10261TIP3    H252199   4.647   1.032  15.539 -1.1057 -0.4140 -1.4269
10262TIP3   OH252200   6.521   3.038  13.299 -0.1175 -0.5974  0.4757
10262TIP3    H152201   6.449   3.056  13.359 -1.0442  0.8395 -1.0241
10262TIP3    H252202   6.518   3.109  13.235  1.9169 -1.1456 -0.2913
10263TIP3   OH252203   0.888   0.574  10.772  0.7491 -0.1830 -0.3293
10263TIP3    H152204   0.924   0.663  10.768 -1.9156  0.9928  1.0495
10263TIP3    H252205   0.935   0.532  10.844  0.3521  0.8687  0.5382
10264TIP3   OH252206   4.261   2.284  12.982 -0.3051 -0.4037  0.2829
10264TIP3    H152207   4.279   2.378  12.977  1.8278 -0.4476  4.8158
10264TIP3    H252208   4.202   2.275  13.057 -1.1287 -2.6375 -0.6120
10265TIP3   OH252209   2.315   0.194   5.014 -0.8638 -0.4387 -0.7805
10265TIP3    H152210   2.342   0.279   5.048  0.4807 -0.8198 -0.8736
10265TIP3    H252211   2.260   0.215   4.938 -0.0507  0.3364 -1.1624
10266TIP3   OH252212   3.955   1.014   3.838  0.0073 -0.2363 -0.4316
10266TIP3    H152213   3.873   1.035   3.794  0.1743 -0.5543 -0.9027
10266TIP3    H252214   4.021   1.069   3.795  0.0376  0.0272 -0.0471
10267TIP3   OH252215   3.843   3.795  15.124  0.4613  0.2205  0.8116
10267TIP3    H152216   3.800   3.815  15.041 -0.5469  3.8522  2.1241
10267TIP3    H252217   3.904   3.724  15.103 -0.4507  0.4120 -2.7826
10268TIP3   OH252218   3.190   2.669   2.982 -0.5956 -0.3571  0.9896
10268TIP3    H152219   3.104   2.702   2.956 -0.8963 -0.2463  2.1057
10268TIP3    H252220   3.192   2.579   2.951 -0.7612 -0.0957  0.1879
10269TIP3   OH252221   2.603   0.136   1.784  0.4865 -0.1565 -0.5158
10269TIP3    H152222   2.553   0.217   1.792  1.3260  0.5898 -2.3337
10269TIP3    H252223   2.566   0.092   1.707 -0.3213 -1.7867  0.7721
10270TIP3   OH252224   1.005   3.841  14.156 -0.0989 -0.1760  0.1363
10270TIP3    H152225   0.990   3.929  14.190 -0.3140 -0.2764  0.3080
10270TIP3    H252226   0.921   3.815  14.119 -0.6525 -1.1185  1.9769
10271TIP3   OH252227   2.309   3.803   3.403  0.1508 -0.0387  0.2939
10271TIP3    H152228   2.388   3.797   3.348  0.1572  1.4249  0.1249
10271TIP3    H252229   2.326   3.742   3.475  1.5642  0.4384  0.3932
10272TIP3   OH252230   4.900   0.330  13.264 -0.1312 -0.1194  0.0584
10272TIP3    H152231   4.952   0.387  13.321  0.3767  0.0180 -0.5419
10272TIP3    H252232   4.927   0.241  13.289 -0.1731 -0.0698  0.2818
10273TIP3   OH252233   3.010   6.621   0.234 -0.4102 -0.5937 -1.1501
10273TIP3    H152234   2.971   6.565   0.302 -2.2362  0.0348 -1.6663
10273TIP3    H252235   3.099   6.635   0.264 -0.5346 -2.1159  0.0279
10274TIP3   OH252236   4.850   2.843   0.852 -0.6962  0.3029 -0.1428
10274TIP3    H152237   4.793   2.912   0.887 -1.3977 -0.8814  1.0837
10274TIP3    H252238   4.923   2.891   0.811 -0.9695  1.7723  1.0381
10275TIP3   OH252239   6.415   0.937  14.684 -0.4712  0.1560 -0.1629
10275TIP3    H152240   6.497   0.984  14.701  0.0752 -1.0753  0.6366
10275TIP3    H252241   6.442   0.854  14.646 -1.2861 -0.7974  1.3072
10276TIP3   OH252242   1.405   5.994   3.853  0.1898  0.1138  0.0142
10276TIP3    H152243   1.454   6.064   3.811  0.3766 -0.5498 -0.8957
10276TIP3    H252244   1.343   5.965   3.786 -0.3114 -0.1735  0.5924
10277TIP3   OH252245   1.061   0.918   4.138  0.4641 -0.3096 -0.0539
10277TIP3    H152246   1.100   0.876   4.215 -1.1152  0.8516  1.4070
10277TIP3    H252247   0.967   0.918   4.156 -0.2323 -2.4386 -3.2062
10278TIP3   OH252248   5.910   5.396  17.217  0.3090  0.2470 -0.1582
10278TIP3    H152249   5.984   5.435  17.264  1.3396 -1.0643 -0.6533
10278TIP3    H252250   5.905   5.306  17.250  0.7917 -0.5729 -2.2060
10279TIP3   OH252251   0.609   1.514  14.514  0.4100 -0.4946  0.8912
10279TIP3    H152252   0.542   1.486  14.576 -1.5868  0.2505 -0.8633
10279TIP3    H252253   0.565   1.514  14.429  2.3811  0.8662 -0.1785
10280TIP3   OH252254   2.657   2.796   2.137 -0.3399 -0.2126 -0.7848
10280TIP3    H152255   2.675   2.755   2.222  0.8278  0.7270 -0.5640
10280TIP3    H252256   2.659   2.722   2.075  2.5140 -0.4546 -0.4924
10281TIP3   OH252257   2.459   0.687  15.119  0.1929 -0.0878 -0.4049
10281TIP3    H152258   2.369   0.675  15.090  0.2106  3.1544 -2.0204
10281TIP3    H252259   2.452   0.712  15.211 -0.4815 -0.7224 -0.2818
10282TIP3   OH252260   1.902   3.575   5.038 -0.3703  0.1846  0.7054
10282TIP3    H152261   1.814   3.592   5.004 -0.3775  0.5603  0.9084
10282TIP3    H252262   1.920   3.650   5.095  0.2444  0.3045  0.3489
10283TIP3   OH252263   4.774   1.259   0.001 -0.2826  0.1494  0.1785
10283TIP3    H152264   4.816   1.338   0.035  1.2986 -0.7073  0.2865
10283TIP3    H252265   4.847   1.205  -0.030 -1.2831 -1.5391  0.6893
10284TIP3   OH252266   0.809   3.847  15.664 -0.2539 -0.5168  0.0764
10284TIP3    H152267   0.814   3.751  15.660 -0.6149 -0.5914  1.2014
10284TIP3    H252268   0.766   3.865  15.747  1.1329  0.6633  0.5588
10285TIP3   OH252269   1.311   4.217   0.727 -0.6506  0.1895  0.1727
10285TIP3    H152270   1.261   4.275   0.670 -1.3574 -2.4320 -1.9887
10285TIP3    H252271   1.402   4.237   0.707 -0.8785  0.6931 -0.3793
10286TIP3   OH252272   1.191   1.625  15.315 -0.1142  0.4563  0.5506
10286TIP3    H152273   1.251   1.652  15.245 -0.8324  1.2028  0.2086
10286TIP3    H252274   1.245   1.575  15.375  0.7156  0.5842 -0.0789
10287TIP3   OH252275   6.525   4.734   2.628 -0.0962  0.4628 -0.3213
10287TIP3    H152276   6.550   4.811   2.576  1.4707  1.3512  1.7050
10287TIP3    H252277   6.593   4.727   2.694 -2.2541 -0.4353  1.8667
10288TIP3   OH252278   3.725   5.351  15.396  0.3514 -0.2358  0.2168
10288TIP3    H152279   3.764   5.308  15.473 -0.2493  0.1975  0.7637
10288TIP3    H252280   3.769   5.310  15.322  1.4835 -0.1316  0.8143
10289TIP3   OH252281   1.613   2.421  13.480  0.5698  0.2228  0.3310
10289TIP3    H152282   1.671   2.436  13.555  0.8976  0.7804 -0.0273
10289TIP3    H252283   1.531   2.463  13.505  0.4827 -0.1250  0.6313
10290TIP3   OH252284   6.317   5.300   2.304 -0.4947 -0.5621 -0.4881
10290TIP3    H152285   6.392   5.350   2.271 -0.3451 -1.3704 -1.3786
10290TIP3    H252286   6.275   5.359   2.366 -0.7071  0.9295 -2.0176
10291TIP3   OH252287   5.247   5.876  11.381  0.7680  0.1287  1.1793
10291TIP3    H152288   5.261   5.963  11.344 -0.2370  0.1404  0.7974
10291TIP3    H252289   5.328   5.829  11.364  0.0109 -0.1518 -1.8867
10292TIP3   OH252290   4.725   1.957  11.005  0.5381 -0.5632 -0.0141
10292TIP3    H152291   4.682   2.020  10.947  0.9364 -0.0191  0.2790
10292TIP3    H252292   4.764   2.011  11.074 -0.8736 -1.2701  1.3817
10293TIP3   OH252293   4.863   3.059  12.064 -0.6856 -0.3635 -0.1843
10293TIP3    H152294   4.778   3.103  12.070 -0.5035  0.2530 -1.8126
10293TIP3    H252295   4.915   3.117  12.008  0.9583 -0.5128  1.1614
10294TIP3   OH252296   1.413   2.304  11.504 -0.6007 -0.4577  0.1777
10294TIP3    H152297   1.381   2.383  11.460 -0.1971 -0.3492  0.0680
10294TIP3    H252298   1.453   2.337  11.584 -0.9035 -0.6057  0.3855
10295TIP3   OH252299   0.556   6.369   3.152 -0.1639  0.2433  0.0389
10295TIP3    H152300   0.529   6.371   3.244  0.6641  1.8126  0.2669
10295TIP3    H252301   0.476   6.346   3.104 -0.4398 -1.2876  1.1881
10296TIP3   OH252302   2.419   2.094  14.962 -0.3909  0.0974 -0.5996
10296TIP3    H152303   2.445   2.168  14.906 -0.8244  2.4832  2.2152
10296TIP3    H252304   2.334   2.120  14.998 -0.3696 -1.6081  0.7432
10297TIP3   OH252305   1.947   0.595   3.248  0.6465  0.0442  0.5315
10297TIP3    H152306   1.967   0.505   3.273 -1.3167 -0.4365  0.4174
10297TIP3    H252307   2.032   0.638   3.244  1.7487 -2.2072 -1.0321
10298TIP3   OH252308   1.219   6.728   3.614 -0.0915  0.3324 -0.2710
10298TIP3    H152309   1.272   6.701   3.689  2.9843  0.2859 -2.3630
10298TIP3    H252310   1.216   6.651   3.557 -1.6344  0.6452 -0.6369
10299TIP3   OH252311   5.830   6.661  13.685  0.1265 -0.5054 -0.2283
10299TIP3    H152312   5.758   6.706  13.641 -0.7944 -1.3827  0.3631
10299TIP3    H252313   5.884   6.626  13.613 -0.4385 -0.4810 -0.6658
10300TIP3   OH252314   3.290   3.868   3.619 -0.0299  0.0576 -0.1837
10300TIP3    H152315   3.245   3.934   3.566 -1.1381  0.4753  1.2460
10300TIP3    H252316   3.315   3.914   3.699  0.7093 -0.8328  0.1023
10301TIP3   OH252317   2.203   1.945   2.377 -0.1955 -1.0582  0.1336
10301TIP3    H152318   2.201   2.040   2.371 -0.8141 -1.1521 -1.3217
10301TIP3    H252319   2.117   1.922   2.414  0.0331 -1.0460  0.6795
10302TIP3   OH252320   3.947   4.058   2.754 -0.1283  0.0868 -0.1516
10302TIP3    H152321   3.975   4.054   2.663  1.4241 -0.8616  0.3356
10302TIP3    H252322   4.011   4.116   2.796 -0.0538 -0.5147  0.5787
10303TIP3   OH252323   4.063   1.217  16.510 -0.2462  0.1132  0.3039
10303TIP3    H152324   4.029   1.127  16.505  1.6617 -0.5874 -0.5434
10303TIP3    H252325   4.134   1.212  16.574  1.8493  0.3425 -1.9375
10304TIP3   OH252326   6.212   3.648  16.601  0.8619  0.2515 -0.0568
10304TIP3    H152327   6.216   3.736  16.638 -0.9710 -0.2882  1.5464
10304TIP3    H252328   6.282   3.645  16.536  0.2102  3.2746 -0.9680
10305TIP3   OH252329   4.133   5.333  14.744  0.3808 -0.1756  0.4623
10305TIP3    H152330   4.169   5.305  14.659 -0.6287  1.3317 -0.4790
10305TIP3    H252331   4.210   5.342  14.800  1.0258 -1.5590 -0.1688
10306TIP3   OH252332   1.749   2.900  12.171  0.2789 -0.1426  0.9450
10306TIP3    H152333   1.816   2.863  12.113  0.5908  0.4129  0.9404
10306TIP3    H252334   1.794   2.971  12.217  0.3787 -1.3790  2.8068
10307TIP3   OH252335   4.442   0.168  10.890 -0.0225 -0.2625  0.1679
10307TIP3    H152336   4.403   0.091  10.931 -0.3025 -0.5153 -0.5688
10307TIP3    H252337   4.393   0.242  10.927 -0.0960 -0.4674  0.4877
10308TIP3   OH252338   1.066   5.600   2.296  0.1135 -0.1822  0.0087
10308TIP3    H152339   1.003   5.566   2.233 -0.3407 -1.1187  0.9664
10308TIP3    H252340   1.014   5.625   2.372  0.9346 -1.5305  1.0466
10309TIP3   OH252341   4.237   2.454  14.821 -0.5497  0.5896 -0.1254
10309TIP3    H152342   4.271   2.495  14.901 -0.3565 -1.9621  1.1501
10309TIP3    H252343   4.300   2.478  14.753  2.0697 -1.3579  1.5379
10310TIP3   OH252344   4.054   0.002   4.693 -0.4976  0.0767  0.1232
10310TIP3    H152345   3.974  -0.016   4.743 -1.1196  0.7220 -0.6226
10310TIP3    H252346   4.087   0.084   4.728  0.5113 -0.8035  1.2586
10311TIP3   OH252347   0.926   2.814   1.214 -0.1841 -0.1343  0.5626
10311TIP3    H152348   0.917   2.884   1.279 -0.6451 -1.9717  2.5158
10311TIP3    H252349   0.846   2.762   1.223 -1.1357  0.6195 -2.7812
10312TIP3   OH252350   5.200   0.102   1.036  0.3449 -0.3453  0.3839
10312TIP3    H152351   5.198   0.047   0.957  0.0511 -0.5732  0.5465
10312TIP3    H252352   5.270   0.165   1.020  0.2814 -0.3864 -0.0628
10313TIP3   OH252353   5.337   3.979  14.648  0.3562 -0.9478  0.3086
10313TIP3    H152354   5.271   3.974  14.717  1.8397  1.0472  1.9662
10313TIP3    H252355   5.382   3.895  14.651 -1.9577 -2.2948 -0.7733
10314TIP3   OH252356   5.780   0.823   2.072 -0.1623 -0.0056  0.0838
10314TIP3    H152357   5.813   0.845   1.985 -1.0041 -0.8285 -0.4510
10314TIP3    H252358   5.800   0.730   2.083 -0.8204 -0.1068  0.4257
10315TIP3   OH252359   5.627   1.603  11.223 -0.3711 -0.9354  0.0409
10315TIP3    H152360   5.561   1.535  11.240 -0.7280 -0.5061  0.3681
10315TIP3    H252361   5.690   1.561  11.163  0.6919 -2.3497  2.0799
10316TIP3   OH252362   3.016   3.523   0.672  0.2875  0.0636 -0.6490
10316TIP3    H152363   2.929   3.488   0.650  0.1878  0.2796 -0.5985
10316TIP3    H252364   3.008   3.617   0.658 -0.3405  0.4634  2.1067
10317TIP3   OH252365   0.413   3.314  11.277  0.3366  0.0108  0.1344
10317TIP3    H152366   0.477   3.348  11.214  2.7407 -2.2457  1.2841
10317TIP3    H252367   0.449   3.337  11.362  0.6661 -2.9328  0.8570
10318TIP3   OH252368   0.179   6.669  12.525  0.5804 -0.1485  0.3007
10318TIP3    H152369   0.220   6.685  12.439 -0.2164 -0.0252 -0.0552
10318TIP3    H252370   0.169   6.574  12.528 -2.8993  0.1023 -1.3797
10319TIP3   OH252371   2.495   6.183  15.382 -0.3727 -0.5052 -0.7538
10319TIP3    H152372   2.510   6.089  15.374 -0.2986 -0.6615  1.1088
10319TIP3    H252373   2.400   6.193  15.375 -0.4753 -0.8404  0.0968
10320TIP3   OH252374   5.435   5.256   5.542  0.7257 -0.2575  0.1351
10320TIP3    H152375   5.498   5.194   5.580  0.6901 -1.6853 -2.0391
10320TIP3    H252376   5.481   5.294   5.467  0.1460  1.1400  0.4784
10321TIP3   OH252377   2.249   5.862  13.546 -0.0814 -0.3445  0.0359
10321TIP3    H152378   2.194   5.927  13.589 -0.2698 -1.0641  0.9022
10321TIP3    H252379   2.213   5.854  13.457 -0.9220 -0.2796  0.3708
10322TIP3   OH252380   5.978   2.334  16.793  0.0034  0.2950 -0.6343
10322TIP3    H152381   5.927   2.370  16.865 -0.6107  2.6165 -2.1582
10322TIP3    H252382   6.063   2.315  16.831 -0.4407  1.0672  0.8023
10323TIP3   OH252383   0.930   1.644  16.189  0.0209 -0.4544  0.2563
10323TIP3    H152384   0.854   1.586  16.193  0.0104 -0.4811 -0.2926
10323TIP3    H252385   0.903   1.723  16.235 -1.1068  0.3907 -1.7904
10324TIP3   OH252386   0.698   4.570  16.455 -0.0884  0.2732  0.6417
10324TIP3    H152387   0.606   4.545  16.466  0.2518 -1.1075  0.4413
10324TIP3    H252388   0.706   4.586  16.361  0.3241 -1.4874  0.3638
10325TIP3   OH252389   0.415   2.516  16.749 -0.3190  0.7498 -0.5448
10325TIP3    H152390   0.451   2.588  16.802  1.0527  1.1651 -2.0122
10325TIP3    H252391   0.404   2.444  16.812  1.0314  1.3207  0.3861
10326TIP3   OH252392   2.317   1.010  12.700  0.2801 -0.6214 -0.3654
10326TIP3    H152393   2.297   1.039  12.612  1.3339 -2.1800 -1.1596
10326TIP3    H252394   2.259   0.935  12.715  0.1273 -0.3873  0.2581
10327TIP3   OH252395   6.279   3.513  14.032  0.0539 -0.1110  0.7939
10327TIP3    H152396   6.348   3.479  13.976  0.1750  0.4952  0.5758
10327TIP3    H252397   6.248   3.592  13.988 -2.2286 -1.5258 -0.1991
10328TIP3   OH252398   1.783   0.899   2.451  0.0578 -0.4427 -0.0975
10328TIP3    H152399   1.709   0.848   2.418 -1.1382 -0.2859  2.2110
10328TIP3    H252400   1.749   0.940   2.531  2.2961  0.5652  0.3605
10329TIP3   OH252401   3.620   5.047   1.907 -0.0273 -0.0182  0.0040
10329TIP3    H152402   3.526   5.061   1.899  0.2618  0.1436 -4.2412
10329TIP3    H252403   3.659   5.105   1.842  2.9404 -0.8808  0.9281
10330TIP3   OH252404   5.081   6.176  10.911 -0.6943  0.5092 -0.3350
10330TIP3    H152405   5.166   6.135  10.926  0.0277  2.3440  0.8014
10330TIP3    H252406   5.028   6.147  10.985 -1.6033 -1.9524 -1.9004
10331TIP3   OH252407   4.672   6.349  11.106 -0.4472  0.3237  0.1801
10331TIP3    H152408   4.751   6.398  11.084 -0.5429  0.8389  0.9933
10331TIP3    H252409   4.667   6.352  11.201 -1.4345  0.2717  0.1362
10332TIP3   OH252410   6.470   6.053  16.102  0.2183  0.2728 -0.3196
10332TIP3    H152411   6.407   6.095  16.043 -0.5402 -1.5549 -0.8308
10332TIP3    H252412   6.536   6.015  16.044 -0.1132 -0.8676  0.0455
10333TIP3   OH252413   4.092   1.615  16.200  0.1728 -0.0940  0.6575
10333TIP3    H152414   4.130   1.689  16.247  0.2390  0.4192 -0.1885
10333TIP3    H252415   4.007   1.647  16.168  0.2212 -0.3601  0.2431
10334TIP3   OH252416   1.529   3.820   5.228  0.4568  0.2390 -0.0406
10334TIP3    H152417   1.536   3.876   5.306  0.5586 -1.0629  0.9006
10334TIP3    H252418   1.491   3.738   5.260  2.1666 -0.9677 -1.0178
10335TIP3   OH252419   0.729   5.719  15.233  0.4036 -0.1501 -0.2811
10335TIP3    H152420   0.659   5.772  15.196  0.9825 -1.3138 -3.2508
10335TIP3    H252421   0.807   5.774  15.225  0.3178  0.0665  0.3696
10336TIP3   OH252422   3.599   3.803   2.509 -0.1312 -0.2752 -0.3999
10336TIP3    H152423   3.614   3.847   2.593  0.0523 -3.4036  1.2756
10336TIP3    H252424   3.510   3.830   2.484  0.5060  2.1562 -0.1652
10337TIP3   OH252425   0.376   0.247  15.321 -0.5813  0.0900 -0.2029
10337TIP3    H152426   0.378   0.218  15.230  0.7784  1.5511 -0.6521
10337TIP3    H252427   0.376   0.342  15.316 -1.3391  0.1891  1.3262
10338TIP3   OH252428   2.151   1.327  14.491  0.2326 -0.1849  0.3642
10338TIP3    H152429   2.131   1.418  14.512 -2.3614 -0.3056 -1.2900
10338TIP3    H252430   2.229   1.307  14.542  0.0237  2.5225  1.8548
10339TIP3   OH252431   2.311   0.143   3.725  0.0994 -0.9153 -0.0123
10339TIP3    H152432   2.277   0.231   3.710  0.2108 -0.8704 -0.0033
10339TIP3    H252433   2.317   0.135   3.820  0.9982 -0.5834 -0.0386
10340TIP3   OH252434   3.986   4.406   5.626 -0.4648 -0.0883 -0.3275
10340TIP3    H152435   3.940   4.335   5.580 -0.6819 -0.6608  0.7539
10340TIP3    H252436   3.948   4.406   5.714  1.5925 -0.5585  0.5944
10341TIP3   OH252437   5.714   3.263  10.556  0.3396  0.3364 -0.2656
10341TIP3    H152438   5.688   3.355  10.556 -0.9713 -0.0289 -0.3364
10341TIP3    H252439   5.751   3.248  10.643  2.0388  1.3337 -0.8023
10342TIP3   OH252440   6.362   5.038  17.025  0.6689  0.2465  1.0809
10342TIP3    H152441   6.362   5.035  16.929 -0.3196  3.7219  0.9228
10342TIP3    H252442   6.395   4.951  17.051  0.0619 -1.1055 -2.3458
10343TIP3   OH252443   4.744   2.353  16.419 -0.4677  0.0374  0.5786
10343TIP3    H152444   4.747   2.258  16.414 -0.6495  0.1440 -2.7798
10343TIP3    H252445   4.651   2.375  16.405 -0.6742  0.6755  2.7780
10344TIP3   OH252446   2.208   3.253  10.377  0.1785 -0.3184  0.6253
10344TIP3    H152447   2.122   3.271  10.415 -0.3249 -1.1336 -0.1032
10344TIP3    H252448   2.236   3.336  10.339 -0.9552 -0.4141 -0.4455
10345TIP3   OH252449   0.494   4.724   6.398 -0.3174  0.0338  0.4761
10345TIP3    H152450   0.531   4.637   6.414  0.8515  0.6834  1.3789
10345TIP3    H252451   0.478   4.726   6.303  2.6397 -0.0426 -0.0740
10346TIP3   OH252452   2.831   0.158  11.610  0.1302  0.2008 -0.3457
10346TIP3    H152453   2.797   0.088  11.554 -0.6856  1.3034 -1.2328
10346TIP3    H252454   2.887   0.210  11.553  0.3603  0.5469  0.1905
10347TIP3   OH252455   0.200   5.004   0.916  0.2492 -0.0318 -0.2008
10347TIP3    H152456   0.262   5.076   0.918 -0.9215  0.9685  1.7952
10347TIP3    H252457   0.114   5.046   0.908 -0.3682 -1.2589 -0.2426
10348TIP3   OH252458   2.650   1.393  11.222  0.3517 -0.3264  0.5357
10348TIP3    H152459   2.557   1.392  11.241  0.0559 -1.2547 -0.8622
10348TIP3    H252460   2.690   1.440  11.295 -1.1969 -0.0127  1.1821
10349TIP3   OH252461   0.498   4.958  12.663  0.1747  0.1693 -0.4141
10349TIP3    H152462   0.453   4.897  12.721  0.0964  0.6351  0.0203
10349TIP3    H252463   0.570   4.908  12.626 -0.4690 -0.4689 -0.8152
10350TIP3   OH252464   3.947   4.130   2.334 -0.8208 -0.1606  0.4907
10350TIP3    H152465   4.010   4.126   2.263 -1.6396 -2.2312 -0.1479
10350TIP3    H252466   3.998   4.109   2.412 -0.1211  1.1736  0.4119
10351TIP3   OH252467   3.383   3.068  10.627 -0.2300  0.1248  0.3563
10351TIP3    H152468   3.436   3.017  10.688  0.4660  0.1072 -0.2643
10351TIP3    H252469   3.433   3.148  10.613 -1.4049  1.0987  1.4874
10352TIP3   OH252470   0.236   3.551  16.975 -0.2615  0.1347 -0.3437
10352TIP3    H152471   0.296   3.477  16.968 -0.9982 -0.4614 -0.4674
10352TIP3    H252472   0.199   3.543  17.063  0.1351  0.7316 -0.1181
10353TIP3   OH252473   1.054   2.515  15.012 -0.2064  0.4712  0.1605
10353TIP3    H152474   1.080   2.518  15.104 -0.7833 -0.5879  0.3704
10353TIP3    H252475   1.128   2.475  14.967  0.5192  1.9920 -0.0068
10354TIP3   OH252476   3.063   3.300   0.213  0.3959  0.0173 -0.1902
10354TIP3    H152477   3.145   3.300   0.164  0.0187 -2.4730 -0.9353
10354TIP3    H252478   2.997   3.326   0.149  0.5892  2.0897  0.4268
10355TIP3   OH252479   2.251   1.044  14.827 -0.8306 -0.3806 -0.1074
10355TIP3    H152480   2.326   0.998  14.789 -1.3439 -0.5165 -0.9707
10355TIP3    H252481   2.209   0.980  14.884 -0.3859 -0.3548  0.2518
10356TIP3   OH252482   5.418   3.868   1.237 -0.5834  0.2643  0.2593
10356TIP3    H152483   5.451   3.835   1.153 -1.5748  0.6450 -0.2874
10356TIP3    H252484   5.364   3.796   1.271  0.5568 -0.2425  1.0098
10357TIP3   OH252485   3.382   4.250   2.462  0.4286 -0.3563  0.2934
10357TIP3    H152486   3.309   4.207   2.508  0.9520  0.0873  1.5600
10357TIP3    H252487   3.460   4.215   2.504  0.9857 -1.2066 -1.4094
10358TIP3   OH252488   6.225   1.871   5.494 -0.1287  0.2290  0.0941
10358TIP3    H152489   6.227   1.788   5.446 -0.6797  0.0822  0.3165
10358TIP3    H252490   6.132   1.895   5.496 -0.1040  0.2716  1.0275
10359TIP3   OH252491   4.072   2.253  13.201  0.4942  0.2585 -0.1064
10359TIP3    H152492   4.051   2.342  13.173 -0.9618  0.1037  0.4053
10359TIP3    H252493   3.999   2.200  13.169  1.0903 -0.6629  0.0411
10360TIP3   OH252494   3.861   4.258  10.911  0.7415 -0.3993  1.0205
10360TIP3    H152495   3.903   4.240  10.827 -0.1674 -1.0970  0.7032
10360TIP3    H252496   3.924   4.228  10.977  0.7887 -1.3217  0.5559
10361TIP3   OH252497   4.003   0.089  13.307 -0.5086 -0.3861  0.1864
10361TIP3    H152498   3.986  -0.002  13.330 -1.8208  0.2253  1.6811
10361TIP3    H252499   4.062   0.120  13.376  2.0906 -0.8076 -1.7467
10362TIP3   OH252500   4.675   2.129   3.105 -0.6080 -0.4155 -0.7079
10362TIP3    H152501   4.626   2.134   3.187  0.6817  1.4606 -0.0050
10362TIP3    H252502   4.615   2.162   3.039 -1.0763 -0.3362 -0.2437
10363TIP3   OH252503   3.262   2.496  11.462  0.6711  0.1611 -0.5689
10363TIP3    H152504   3.342   2.481  11.512  0.0099 -1.1570  0.1186
10363TIP3    H252505   3.195   2.511  11.529 -0.0448 -0.6812 -1.0904
10364TIP3   OH252506   3.835   3.100  13.220  0.1513 -0.0156 -0.4193
10364TIP3    H152507   3.759   3.113  13.277 -1.5913 -0.8945 -2.4795
10364TIP3    H252508   3.813   3.147  13.140  2.3860  0.8495 -0.5699
10365TIP3   OH252509   4.204   4.240   6.200  0.0167 -0.1598 -0.0332
10365TIP3    H152510   4.118   4.211   6.230  1.0492 -1.6856  1.5953
10365TIP3    H252511   4.262   4.225   6.275  1.5626  1.5936 -0.8152
10366TIP3   OH252512   5.616   0.331  15.058 -0.2167 -0.3367  0.4195
10366TIP3    H152513   5.682   0.262  15.063 -0.1795 -0.2449  1.1303
10366TIP3    H252514   5.659   0.408  15.093 -0.5134 -0.1313  0.3357
10367TIP3   OH252515   1.910   0.321   6.321 -0.4229  0.2324 -0.1646
10367TIP3    H152516   1.841   0.256   6.335 -0.3257 -0.1848 -1.5559
10367TIP3    H252517   1.992   0.271   6.326 -0.3896  0.0294 -2.2987
10368TIP3   OH252518   5.722   5.340  15.847 -0.2872 -0.7079 -0.0951
10368TIP3    H152519   5.632   5.337  15.817 -0.7205 -1.9097  1.2475
10368TIP3    H252520   5.760   5.416  15.804 -1.7046 -0.6778 -1.3133
10369TIP3   OH252521   4.614   5.523   1.767 -0.2737 -0.5816 -0.4064
10369TIP3    H152522   4.558   5.586   1.812  1.8488  0.9252  0.2405
10369TIP3    H252523   4.639   5.460   1.835  1.7086  0.8349  0.2428
10370TIP3   OH252524   4.653   5.332   2.190 -0.4796  0.1936 -0.5621
10370TIP3    H152525   4.717   5.331   2.118  0.3967  1.0773  0.1782
10370TIP3    H252526   4.609   5.416   2.182 -0.4559  0.2500 -0.1375
10371TIP3   OH252527   1.448   0.255   4.544 -0.0759  0.8685  0.0545
10371TIP3    H152528   1.510   0.216   4.482  0.3496  1.9457 -0.2140
10371TIP3    H252529   1.362   0.237   4.506  0.0377 -1.0251  0.6589
10372TIP3   OH252530   1.381   2.275  14.927 -0.3011 -0.1746  0.5598
10372TIP3    H152531   1.384   2.370  14.912 -0.7125 -0.1989  0.3244
10372TIP3    H252532   1.357   2.238  14.842 -3.3580 -0.2642  1.3998
10373TIP3   OH252533   0.066   5.854   5.506  0.3372  0.4266  0.3780
10373TIP3    H152534   0.025   5.826   5.424  1.2323 -1.0204  0.3847
10373TIP3    H252535   0.012   5.816   5.575  0.7552 -0.1421  0.4056
10374TIP3   OH252536   6.616   6.020  17.092 -0.1538  0.2395 -0.2779
10374TIP3    H152537   6.610   6.035  16.998 -0.6305  0.2102 -0.2543
10374TIP3    H252538   6.531   6.047  17.126 -0.5051 -1.1354 -0.0475
10375TIP3   OH252539   4.408   6.249   1.522  0.6641 -0.5264  0.3128
10375TIP3    H152540   4.329   6.290   1.559  0.0214 -2.2430  0.9070
10375TIP3    H252541   4.479   6.279   1.578  0.8583  3.0698 -1.7294
10376TIP3   OH252542   2.734   5.880  10.587  0.5045 -0.1983 -0.1548
10376TIP3    H152543   2.688   5.963  10.594 -1.3728 -1.1221 -1.2179
10376TIP3    H252544   2.717   5.850  10.497  1.1800 -1.7114  0.2034
10377TIP3   OH252545   4.705   0.713  14.543  0.6164  0.3766 -0.6046
10377TIP3    H152546   4.624   0.661  14.537 -0.2208  1.4554  0.9719
10377TIP3    H252547   4.675   0.804  14.549  1.9635  0.7923  0.0206
10378TIP3   OH252548   1.855   5.670   3.479  0.0273 -0.0175 -0.0580
10378TIP3    H152549   1.938   5.696   3.438 -0.0074 -0.0739 -0.1613
10378TIP3    H252550   1.810   5.753   3.496 -0.3781 -0.0473 -0.9950
10379TIP3   OH252551   3.432   4.365   1.382 -0.1019  0.5380 -0.1585
10379TIP3    H152552   3.513   4.410   1.406 -0.4656  1.8783 -1.4115
10379TIP3    H252553   3.362   4.427   1.402 -0.6051  0.5785 -1.9269
10380TIP3   OH252554   2.115   3.606  13.997  0.0292  0.5881 -0.3804
10380TIP3    H152555   2.201   3.647  13.980  0.2080  0.4673  0.2113
10380TIP3    H252556   2.087   3.645  14.079  0.5904 -1.1144  0.6445
10381TIP3   OH252557   3.848   3.468  14.515 -0.1310 -0.0617 -0.8989
10381TIP3    H152558   3.768   3.500  14.557 -0.2988 -3.1207  1.3164
10381TIP3    H252559   3.911   3.539  14.525 -1.9320  1.5287 -0.6748
10382TIP3   OH252560   1.849   1.637  11.280 -0.7517 -0.1621  0.8301
10382TIP3    H152561   1.904   1.590  11.217 -1.1485 -0.7337  0.9079
10382TIP3    H252562   1.909   1.696  11.325 -0.7283  1.4617 -1.2410
10383TIP3   OH252563   0.066   4.983  14.936  0.0069 -0.5043 -0.1807
10383TIP3    H152564   0.141   4.923  14.927  0.8788  0.6909 -1.0747
10383TIP3    H252565   0.104   5.064  14.970 -1.1128 -0.3363  0.6993
10384TIP3   OH252566   5.154   0.952  13.473  0.3077  0.1428  0.3752
10384TIP3    H152567   5.077   0.935  13.527 -0.2592 -4.7588 -1.7211
10384TIP3    H252568   5.119   0.975  13.387  1.2161  0.9333  0.2013
10385TIP3   OH252569   3.042   3.873   5.670  0.0245 -0.4546 -0.0978
10385TIP3    H152570   2.979   3.817   5.624 -1.2136 -0.7894  1.9409
10385TIP3    H252571   3.002   3.890   5.755  1.0476  2.3233 -0.0928
10386TIP3   OH252572   0.072   3.422  15.304 -0.4145 -0.6934  0.0871
10386TIP3    H152573   0.125   3.343  15.319  0.9263 -0.1560 -1.5408
10386TIP3    H252574   0.077   3.470  15.386  0.3299 -1.4156  0.4832
10387TIP3   OH252575   1.588   3.015  11.254  0.6270  0.5054 -0.2719
10387TIP3    H152576   1.582   2.921  11.267  1.0899  0.4700 -0.3327
10387TIP3    H252577   1.520   3.051  11.312  1.8110  0.2606  1.3007
10388TIP3   OH252578   0.960   3.677  11.353 -0.0405 -0.2612 -0.5045
10388TIP3    H152579   0.914   3.755  11.384 -1.0163 -1.1560  0.3247
10388TIP3    H252580   1.016   3.651  11.426  1.1111  0.2786 -1.1755
10389TIP3   OH252581   4.145   0.637  12.850  0.1034  0.4798  0.0219
10389TIP3    H152582   4.097   0.686  12.918 -0.6615 -0.4340  0.1659
10389TIP3    H252583   4.117   0.677  12.768 -0.7260  0.1228  0.1218
10390TIP3   OH252584   5.434   6.069  14.703 -0.3037  0.4939 -0.5215
10390TIP3    H152585   5.342   6.092  14.692 -1.5486 -3.3179  0.8438
10390TIP3    H252586   5.458   6.027  14.620  0.1096  1.1810 -0.7510
10391TIP3   OH252587   6.541   5.378  11.047  0.6648 -0.0838 -0.0535
10391TIP3    H152588   6.547   5.315  10.975 -2.8449 -0.3384 -0.2542
10391TIP3    H252589   6.484   5.447  11.012 -1.3005 -0.3392  2.5090
10392TIP3   OH252590   0.256   6.579  13.091  0.0363  0.1290  0.1574
10392TIP3    H152591   0.268   6.575  12.996  0.3335 -4.2198  0.2993
10392TIP3    H252592   0.167   6.549  13.106  0.3791 -0.3316  1.3501
10393TIP3   OH252593   0.916   5.556   5.325  0.2694  0.3252 -0.3939
10393TIP3    H152594   0.832   5.586   5.359  0.5542  1.1868 -0.4405
10393TIP3    H252595   0.929   5.470   5.365 -0.5513  0.2641 -0.2542
10394TIP3   OH252596   0.099   6.559  12.251  0.3187 -0.4302 -0.2335
10394TIP3    H152597   0.048   6.581  12.173  0.9262  0.7379 -0.3287
10394TIP3    H252598   0.134   6.472  12.234  0.4238 -0.1881 -1.2681
10395TIP3   OH252599   1.056   4.005   0.999 -0.2463 -0.1136  0.4306
10395TIP3    H152600   1.038   3.927   0.947 -1.5707  0.9951 -0.8200
10395TIP3    H252601   1.040   3.979   1.090 -1.2110 -1.1293 -0.0338
10396TIP3   OH252602   5.248   6.591  12.347  0.1312  0.1462 -0.1154
10396TIP3    H152603   5.328   6.634  12.376 -0.4283  0.4541  0.9963
10396TIP3    H252604   5.278   6.518  12.293  1.1783  0.0993  0.5203
10397TIP3   OH252605   3.462   1.384  15.862  0.2106  0.2844 -0.0341
10397TIP3    H152606   3.387   1.392  15.920  1.1168  0.8949  1.0633
10397TIP3    H252607   3.494   1.474  15.851  0.1810  0.1600 -1.3099
10398TIP3   OH252608   1.624   0.247   1.783 -0.8143  0.1062  0.2293
10398TIP3    H152609   1.648   0.336   1.807 -3.0711  0.8552 -0.2709
10398TIP3    H252610   1.597   0.206   1.865  0.0378 -0.0891  0.4246
10399TIP3   OH252611   4.774   2.301   4.650 -0.0256 -0.2063  0.2433
10399TIP3    H152612   4.848   2.289   4.591  0.9442 -1.5733  1.6974
10399TIP3    H252613   4.812   2.340   4.729 -1.1144  0.5203  0.4194
10400TIP3   OH252614   0.469   4.994   2.218  0.4563 -0.2158 -0.1181
10400TIP3    H152615   0.551   5.025   2.180 -0.7174  1.8073 -1.1055
10400TIP3    H252616   0.471   5.024   2.309  0.2916  0.8731 -0.4721
10401TIP3   OH252617   4.512   1.520  15.548 -0.1176  0.0993 -0.0305
10401TIP3    H152618   4.599   1.488  15.523  0.7616  2.5239 -0.2919
10401TIP3    H252619   4.479   1.455  15.609  1.8461 -0.9408 -0.0237
10402TIP3   OH252620   3.576   0.554   1.265  0.5889 -0.4587  0.0455
10402TIP3    H152621   3.554   0.600   1.346 -0.8384 -1.7358  0.3979
10402TIP3    H252622   3.639   0.487   1.292 -0.4736 -1.3898  0.2471
10403TIP3   OH252623   5.923   0.365  11.922  0.1507 -0.1957 -0.2649
10403TIP3    H152624   5.986   0.396  11.987 -0.8555  0.8732  0.2173
10403TIP3    H252625   5.918   0.436  11.858 -1.1078  0.0456  0.0938
10404TIP3   OH252626   3.791   3.358  15.918 -0.1597 -0.6051 -0.0008
10404TIP3    H152627   3.845   3.321  15.988 -0.4751 -0.2585  0.4224
10404TIP3    H252628   3.750   3.282  15.877 -0.0316 -0.8014  0.2340
10405TIP3   OH252629   2.675   3.344  16.157 -0.0336  0.0871  0.0899
10405TIP3    H152630   2.697   3.393  16.237 -2.1620  0.1356  0.6894
10405TIP3    H252631   2.613   3.400  16.111 -2.4222 -1.9489  0.7256
10406TIP3   OH252632   6.589   6.011  12.847  0.2374 -0.2487  0.1516
10406TIP3    H152633   6.673   6.029  12.890  1.1485 -1.0405 -1.2603
10406TIP3    H252634   6.586   6.070  12.772 -0.2507 -0.5591 -0.0809
10407TIP3   OH252635   4.654   4.765  12.700 -0.4308  0.2685  0.4919
10407TIP3    H152636   4.709   4.843  12.698 -0.0811  0.0070 -0.2463
10407TIP3    H252637   4.645   4.739  12.609 -1.3166 -0.0218  0.6475
10408TIP3   OH252638   6.095   1.475   2.209  0.2292 -0.1233 -0.3093
10408TIP3    H152639   6.006   1.473   2.245  0.6545  0.3219  0.7867
10408TIP3    H252640   6.134   1.393   2.236  0.6059  0.2844  0.3984
10409TIP3   OH252641   5.642   5.942   2.830  0.8690  0.2844  0.1926
10409TIP3    H152642   5.598   6.017   2.870  2.1211  0.8648  0.4847
10409TIP3    H252643   5.608   5.866   2.878  1.5310  0.8841  1.6309
10410TIP3   OH252644   3.636   5.519  12.505  0.0583 -0.2317  0.4192
10410TIP3    H152645   3.567   5.580  12.478  0.1659  0.4111  1.5548
10410TIP3    H252646   3.588   5.442  12.538 -0.1693  0.5820  2.0734
10411TIP3   OH252647   6.538   4.373   4.939  0.2133 -0.2142  0.1013
10411TIP3    H152648   6.495   4.410   5.016  1.3925  0.7994  0.2883
10411TIP3    H252649   6.576   4.290   4.970 -1.4668 -1.0490 -0.0362
10412TIP3   OH252650   1.478   2.274  13.275 -0.5181  0.1914 -0.4184
10412TIP3    H152651   1.524   2.193  13.250  1.0308  0.7126  0.6898
10412TIP3    H252652   1.512   2.295  13.362  0.3448  2.9445 -1.3804
10413TIP3   OH252653   5.932   3.582   3.918  0.5372  0.3134  0.1138
10413TIP3    H152654   5.881   3.558   3.995 -0.5218 -1.7212 -1.1742
10413TIP3    H252655   5.907   3.672   3.899  0.2196  0.5659  1.6691
10414TIP3   OH252656   1.118   1.748   5.003  0.3159 -0.0087 -0.5494
10414TIP3    H152657   1.105   1.665   4.958  2.7257  0.2819 -1.8222
10414TIP3    H252658   1.112   1.814   4.934  0.3941  0.7127  0.1311
10415TIP3   OH252659   1.774   1.271  12.293  0.2505 -0.1074  0.1539
10415TIP3    H152660   1.736   1.322  12.222  2.2261  0.8792 -0.2211
10415TIP3    H252661   1.742   1.313  12.373 -0.4877 -0.0917 -0.1507
10416TIP3   OH252662   6.487   6.162   2.441  0.2444  0.4073 -0.7875
10416TIP3    H152663   6.545   6.116   2.501  0.0791 -1.4741 -2.0503
10416TIP3    H252664   6.540   6.235   2.408  0.5998  0.9967  0.9820
10417TIP3   OH252665   3.350   3.600   3.811 -0.1988 -0.3147 -0.3731
10417TIP3    H152666   3.370   3.513   3.779 -0.6324 -0.5544 -0.0025
10417TIP3    H252667   3.258   3.614   3.787  0.1931  0.4883 -1.4353
10418TIP3   OH252668   5.423   0.238   4.455  0.2632 -0.4902 -0.0282
10418TIP3    H152669   5.483   0.171   4.486  0.8233  0.4563  0.9863
10418TIP3    H252670   5.469   0.321   4.470 -0.8147  0.1790 -0.3078
10419TIP3   OH252671   5.615   2.838  15.899  0.0593  0.1794  0.0466
10419TIP3    H152672   5.688   2.786  15.934 -1.4226 -1.6229  0.5281
10419TIP3    H252673   5.657   2.901  15.841  2.2846  1.0324  2.4688
10420TIP3   OH252674   4.825   6.614   2.599  0.3061  0.2761 -0.2498
10420TIP3    H152675   4.823   6.657   2.514  1.9115 -0.1315 -0.4947
10420TIP3    H252676   4.912   6.576   2.606 -0.1279 -0.5183  1.1746
10421TIP3   OH252677   4.841   4.957  11.706 -0.2094  0.5291 -0.2167
10421TIP3    H152678   4.803   5.002  11.631  1.2209  2.5268  0.2037
10421TIP3    H252679   4.899   5.023  11.746  0.7116 -1.1944  1.3492
10422TIP3   OH252680   6.150   0.115  13.995 -0.7633 -0.2430 -0.0877
10422TIP3    H152681   6.235   0.143  13.961 -0.4252  0.4083  1.2215
10422TIP3    H252682   6.150   0.020  13.987 -1.0041 -0.0588 -2.5328
10423TIP3   OH252683   3.640   4.942   0.167 -0.4915  0.0149  0.4998
10423TIP3    H152684   3.714   4.917   0.112 -0.5780  1.2023 -0.1569
10423TIP3    H252685   3.563   4.912   0.119 -0.6072  1.6744 -0.3852
10424TIP3   OH252686   5.068   0.876  15.751  0.2902  0.0864  0.0169
10424TIP3    H152687   4.997   0.898  15.690  0.3345 -0.3223 -0.1865
10424TIP3    H252688   5.025   0.871  15.837  0.2749  0.9139  0.0591
10425TIP3   OH252689   4.073   4.312  15.307 -0.4275 -0.6478 -0.1759
10425TIP3    H152690   4.065   4.305  15.402 -2.1781 -1.4098 -0.3643
10425TIP3    H252691   4.120   4.395  15.293  0.7335 -1.0089  1.3633
10426TIP3   OH252692   4.939   2.771  14.313  0.1976 -0.6981 -0.0305
10426TIP3    H152693   4.921   2.790  14.405 -0.7926 -0.6694 -0.2285
10426TIP3    H252694   5.035   2.770  14.308  0.2593 -0.9157  1.0376
10427TIP3   OH252695   3.117   5.550  11.279  0.5992 -0.0883 -0.6959
10427TIP3    H152696   3.209   5.543  11.254  0.3822 -0.0796 -1.5014
10427TIP3    H252697   3.073   5.479  11.231 -0.3238  1.8187 -2.7758
10428TIP3   OH252698   0.727   0.387  15.553 -0.4669 -0.3141  0.3563
10428TIP3    H152699   0.731   0.291  15.542  2.7874 -0.2470  0.3640
10428TIP3    H252700   0.701   0.400  15.644  0.7705 -1.2199  0.8497
10429TIP3   OH252701   3.117   0.634   4.914  0.2820  0.7314 -0.5685
10429TIP3    H152702   3.088   0.705   4.857 -1.1365 -0.2034 -1.0460
10429TIP3    H252703   3.071   0.557   4.881  1.3437 -0.2980  0.3146
10430TIP3   OH252704   2.574   1.830  16.576 -0.2324  0.6340 -0.3855
10430TIP3    H152705   2.537   1.838  16.663  0.1026 -0.3371 -0.1397
10430TIP3    H252706   2.560   1.915  16.535 -0.9110  0.9059  0.4077
10431TIP3   OH252707   5.614   2.298  12.397 -0.1768  0.0973  0.0537
10431TIP3    H152708   5.588   2.313  12.306  0.4555  2.3060  0.2090
10431TIP3    H252709   5.632   2.204  12.401  0.8073  0.1334 -2.3656
10432TIP3   OH252710   0.972   2.981   6.016  0.1964 -0.0449  0.4051
10432TIP3    H152711   0.943   3.011   6.102 -0.8931  0.6475 -0.1895
10432TIP3    H252712   0.997   2.890   6.030 -2.1461 -0.6332  0.9849
10433TIP3   OH252713   1.250   0.804  17.051  1.0328  0.1726 -0.3235
10433TIP3    H152714   1.219   0.894  17.054  0.8130  0.1575 -1.8887
10433TIP3    H252715   1.286   0.793  16.963  0.1035 -1.5657 -0.5138
10434TIP3   OH252716   4.026   5.359   0.839 -0.7016  0.6961  0.2102
10434TIP3    H152717   4.020   5.302   0.916  2.1597 -0.2100 -0.1959
10434TIP3    H252718   4.080   5.310   0.777 -0.2239  2.8353 -1.1106
10435TIP3   OH252719   6.567   2.205   4.766 -0.3172  0.1406  0.1668
10435TIP3    H152720   6.604   2.185   4.680 -1.2174  1.1161 -0.4610
10435TIP3    H252721   6.612   2.146   4.826 -0.7782 -1.6580 -1.2108
10436TIP3   OH252722   4.771   3.977   0.889  0.0646 -0.1381 -0.0970
10436TIP3    H152723   4.851   3.947   0.932  1.3987 -0.4019 -2.6573
10436TIP3    H252724   4.732   3.897   0.852 -0.2623  0.2651 -0.6368
10437TIP3   OH252725   3.115   6.011  11.571  0.6799  0.5935  0.1818
10437TIP3    H152726   3.073   6.067  11.636  1.3818  0.4381  0.7806
10437TIP3    H252727   3.063   5.930  11.572 -0.8288  1.5005 -1.2700
10438TIP3   OH252728   0.580   3.699  13.017  0.0837 -0.0253  0.4334
10438TIP3    H152729   0.551   3.717  13.107 -0.4973  0.7141  0.1020
10438TIP3    H252730   0.597   3.605  13.016 -0.4166 -0.1296  1.1756
10439TIP3   OH252731   0.838   5.089   1.829  0.1757 -0.7692  0.3995
10439TIP3    H152732   0.929   5.112   1.813  0.2835 -0.3886  1.5179
10439TIP3    H252733   0.837   4.994   1.834  0.6176 -0.7411  1.0078
10440TIP3   OH252734   3.586   4.458  12.614 -0.0713  0.0485 -0.9913
10440TIP3    H152735   3.568   4.549  12.635  0.0368 -0.1054 -0.2061
10440TIP3    H252736   3.570   4.451  12.520 -3.0906  0.1482 -0.5167
10441TIP3   OH252737   2.766   5.971   4.526 -0.4704 -0.4128 -0.5487
10441TIP3    H152738   2.687   5.962   4.473 -0.1045  0.6592 -1.2998
10441TIP3    H252739   2.825   5.904   4.492 -0.5237 -0.2471 -0.9710
10442TIP3   OH252740   4.899   2.640  12.986  0.2930  0.7324  0.2327
10442TIP3    H152741   4.986   2.622  12.950 -0.8841  0.4048 -2.5347
10442TIP3    H252742   4.908   2.725  13.029  1.9312  0.7978 -0.1884
10443TIP3   OH252743   1.202   3.357  17.065  0.4490 -0.2254 -0.4669
10443TIP3    H152744   1.186   3.288  17.001  0.3141  0.8830 -1.6396
10443TIP3    H252745   1.290   3.388  17.044  0.3883  0.1694 -0.1271
10444TIP3   OH252746   2.556   5.937   0.013 -0.0781  0.2748 -0.0548
10444TIP3    H152747   2.608   6.003  -0.033 -0.2405  1.2373  1.1033
10444TIP3    H252748   2.534   5.978   0.097 -1.3800 -0.7225  0.1093
10445TIP3   OH252749   2.762   6.111  15.260  0.5850  0.0619 -0.0742
10445TIP3    H152750   2.680   6.125  15.308  0.2589  2.0130 -1.1528
10445TIP3    H252751   2.755   6.021  15.227 -0.3117 -0.4127  1.3633
10446TIP3   OH252752   2.669   0.032   2.200 -0.0186  0.4260  0.2154
10446TIP3    H152753   2.597   0.087   2.168  1.1512  2.2531  0.6106
10446TIP3    H252754   2.747   0.089   2.193  1.2660 -1.2702  0.4378
10447TIP3   OH252755   1.828   2.567   6.362  0.0691  0.2094  0.3191
10447TIP3    H152756   1.843   2.502   6.292 -1.1763 -1.0112  1.1682
10447TIP3    H252757   1.738   2.594   6.350  1.1056  3.1967 -1.1484
10448TIP3   OH252758   5.132   5.264  13.865  0.4548 -0.6743 -0.9199
10448TIP3    H152759   5.153   5.194  13.927  0.4120 -0.7003 -0.9340
10448TIP3    H252760   5.044   5.293  13.890  1.1298  0.4938  0.1224
10449TIP3   OH252761   0.960   4.775  11.733  0.8622 -0.1132  0.0187
10449TIP3    H152762   0.951   4.818  11.648  0.7502  0.9121  0.5440
10449TIP3    H252763   0.897   4.703  11.729 -0.0552  0.6795 -0.3133
10450TIP3   OH252764   3.473   6.582   2.063 -0.1377  0.3568 -0.1258
10450TIP3    H152765   3.431   6.502   2.096  1.6001  0.1222  1.6177
10450TIP3    H252766   3.450   6.649   2.128  0.8362  0.5871 -0.0192
10451TIP3   OH252767   2.463   1.034   0.908  0.2339 -0.6554  0.3085
10451TIP3    H152768   2.511   1.111   0.939  1.4087 -1.3962  0.3534
10451TIP3    H252769   2.382   1.070   0.870 -0.2104  0.4320  2.2196
10452TIP3   OH252770   0.754   3.405   1.897  0.2624 -0.2291 -0.1633
10452TIP3    H152771   0.837   3.361   1.915 -0.6801 -1.8810  0.2474
10452TIP3    H252772   0.778   3.497   1.883  1.8840 -0.2351  2.2422
10453TIP3   OH252773   2.019   4.377  11.454 -0.1047  0.0307 -0.0584
10453TIP3    H152774   2.061   4.303  11.410  0.8782  1.1593 -1.0588
10453TIP3    H252775   1.981   4.428  11.383  1.2404  1.7158  0.4050
10454TIP3   OH252776   2.696   1.523  10.990  0.6232 -0.2781  0.0991
10454TIP3    H152777   2.677   1.464  11.063  0.9961 -1.4076 -0.7138
10454TIP3    H252778   2.740   1.598  11.031  1.2831 -1.1316  0.9801
10455TIP3   OH252779   1.164   0.207   4.522 -0.5687 -0.1145 -0.4782
10455TIP3    H152780   1.156   0.194   4.616  0.7719  2.3961  0.0442
10455TIP3    H252781   1.077   0.188   4.487 -1.0080 -1.3366  1.2324
10456TIP3   OH252782   4.695   2.103   0.804  0.5373 -0.2336  0.3731
10456TIP3    H152783   4.749   2.061   0.738 -0.7067 -0.4087 -0.5548
10456TIP3    H252784   4.676   2.190   0.768 -0.2419 -0.3729  0.4487
10457TIP3   OH252785   2.510   0.438  12.072  0.1285 -0.5932 -0.2082
10457TIP3    H152786   2.583   0.495  12.045 -0.1758 -0.2048 -0.2068
10457TIP3    H252787   2.455   0.494  12.127 -0.4872 -0.7121 -0.6970
10458TIP3   OH252788   0.135   5.777  14.127 -0.1336  0.8801 -0.0833
10458TIP3    H152789   0.227   5.802  14.117  1.4580 -3.5500  1.9892
10458TIP3    H252790   0.098   5.783  14.039  2.4703  1.6176 -1.1566
10459TIP3   OH252791   4.641   0.732  10.984 -0.3934 -0.1185  0.1230
10459TIP3    H152792   4.562   0.784  10.970  0.7210  1.1347 -1.7094
10459TIP3    H252793   4.635   0.662  10.918 -0.8392 -1.0842  1.1710
10460TIP3   OH252794   2.415   0.913   1.753 -0.0935  0.3481  0.1698
10460TIP3    H152795   2.479   0.862   1.703  1.6965  0.4831  2.2452
10460TIP3    H252796   2.427   0.885   1.843 -2.7997  0.6129  0.6564
10461TIP3   OH252797   5.110   3.121   1.247  0.8518  0.3003 -0.4194
10461TIP3    H152798   5.066   3.036   1.251  2.1447 -0.3543  0.2244
10461TIP3    H252799   5.203   3.099   1.242  1.1605  1.6768 -0.7460
10462TIP3   OH252800   2.722   2.470   5.308  0.3469 -0.4887  0.1293
10462TIP3    H152801   2.664   2.482   5.233 -1.0996 -0.6861  1.1850
10462TIP3    H252802   2.720   2.376   5.326 -0.0229 -0.3241  0.9639
10463TIP3   OH252803   4.799   6.500   4.642  0.3221 -0.1659 -0.1783
10463TIP3    H152804   4.729   6.553   4.603  0.0467 -0.0655  0.4528
10463TIP3    H252805   4.874   6.560   4.645 -0.1437  0.3670  1.0443
10464TIP3   OH252806   1.896   4.249   0.363  0.4223 -0.2969  0.3637
10464TIP3    H152807   1.923   4.255   0.455 -0.3374 -0.9860  0.6348
10464TIP3    H252808   1.978   4.237   0.315  0.5802 -3.4400  1.2845
10465TIP3   OH252809   2.780   5.767   0.403 -0.2383 -0.1983 -0.2522
10465TIP3    H152810   2.748   5.752   0.492 -0.4487 -0.7036 -0.4066
10465TIP3    H252811   2.761   5.684   0.357 -0.3466  0.1397 -0.8256
10466TIP3   OH252812   4.101   2.928   5.450  0.0703  0.4299 -0.2242
10466TIP3    H152813   4.017   2.904   5.490  0.3127  0.4871  0.3179
10466TIP3    H252814   4.127   3.008   5.495 -0.2046  1.1353 -1.2806
10467TIP3   OH252815   6.223   4.140   0.907  0.5323  0.2804  0.7116
10467TIP3    H152816   6.137   4.108   0.934  0.1938 -0.1763 -0.8083
10467TIP3    H252817   6.279   4.062   0.907  1.0025  0.6168  1.9098
10468TIP3   OH252818   6.516   2.068   2.081 -0.2595  0.2080 -0.1132
10468TIP3    H152819   6.443   2.006   2.085 -0.2142  0.2552  1.9471
10468TIP3    H252820   6.585   2.022   2.033 -0.4434 -1.1281  0.8867
10469TIP3   OH252821   1.359   5.512   4.922  0.5806  0.0988 -0.1636
10469TIP3    H152822   1.386   5.495   5.012  1.5729  1.8076 -0.1085
10469TIP3    H252823   1.344   5.607   4.919  0.4349  0.0461 -1.7510
10470TIP3   OH252824   5.873   5.120   0.595 -0.3720  0.2998  0.0572
10470TIP3    H152825   5.866   5.187   0.527 -0.8429  0.6143  0.4055
10470TIP3    H252826   5.940   5.059   0.563 -0.6668  0.3814 -0.7393
10471TIP3   OH252827   0.699   1.665  14.153 -0.1571 -0.2637 -0.4341
10471TIP3    H152828   0.733   1.701  14.071 -1.3450  0.0436 -0.8142
10471TIP3    H252829   0.604   1.662  14.139 -0.4892  0.9247  1.3674
10472TIP3   OH252830   2.587   0.823   0.362 -0.6893  0.0085 -0.0262
10472TIP3    H152831   2.569   0.864   0.446  0.2842  0.5076 -0.0458
10472TIP3    H252832   2.665   0.770   0.378 -0.6852 -0.1370 -0.5272
10473TIP3   OH252833   6.322   5.315  14.847 -0.3273 -0.8996  0.0822
10473TIP3    H152834   6.393   5.357  14.800 -1.5007 -1.5585 -2.3741
10473TIP3    H252835   6.289   5.383  14.906 -0.2705  0.7174 -1.6870
10474TIP3   OH252836   1.041   3.142  11.978  0.1255  0.1183 -0.1362
10474TIP3    H152837   1.040   3.047  11.993 -1.4516  0.0646 -0.4574
10474TIP3    H252838   1.033   3.180  12.065  0.6962 -0.0517 -0.0114
10475TIP3   OH252839   5.841   1.923   2.289  0.6595 -0.3980 -0.1363
10475TIP3    H152840   5.762   1.974   2.274  1.3180  1.2451  1.7282
10475TIP3    H252841   5.834   1.849   2.229 -1.8078  0.2397 -0.6845
10476TIP3   OH252842   3.314   1.958  16.922  0.8657  0.2367  0.0965
10476TIP3    H152843   3.224   1.950  16.953  1.2960  0.9844  1.5506
10476TIP3    H252844   3.317   1.904  16.842 -0.7591 -0.0844  0.2514
10477TIP3   OH252845   3.504   3.174   6.300  0.4806 -0.0487 -0.5284
10477TIP3    H152846   3.424   3.121   6.290  2.2107 -2.7095 -0.8014
10477TIP3    H252847   3.520   3.174   6.394  1.1810 -1.1625 -0.6305
10478TIP3   OH252848   3.264   3.544   5.420 -0.2090 -0.7191  0.2441
10478TIP3    H152849   3.323   3.524   5.347  0.6857 -1.9210  1.2585
10478TIP3    H252850   3.268   3.467   5.476  0.0141  0.6199  2.1447
10479TIP3   OH252851   6.744   2.748  12.153 -0.0586  0.3395  0.1231
10479TIP3    H152852   6.664   2.773  12.107 -0.3156  0.1737  0.4753
10479TIP3    H252853   6.750   2.810  12.225 -0.7541 -0.6594  1.0662
10480TIP3   OH252854   4.299   4.513  14.867  0.2290 -0.8642  0.3551
10480TIP3    H152855   4.345   4.470  14.938  1.0424 -2.2008 -0.9653
10480TIP3    H252856   4.282   4.602  14.900  0.4942 -1.4883  2.2303
10481TIP3   OH252857   5.088   1.632  14.615  0.1535  0.4374 -0.2842
10481TIP3    H152858   5.118   1.676  14.695 -0.5649  0.8738 -0.2503
10481TIP3    H252859   5.049   1.702  14.562 -2.2088 -0.3452  0.3523
10482TIP3   OH252860   1.943   4.280  12.037 -0.2689  0.7175 -0.3822
10482TIP3    H152861   2.019   4.327  12.003 -1.4891  1.7856 -1.6865
10482TIP3    H252862   1.932   4.313  12.126 -0.0880  1.6376 -0.7009
10483TIP3   OH252863   5.571   3.302  11.974  0.3904 -0.0947  0.1450
10483TIP3    H152864   5.484   3.261  11.974 -0.4173  1.5358 -0.8405
10483TIP3    H252865   5.565   3.370  12.042  0.2837  1.2207 -1.1602
10484TIP3   OH252866   5.606   0.632  15.298 -0.0414  0.6911  0.6681
10484TIP3    H152867   5.681   0.685  15.326 -0.8125  1.9506  0.4097
10484TIP3    H252868   5.618   0.548  15.342  0.0305  1.8240  2.8769
10485TIP3   OH252869   0.322   6.508  14.782 -0.4889 -0.2947  0.6923
10485TIP3    H152870   0.275   6.516  14.865 -0.4010 -0.5237  0.7627
10485TIP3    H252871   0.378   6.432  14.793 -0.0997 -0.0211  0.6096
10486TIP3   OH252872   2.862   5.690   5.680 -0.5433  0.7137  0.1345
10486TIP3    H152873   2.862   5.623   5.749  1.2957  0.9893  0.4458
10486TIP3    H252874   2.843   5.642   5.600 -0.9663  0.1019  0.5924
10487TIP3   OH252875   0.918   0.835  13.246  0.2819  0.0081 -0.4392
10487TIP3    H152876   1.011   0.854  13.260  0.3961 -0.9571  0.1431
10487TIP3    H252877   0.880   0.834  13.333 -0.2985  0.4620 -0.6828
10488TIP3   OH252878   2.080   6.246  13.225 -0.0030 -0.4524  0.1127
10488TIP3    H152879   2.015   6.301  13.182 -0.1571  0.0300  0.9585
10488TIP3    H252880   2.077   6.163  13.177 -1.3964 -0.5055  0.2963
10489TIP3   OH252881   4.656   0.901   4.372  0.8582  0.4050 -0.4711
10489TIP3    H152882   4.721   0.864   4.312  1.7917 -0.4352  1.0103
10489TIP3    H252883   4.605   0.825   4.401  1.4461  0.5666  1.0154
10490TIP3   OH252884   5.064   3.979  14.801 -0.0688 -0.2857 -0.5184
10490TIP3    H152885   5.058   3.899  14.852  0.8288  0.6300  1.0512
10490TIP3    H252886   5.021   4.045  14.855  1.8046  0.9121 -0.4548
10491TIP3   OH252887   5.622   0.875  12.899  0.1694 -0.1187 -0.2079
10491TIP3    H152888   5.617   0.780  12.910  2.1733 -0.3522 -1.1230
10491TIP3    H252889   5.580   0.893  12.815 -4.0317  0.3250  1.8448
10492TIP3   OH252890   1.846   1.253  12.773 -0.0481 -0.0381 -0.5374
10492TIP3    H152891   1.903   1.319  12.812 -0.4828 -0.2655  0.5143
10492TIP3    H252892   1.871   1.171  12.817 -0.2307 -0.3850 -1.0720
10493TIP3   OH252893   1.531   6.458   4.256 -0.8773 -0.0429 -0.0024
10493TIP3    H152894   1.610   6.449   4.310 -1.2471 -1.9351  0.2731
10493TIP3    H252895   1.556   6.520   4.188  0.3525  0.5728  0.9864
10494TIP3   OH252896   2.824   4.171   2.539  0.4015 -0.1912 -0.1519
10494TIP3    H152897   2.908   4.130   2.517  0.0574 -1.9036  1.5402
10494TIP3    H252898   2.772   4.100   2.578 -1.3051  1.1819  0.1696
10495TIP3   OH252899   1.122   4.030   3.537 -0.5430  0.5904 -0.4912
10495TIP3    H152900   1.074   4.080   3.471 -1.0969  0.9961  0.2121
10495TIP3    H252901   1.063   4.025   3.612 -1.0949 -2.4398 -1.0706
10496TIP3   OH252902   1.152   1.099   5.705  0.2180 -0.3953  0.4232
10496TIP3    H152903   1.076   1.100   5.647  1.4346  0.4864 -1.1838
10496TIP3    H252904   1.121   1.138   5.787 -0.6501  1.3840 -0.7402
10497TIP3   OH252905   2.350   0.714   1.239  0.7771  0.5959 -0.4064
10497TIP3    H152906   2.407   0.749   1.170  3.0719 -0.4075  0.9254
10497TIP3    H252907   2.408   0.701   1.314 -1.0997 -1.0150  0.8172
10498TIP3   OH252908   2.014   0.677  16.291 -0.3624  0.1407  0.3654
10498TIP3    H152909   2.018   0.582  16.306  0.5514  0.0602 -0.2886
10498TIP3    H252910   1.921   0.696  16.282 -0.5874 -0.6201  0.9702
10499TIP3   OH252911   1.567   2.989  12.620  0.1570 -0.6640  0.6177
10499TIP3    H152912   1.616   2.987  12.538 -0.7839 -1.1914  0.0471
10499TIP3    H252913   1.550   2.897  12.640 -1.6893 -0.4643  0.1127
10500TIP3   OH252914   6.515   1.156  16.069  0.0726  0.4780  0.2848
10500TIP3    H152915   6.566   1.216  16.124  0.9939 -0.4036  0.4053
10500TIP3    H252916   6.578   1.123  16.005 -0.3529 -0.5866  0.4030
10501TIP3   OH252917   1.847   0.889   0.660  0.1476 -0.4000  0.5571
10501TIP3    H152918   1.821   0.977   0.631  2.3089  1.1395  3.0104
10501TIP3    H252919   1.941   0.885   0.642  0.3736 -1.6114  1.9523
10502TIP3   OH252920   1.180   5.899   3.748 -0.1419  0.8273 -0.2748
10502TIP3    H152921   1.145   5.899   3.837  0.1853  2.1499 -0.1336
10502TIP3    H252922   1.123   5.839   3.700 -2.3843  2.6049  0.0539
10503TIP3   OH252923   6.381   0.865   5.079 -1.0655  1.1788  0.2224
10503TIP3    H152924   6.425   0.914   5.149 -0.7654  1.2981 -0.0462
10503TIP3    H252925   6.375   0.928   5.007  0.9489  0.2757 -0.7611
10504TIP3   OH252926   2.791   5.750   2.010  0.2471  0.1018 -0.1488
10504TIP3    H152927   2.790   5.672   1.955 -0.0134  1.3480 -1.9656
10504TIP3    H252928   2.883   5.778   2.009 -0.0105  0.9469 -1.1748
10505TIP3   OH252929   4.562   3.539   1.763 -0.0863 -0.4232 -0.0445
10505TIP3    H152930   4.606   3.491   1.833 -0.4934  1.0559  1.2510
10505TIP3    H252931   4.631   3.587   1.719  0.1266 -1.1248 -0.4920
10506TIP3   OH252932   2.935   2.524  12.368  0.3408 -0.3566 -0.0378
10506TIP3    H152933   2.890   2.524  12.452 -1.3129  0.2278 -0.9239
10506TIP3    H252934   2.941   2.431  12.344  0.1815 -0.4734  0.3707
10507TIP3   OH252935   1.948   3.890  10.790  0.1109 -0.1769  0.3644
10507TIP3    H152936   2.016   3.824  10.805  0.7771  0.5390  0.5113
10507TIP3    H252937   1.887   3.878  10.863 -0.8442 -1.9386 -0.6576
10508TIP3   OH252938   6.414   6.003   4.817  0.2506 -0.5955  0.0237
10508TIP3    H152939   6.383   6.031   4.903  0.9140 -3.1169  1.1301
10508TIP3    H252940   6.336   5.975   4.770  0.1278 -1.2052  0.5880
10509TIP3   OH252941   1.518   4.853   2.998 -0.1146 -0.1474 -0.4831
10509TIP3    H152942   1.497   4.761   2.980 -0.7669  0.2365 -1.7608
10509TIP3    H252943   1.586   4.849   3.066  0.5136 -1.5931 -1.1643
10510TIP3   OH252944   3.592   2.810   1.494  0.0246 -0.3907 -0.5007
10510TIP3    H152945   3.566   2.766   1.575  0.0351 -1.0265 -0.8397
10510TIP3    H252946   3.511   2.851   1.462 -0.0744 -0.5128 -0.4065
10511TIP3   OH252947   3.448   2.301   4.719 -0.1944 -0.1833 -0.2048
10511TIP3    H152948   3.380   2.344   4.668  0.5773  1.3846  0.0641
10511TIP3    H252949   3.530   2.336   4.684  0.3407  1.2618  2.3653
10512TIP3   OH252950   5.680   6.036   5.272 -0.4476 -0.0997  1.0974
10512TIP3    H152951   5.716   6.116   5.235  1.3341 -1.3699 -0.0208
10512TIP3    H252952   5.723   6.027   5.357  3.1524 -2.3825 -0.8548
10513TIP3   OH252953   4.052   3.488   1.503  0.2233  0.0464 -0.2275
10513TIP3    H152954   4.130   3.433   1.499  0.1170 -0.0165 -2.3669
10513TIP3    H252955   4.025   3.497   1.411 -2.0643  0.3638  0.4434
10514TIP3   OH252956   1.276   5.838   1.373 -0.4762 -0.3758  0.4461
10514TIP3    H152957   1.277   5.923   1.331  0.0016 -1.5378 -1.9598
10514TIP3    H252958   1.329   5.849   1.452  0.8385  1.1485 -0.6422
10515TIP3   OH252959   2.640   5.007   0.980  0.4513  0.2076  0.0569
10515TIP3    H152960   2.711   5.000   0.917 -0.0556  1.1878 -0.6354
10515TIP3    H252961   2.679   5.053   1.055  1.3439 -1.9003  0.9319
10516TIP3   OH252962   0.782   2.611  12.331  0.4613 -0.0837 -0.0610
10516TIP3    H152963   0.700   2.661  12.326  0.3477 -0.2811 -0.1924
10516TIP3    H252964   0.848   2.668  12.291  0.6342  0.5929  1.1638
10517TIP3   OH252965   4.068   4.850   6.267  0.5334 -0.2431  0.6956
10517TIP3    H152966   4.061   4.923   6.205 -0.3330 -0.0302  1.0397
10517TIP3    H252967   4.145   4.870   6.319  0.2746  0.4509  0.8171
10518TIP3   OH252968   3.461   2.871   0.988  1.3403 -0.1445 -0.2967
10518TIP3    H152969   3.384   2.834   0.945  1.2130 -1.4782  1.0392
10518TIP3    H252970   3.445   2.966   0.989 -0.8594 -0.5132  1.0897
10519TIP3   OH252971   3.016   3.058   2.484 -0.4216 -0.4383  0.1931
10519TIP3    H152972   2.921   3.050   2.491 -0.5954  2.4303  1.8826
10519TIP3    H252973   3.029   3.140   2.437  1.2087  0.1876  1.6957
10520TIP3   OH252974   2.366   2.005   0.874 -0.3345  0.3924  0.1426
10520TIP3    H152975   2.458   2.031   0.870  0.0692 -0.9876  0.2176
10520TIP3    H252976   2.367   1.920   0.918 -1.3756 -0.9154 -2.2526
10521TIP3   OH252977   0.707   2.238   2.274 -0.1442 -0.4998 -0.3795
10521TIP3    H152978   0.771   2.174   2.243  1.4828  1.5418 -1.3586
10521TIP3    H252979   0.705   2.228   2.369  1.1509 -1.0323 -0.4117
10522TIP3   OH252980   2.247   3.573   5.536 -0.8640 -0.4458  0.1978
10522TIP3    H152981   2.311   3.638   5.508 -2.2906  0.5036 -0.8816
10522TIP3    H252982   2.289   3.489   5.517  0.2735  0.1603 -0.0162
10523TIP3   OH252983   1.055   6.040  15.044  0.4525  0.0345 -0.2104
10523TIP3    H152984   0.985   6.100  15.068  0.5241 -0.4230  1.1876
10523TIP3    H252985   1.013   5.978  14.984 -0.4253 -0.3898  0.8197
10524TIP3   OH252986   3.929   0.347  16.036  0.1623  0.0972  0.4911
10524TIP3    H152987   3.920   0.302  15.952 -1.4005  0.1674  0.6129
10524TIP3    H252988   3.927   0.440  16.014 -0.7827  0.1166  0.6641
10525TIP3   OH252989   1.913   3.653   0.794 -0.1279 -0.0290 -0.0152
10525TIP3    H152990   1.854   3.679   0.865 -2.2318 -1.1091 -1.3349
10525TIP3    H252991   1.895   3.561   0.779  0.6459  0.0529 -1.6088
10526TIP3   OH252992   4.359   1.906  11.384  0.1845 -0.0300 -0.5856
10526TIP3    H152993   4.372   1.859  11.466 -0.2242  0.9860  0.0704
10526TIP3    H252994   4.427   1.973  11.384 -0.5619  0.7360 -0.5030
10527TIP3   OH252995   1.318   4.415  15.959 -0.3358 -0.0665 -0.3189
10527TIP3    H152996   1.376   4.468  15.906  0.7206 -0.3109  0.5859
10527TIP3    H252997   1.249   4.475  15.987 -0.5185  0.2206 -1.3850
10528TIP3   OH252998   2.861   2.060   4.927 -0.0450  0.5807 -0.0027
10528TIP3    H152999   2.811   2.092   4.852 -0.7237 -0.2795  0.0792
10528TIP3    H253000   2.808   2.083   5.003 -0.1738 -0.0537  0.1031
10529TIP3   OH253001   1.587   5.591   3.252 -0.4129  0.6699  0.1842
10529TIP3    H153002   1.601   5.523   3.318 -2.1786  0.5213  0.4213
10529TIP3    H253003   1.675   5.612   3.221  0.3249 -0.2692  1.5695
10530TIP3   OH253004   1.846   0.650  13.044  0.8494 -0.5477  0.3335
10530TIP3    H153005   1.867   0.743  13.056  0.3314 -0.2975 -0.6322
10530TIP3    H253006   1.931   0.606  13.048  1.1123 -0.0160  0.6718
10531TIP3   OH253007   4.027   2.115   3.739 -0.1811  0.3406 -0.6354
10531TIP3    H153008   4.093   2.184   3.730  1.2744 -1.1612 -1.7144
10531TIP3    H253009   4.073   2.042   3.781 -1.6304 -0.0969  0.2626
10532TIP3   OH253010   5.156   1.246  16.226 -0.4146  0.4761  0.1567
10532TIP3    H153011   5.228   1.222  16.284  0.7177  1.1499 -0.9486
10532TIP3    H253012   5.168   1.192  16.148 -1.1669  0.5263 -0.0040
10533TIP3   OH253013   6.238   2.706  13.472 -0.4466  0.2813  0.0177
10533TIP3    H153014   6.154   2.751  13.475 -0.2596  0.7084 -1.0375
10533TIP3    H253015   6.274   2.726  13.386  0.5630 -0.2207  0.3042
10534TIP3   OH253016   6.734   1.210  12.306  0.2460  0.5022  0.3773
10534TIP3    H153017   6.792   1.134  12.312  0.1618  0.4876  1.0274
10534TIP3    H253018   6.752   1.248  12.220  0.7520  0.1192  0.3179
10535TIP3   OH253019   4.191   0.807   4.970 -0.3578  0.2991 -0.4059
10535TIP3    H153020   4.113   0.760   4.998 -1.1606  1.2116 -1.1187
10535TIP3    H253021   4.217   0.858   5.046 -1.0624  0.8026 -0.5017
10536TIP3   OH253022   0.438   2.104  16.530 -0.3243 -0.0386  0.5073
10536TIP3    H153023   0.463   2.189  16.493 -1.5824 -0.2215 -0.8186
10536TIP3    H253024   0.342   2.105  16.529 -0.3650 -0.7441  2.2075
10537TIP3   OH253025   2.030   1.228   2.843 -0.1106 -0.2688  0.1868
10537TIP3    H153026   1.997   1.313   2.871 -2.0847 -0.8336 -0.3472
10537TIP3    H253027   1.964   1.195   2.782  0.6531 -2.1484  0.3213
10538TIP3   OH253028   4.345   4.826  11.341  1.0168 -0.2932 -0.7771
10538TIP3    H153029   4.407   4.867  11.281  1.3277 -2.2098 -1.8031
10538TIP3    H253030   4.282   4.782  11.283 -1.7849  2.2405  0.2006
10539TIP3   OH253031   5.762   5.922  14.973  1.3669 -0.6683  0.9946
10539TIP3    H153032   5.788   5.935  14.882  1.4357 -2.1024  0.7902
10539TIP3    H253033   5.677   5.966  14.980  0.5438 -1.9992 -0.2300
10540TIP3   OH253034   4.414   0.358  16.915 -0.0301 -0.6109  0.2948
10540TIP3    H153035   4.328   0.340  16.878 -0.2124  0.4062  0.1909
10540TIP3    H253036   4.460   0.408  16.846  0.4446 -0.6776  0.5581
10541TIP3   OH253037   3.019   1.786  12.785 -0.8655  0.4734  0.0967
10541TIP3    H153038   3.035   1.872  12.824 -2.9890  1.2933 -0.7694
10541TIP3    H253039   2.965   1.741  12.850  1.3806 -0.7582  1.1711
10542TIP3   OH253040   0.998   4.338   1.894  1.1291 -0.4003 -0.0075
10542TIP3    H153041   0.987   4.310   1.803  1.8059 -0.3476 -0.1119
10542TIP3    H253042   1.075   4.394   1.892 -0.2725  1.5741  0.1731
10543TIP3   OH253043   6.461   2.268  16.974 -0.1998  0.3251  0.4358
10543TIP3    H153044   6.465   2.216  17.054  0.3441  0.9943  0.8449
10543TIP3    H253045   6.470   2.359  17.004  1.8612  0.4714 -0.5498
10544TIP3   OH253046   4.387   5.496   3.700  0.4531 -0.0867  0.0277
10544TIP3    H153047   4.306   5.543   3.720 -1.2684 -3.1115  0.6077
10544TIP3    H253048   4.391   5.427   3.767  1.8198 -1.9401 -1.9043
10545TIP3   OH253049   0.484   6.368   5.376 -0.1605  0.3605  0.2235
10545TIP3    H153050   0.482   6.367   5.471 -0.9788 -0.1418  0.2083
10545TIP3    H253051   0.569   6.330   5.353 -0.4425 -0.6091  0.7478
10546TIP3   OH253052   4.947   2.593   3.436  0.0816 -0.1280  0.3067
10546TIP3    H153053   4.966   2.687   3.427  0.1802 -0.1460  0.3300
10546TIP3    H253054   5.033   2.552   3.441  0.0355 -0.0119  2.3679
10547TIP3   OH253055   1.193   3.417  15.463  0.2730 -0.4484 -0.2498
10547TIP3    H153056   1.151   3.481  15.520  2.2260  0.2273  0.4664
10547TIP3    H253057   1.247   3.469  15.404  0.4326 -1.3304 -0.8963
10548TIP3   OH253058   3.992   2.632  17.221 -0.0375  0.2787  0.1229
10548TIP3    H153059   3.907   2.589  17.227  0.3284 -0.3682  0.9033
10548TIP3    H253060   4.019   2.621  17.130  1.9449 -4.9400  1.1366
10549TIP3   OH253061   2.748   1.103   4.748 -0.0740 -0.0032  0.9168
10549TIP3    H153062   2.676   1.081   4.807 -1.2802 -1.0103 -0.8931
10549TIP3    H253063   2.716   1.079   4.661  1.3650  2.1648 -0.2614
10550TIP3   OH253064   5.239   6.011   5.304 -0.5790 -0.0849 -0.1816
10550TIP3    H153065   5.263   5.978   5.390 -0.8378 -2.1203 -0.8618
10550TIP3    H253066   5.145   5.998   5.298 -0.6574  0.5989 -0.5467
10551TIP3   OH253067   0.832   1.662   1.586 -0.6141 -0.1074  0.3141
10551TIP3    H153068   0.800   1.748   1.558  0.5033  0.0433 -0.5536
10551TIP3    H253069   0.912   1.682   1.635 -0.9865 -0.5801  1.1312
10552TIP3   OH253070   2.278   3.092   1.722  0.0960 -0.1658 -0.5993
10552TIP3    H153071   2.276   3.186   1.739  2.0690  0.3363 -2.9189
10552TIP3    H253072   2.274   3.085   1.626  2.0762 -2.3357 -0.5641
10553TIP3   OH253073   6.620   2.486   2.696 -0.4479 -0.2699  0.4170
10553TIP3    H153074   6.713   2.498   2.677 -0.5815 -0.1119 -0.1769
10553TIP3    H253075   6.589   2.574   2.720 -0.7191 -0.0427 -0.6920
10554TIP3   OH253076   2.450   0.466   3.227 -0.2934 -0.1440  1.0496
10554TIP3    H153077   2.494   0.440   3.307 -0.0377  0.7267  1.1993
10554TIP3    H253078   2.385   0.398   3.212  1.0392 -1.3930  0.8655
10555TIP3   OH253079   0.967   5.538   1.096 -0.7550 -0.7193 -0.3167
10555TIP3    H153080   0.972   5.505   1.006  1.5148  0.2571 -0.5757
10555TIP3    H253081   1.056   5.568   1.116 -1.5831  0.4825  1.7276
10556TIP3   OH253082   0.646   1.742   6.794  0.2257 -0.0944 -0.1602
10556TIP3    H153083   0.629   1.813   6.732  1.3623  0.1040 -0.2664
10556TIP3    H253084   0.569   1.686   6.789 -0.9964  1.4744  0.3971
10557TIP3   OH253085   5.471   0.378   0.226 -0.0567  0.2187  0.0090
10557TIP3    H153086   5.538   0.439   0.258  0.7145 -0.6104 -0.0108
10557TIP3    H253087   5.512   0.292   0.231  0.6164  0.1614 -4.5803
10558TIP3   OH253088   2.059   3.307  16.500  0.1835  0.5961  0.3505
10558TIP3    H153089   2.103   3.282  16.581 -0.5352  1.0525  0.8891
10558TIP3    H253090   1.967   3.317  16.524  0.1586  1.9922 -0.2393
10559TIP3   OH253091   2.195   3.853   6.696 -0.8329  0.7437 -0.1409
10559TIP3    H153092   2.148   3.922   6.649 -0.0538 -0.3521 -2.5937
10559TIP3    H253093   2.285   3.886   6.702 -0.8265  0.6720  0.1675
10560TIP3   OH253094   2.617   1.040  11.788 -0.1963 -0.4259  0.1155
10560TIP3    H153095   2.691   1.083  11.747 -0.3387  0.7471  1.0647
10560TIP3    H253096   2.605   0.959  11.738  1.3740 -0.3651 -0.3740
10561TIP3   OH253097   0.597   1.450  11.289  0.2026 -0.4548 -0.1082
10561TIP3    H153098   0.581   1.373  11.234  0.6959 -0.7410  0.1477
10561TIP3    H253099   0.540   1.437  11.365 -1.1490  0.3813 -0.9628
10562TIP3   OH253100   2.995   0.375   1.250 -0.5039 -0.2705  0.1474
10562TIP3    H153101   3.090   0.371   1.255 -0.3757 -0.9120 -2.4920
10562TIP3    H253102   2.965   0.320   1.322  1.1182 -0.7913  0.4460
10563TIP3   OH253103   5.653   2.441  12.684 -0.2361  0.1029 -0.3832
10563TIP3    H153104   5.585   2.378  12.709  1.0158 -1.0694  0.1387
10563TIP3    H253105   5.640   2.515  12.743 -0.4813 -0.5126  0.3419
10564TIP3   OH253106   3.660   5.326   3.491  0.1173  0.2005 -0.0315
10564TIP3    H153107   3.677   5.407   3.442 -0.8920  0.5187  0.1407
10564TIP3    H253108   3.593   5.281   3.441  2.0252 -1.4554 -1.1451
10565TIP3   OH253109   5.774   0.773   1.061 -0.0983 -0.3621  1.3233
10565TIP3    H153110   5.683   0.745   1.058  0.2960 -1.5719  0.1396
10565TIP3    H253111   5.771   0.860   1.100 -1.8242 -0.1107  0.6610
10566TIP3   OH253112   2.356   2.504   6.490 -0.1936  0.1304 -0.3148
10566TIP3    H153113   2.404   2.447   6.550 -2.5897  1.8866  3.4982
10566TIP3    H253114   2.408   2.584   6.487 -0.2362  0.1626 -0.2332
10567TIP3   OH253115   1.314   5.708   4.028 -0.2110  0.1841 -0.2846
10567TIP3    H153116   1.222   5.734   4.025 -0.2498 -0.0347 -0.8780
10567TIP3    H253117   1.362   5.791   4.031 -0.4790  0.2958  1.6112
10568TIP3   OH253118   1.996   4.140  15.353 -0.5921 -0.1923  0.4258
10568TIP3    H153119   2.017   4.059  15.399  1.5634  0.3224  0.4009
10568TIP3    H253120   2.055   4.205  15.391 -0.2704  0.7078 -1.5723
10569TIP3   OH253121   5.354   0.395   2.178  0.1471 -0.1944  0.6159
10569TIP3    H153122   5.425   0.342   2.214 -0.7453 -0.9282  1.3285
10569TIP3    H253123   5.310   0.432   2.254 -0.8209 -0.5132  0.2187
10570TIP3   OH253124   1.102   4.860   1.815  0.6132 -0.4361 -0.0535
10570TIP3    H153125   1.080   4.839   1.724  0.7694 -0.7174 -0.0246
10570TIP3    H253126   1.196   4.842   1.822  0.7999  0.4793 -0.0957
10571TIP3   OH253127   1.543   3.244  11.711  0.2125 -0.0427  0.4588
10571TIP3    H153128   1.601   3.207  11.778  1.8269 -0.1794 -0.9815
10571TIP3    H253129   1.455   3.222  11.742  0.9931 -1.7450  1.5839
10572TIP3   OH253130   0.314   3.201  14.720  0.4386 -0.4226 -0.3506
10572TIP3    H153131   0.341   3.196  14.812 -1.6536 -1.8117  0.2085
10572TIP3    H253132   0.240   3.261  14.720  0.5862 -0.2309 -1.1954
10573TIP3   OH253133   5.428   6.711  13.988  0.0117 -0.1245  0.0351
10573TIP3    H153134   5.454   6.772  14.057  0.7254 -0.1614 -0.1898
10573TIP3    H253135   5.510   6.669  13.961 -0.4310 -0.9748 -0.0125
10574TIP3   OH253136   2.131   1.949   5.429 -0.0137 -0.7600  0.3865
10574TIP3    H153137   2.115   1.947   5.523 -1.7067  3.9359  0.3270
10574TIP3    H253138   2.119   2.040   5.404  1.4289 -1.6813 -4.2488
10575TIP3   OH253139   4.977   0.097  15.130  0.2086 -0.0608  0.6544
10575TIP3    H153140   5.015   0.020  15.088 -0.9848 -0.6909  0.7001
10575TIP3    H253141   4.979   0.165  15.063  1.6546 -0.0103  0.7478
10576TIP3   OH253142   0.409   0.029   3.281  0.1142  0.3941 -0.7614
10576TIP3    H153143   0.492  -0.011   3.256  0.3632  0.0202  0.6297
10576TIP3    H253144   0.413   0.119   3.247  1.0411  0.3406 -0.7830
10577TIP3   OH253145   5.091   3.191  12.989 -0.2750 -0.6380  0.1391
10577TIP3    H153146   5.164   3.187  13.051 -0.7422 -0.0782  0.7409
10577TIP3    H253147   5.065   3.100  12.976 -0.5178 -0.7313  1.2011
10578TIP3   OH253148   3.707   5.327   3.059  0.0405 -0.1138 -0.1721
10578TIP3    H153149   3.772   5.376   3.109 -0.5593  0.9503 -0.4217
10578TIP3    H253150   3.626   5.337   3.109 -0.7348  1.5858 -1.7413
10579TIP3   OH253151   5.638   0.646   3.195  0.6877  0.5362 -0.8179
10579TIP3    H153152   5.707   0.709   3.217 -0.3513  1.2924  0.4041
10579TIP3    H253153   5.682   0.562   3.189  1.7634  1.0559 -0.3049
10580TIP3   OH253154   4.976   6.081   0.453  0.5937  0.2723 -0.2356
10580TIP3    H153155   4.968   5.999   0.405 -0.4969 -0.1413  0.6460
10580TIP3    H253156   5.059   6.119   0.422  0.9794 -1.0272 -0.8189
10581TIP3   OH253157   0.789   2.307  14.592 -0.1801  0.0252 -0.5427
10581TIP3    H153158   0.879   2.340  14.594 -0.2298  0.0949  1.6608
10581TIP3    H253159   0.735   2.386  14.591 -0.2497 -0.0108  0.5478
10582TIP3   OH253160   0.805   5.274   6.577 -0.5184  0.2623  0.9198
10582TIP3    H153161   0.779   5.193   6.621  1.2928 -0.9180 -0.1108
10582TIP3    H253162   0.755   5.273   6.495 -0.6692  0.2948  1.0116
10583TIP3   OH253163   5.784   2.720  13.512 -0.2108 -0.1385 -0.6490
10583TIP3    H153164   5.798   2.628  13.533 -0.6383 -0.0471  0.0456
10583TIP3    H253165   5.691   2.735  13.529 -0.5287  0.0037 -2.3669
10584TIP3   OH253166   0.283   4.443   2.575  0.0846 -0.5540 -0.2139
10584TIP3    H153167   0.374   4.426   2.599  0.7715 -0.2800 -2.5263
10584TIP3    H253168   0.265   4.531   2.608 -0.0281 -1.4080  2.1008
10585TIP3   OH253169   4.243   2.488   0.110  0.2846 -0.2539 -0.1770
10585TIP3    H153170   4.169   2.536   0.073  1.1376  0.1488 -1.3989
10585TIP3    H253171   4.238   2.401   0.070  0.1232 -0.4176  0.1997
10586TIP3   OH253172   0.804   5.891  13.345  0.2900  0.4920 -0.7375
10586TIP3    H153173   0.860   5.931  13.278  1.1443  3.2693  1.5234
10586TIP3    H253174   0.715   5.904  13.313  0.6384  2.8640 -0.8206
10587TIP3   OH253175   5.872   3.241   6.451  0.1911  0.2627 -0.3792
10587TIP3    H153176   5.929   3.295   6.396 -0.3221  0.0411 -1.1412
10587TIP3    H253177   5.906   3.152   6.440  1.3467  0.4785  1.2670
10588TIP3   OH253178   1.406   6.074  14.000 -0.4942 -0.1778  0.3358
10588TIP3    H153179   1.363   5.990  13.982  0.2390 -0.5922  0.5076
10588TIP3    H253180   1.485   6.050  14.049 -1.6438  0.7787  2.7883
10589TIP3   OH253181   0.257   3.055  16.157 -0.2699  0.0802  0.3259
10589TIP3    H153182   0.229   3.107  16.232 -1.2386  0.6836 -0.4521
10589TIP3    H253183   0.219   2.968  16.172  0.5270 -0.1400  1.1230
10590TIP3   OH253184   3.063   3.853  13.155  0.1808  0.5013  0.8737
10590TIP3    H153185   2.970   3.865  13.138  0.0499  1.2762  2.0361
10590TIP3    H253186   3.081   3.908  13.231  1.2560 -0.8213  1.6212
10591TIP3   OH253187   0.702   5.276   0.282  0.5332 -0.5572  0.3461
10591TIP3    H153188   0.650   5.221   0.340 -0.1171  0.8177  1.0895
10591TIP3    H253189   0.699   5.231   0.197  0.0909 -1.6965  0.9561
10592TIP3   OH253190   2.722   1.887  13.293 -0.3423 -0.0397  0.4247
10592TIP3    H153191   2.674   1.968  13.309 -0.5024 -0.3920  1.7844
10592TIP3    H253192   2.691   1.827  13.362  0.7454 -0.8231  0.2372
10593TIP3   OH253193   0.969   1.651   3.651  0.6464  0.3906  0.0303
10593TIP3    H153194   0.923   1.660   3.735 -0.8022 -1.2011 -0.5765
10593TIP3    H253195   1.028   1.577   3.664  1.1968  0.8104 -0.0328
10594TIP3   OH253196   2.877   5.003   2.895  0.0006 -0.1914 -0.5458
10594TIP3    H153197   2.788   4.969   2.894 -0.3786  0.8011 -1.3513
10594TIP3    H253198   2.922   4.958   2.823 -0.1165  0.0175 -0.7483
10595TIP3   OH253199   6.083   1.497   4.481  0.1539  0.0452 -0.1737
10595TIP3    H153200   5.999   1.487   4.436 -0.2709 -0.4240  0.7159
10595TIP3    H253201   6.147   1.509   4.410 -0.3279 -1.9024 -0.9496
10596TIP3   OH253202   4.641   1.872  15.032  0.3984 -0.3790  0.1724
10596TIP3    H153203   4.576   1.850  14.965  0.6438 -2.2396  0.5194
10596TIP3    H253204   4.668   1.787  15.068  0.6850  0.5640  2.2358
10597TIP3   OH253205   5.104   3.885   6.426 -0.3368  0.5263  0.0970
10597TIP3    H153206   5.103   3.795   6.393  0.0909  0.2324  0.8811
10597TIP3    H253207   5.138   3.878   6.515  1.1102  1.6308 -0.3439
10598TIP3   OH253208   6.594   4.948  16.283  0.0008  0.0106  0.5575
10598TIP3    H153209   6.508   4.910  16.263 -0.1167  0.5617  0.0242
10598TIP3    H253210   6.655   4.895  16.232 -0.0818  0.0236  0.4444
10599TIP3   OH253211   4.497   5.852   1.350  0.1706 -0.3435  0.0763
10599TIP3    H153212   4.544   5.817   1.426  0.3506  2.4208  1.3068
10599TIP3    H253213   4.407   5.864   1.382 -0.1590 -0.7623 -0.6848
10600TIP3   OH253214   2.277   0.115  12.407  0.1494  1.1668  0.0606
10600TIP3    H153215   2.204   0.177  12.400 -0.9093 -0.1271 -0.5795
10600TIP3    H253216   2.332   0.134  12.331 -0.4236  1.0068 -0.3993
10601TIP3   OH253217   6.085   6.278   0.076 -0.1886  0.1171 -0.7793
10601TIP3    H153218   6.051   6.190   0.091  1.8026 -0.5876 -0.1245
10601TIP3    H253219   6.116   6.276  -0.015  0.9653 -0.2868 -0.3981
10602TIP3   OH253220   4.972   2.060   6.117 -0.4351  0.0540  0.1228
10602TIP3    H153221   4.977   2.147   6.078  0.8724 -0.5857 -1.2016
10602TIP3    H253222   4.882   2.032   6.103 -0.4443  0.5637 -0.8432
10603TIP3   OH253223   3.423   6.110  12.046  0.9225 -0.2123 -0.5459
10603TIP3    H153224   3.479   6.047  12.000  0.9448 -0.4541 -0.1835
10603TIP3    H253225   3.354   6.058  12.086  0.8209  0.0137 -0.4212
10604TIP3   OH253226   5.985   1.352  14.409 -0.3531  0.4628  0.0772
10604TIP3    H153227   5.925   1.293  14.453 -1.1622  0.8062 -0.5394
10604TIP3    H253228   6.027   1.401  14.479  0.0125 -0.5499  0.5666
10605TIP3   OH253229   4.718   3.713   5.888 -0.1580  0.4943 -0.0604
10605TIP3    H153230   4.696   3.804   5.909 -1.1632  0.2640 -0.0534
10605TIP3    H253231   4.752   3.678   5.970  2.3952  1.4872 -0.6646
10606TIP3   OH253232   3.794   4.965   4.214  0.0711 -0.2318 -0.1964
10606TIP3    H153233   3.755   4.917   4.287 -0.4100  0.7362  0.1863
10606TIP3    H253234   3.888   4.968   4.235  0.0431 -0.6246 -0.0072
10607TIP3   OH253235   4.388   1.968  16.688 -0.6626  0.6884 -0.0982
10607TIP3    H153236   4.470   1.922  16.669 -0.5278  0.1230  1.7702
10607TIP3    H253237   4.408   2.060  16.672  0.3132  0.5431  0.2584
10608TIP3   OH253238   4.516   2.107   3.317  0.6836 -0.2047  0.4096
10608TIP3    H153239   4.483   2.029   3.273  1.8227 -0.5439  0.1443
10608TIP3    H253240   4.494   2.095   3.409  3.0523 -2.0107  0.7817
10609TIP3   OH253241   0.426   5.028  15.768 -0.3625  0.3792 -0.3671
10609TIP3    H153242   0.340   4.996  15.738 -0.1911  1.0543 -1.5837
10609TIP3    H253243   0.407   5.070  15.852 -1.0780 -0.2652 -0.1951
10610TIP3   OH253244   1.957   3.392  12.334  0.4924  0.1991  0.0936
10610TIP3    H153245   2.050   3.407  12.320  0.0706  0.7540 -2.3521
10610TIP3    H253246   1.929   3.463  12.392  1.3506  0.6915 -0.0953
10611TIP3   OH253247   2.034   0.629  11.487  0.0521 -0.1696  0.4726
10611TIP3    H153248   1.981   0.551  11.473  0.1103 -0.7094  2.9842
10611TIP3    H253249   2.069   0.650  11.401 -2.2315 -1.2548 -0.7638
10612TIP3   OH253250   6.052   1.273   4.662 -0.7733  0.4802  0.4975
10612TIP3    H153251   6.089   1.360   4.648  0.5638  0.2214  2.2203
10612TIP3    H253252   6.122   1.213   4.639 -1.0134 -0.0924  1.2453
10613TIP3   OH253253   1.288   6.671  12.636 -0.5918 -0.4866 -0.0768
10613TIP3    H153254   1.201   6.655  12.672 -0.6382 -0.8704 -0.3610
10613TIP3    H253255   1.347   6.621  12.692 -0.2562  1.9049  1.7739
10614TIP3   OH253256   6.733   1.654   0.871  0.1793 -0.1569 -0.3980
10614TIP3    H153257   6.692   1.591   0.812  0.6513 -1.5280  0.7155
10614TIP3    H253258   6.732   1.611   0.956  0.6318  1.2955  0.3569
10615TIP3   OH253259   6.675   5.450   0.037 -0.2233 -0.8838 -0.5224
10615TIP3    H153260   6.760   5.488   0.017 -1.1481  1.5028 -0.1146
10615TIP3    H253261   6.693   5.358   0.055  2.3235 -0.3063  0.0335
10616TIP3   OH253262   3.535   1.221   3.689  0.0394 -0.5253 -0.0250
10616TIP3    H153263   3.479   1.293   3.719 -0.1232 -1.0473  0.9330
10616TIP3    H253264   3.490   1.142   3.719 -0.1086 -1.0558 -1.6268
10617TIP3   OH253265   0.494   4.333   4.075 -0.1993 -0.1546 -0.1263
10617TIP3    H153266   0.424   4.284   4.118 -0.8221  1.1984  0.4283
10617TIP3    H253267   0.569   4.275   4.076 -1.5245 -1.9571 -1.4299
10618TIP3   OH253268   2.850   3.003  10.992  0.4242  0.9914  0.0598
10618TIP3    H153269   2.883   3.038  10.909  3.0168 -0.2530  0.5160
10618TIP3    H253270   2.755   3.018  10.988  0.2826 -0.2226 -3.7130
10619TIP3   OH253271   0.739   0.504  16.025  0.2717  0.3920 -0.5425
10619TIP3    H153272   0.680   0.442  15.982  1.4231  0.5246 -2.3872
10619TIP3    H253273   0.707   0.590  15.998  0.0802  0.5288  0.1146
10620TIP3   OH253274   4.381   5.223  16.185 -0.6021 -0.0985 -0.2892
10620TIP3    H153275   4.430   5.221  16.102 -1.7743 -1.2946 -0.9746
10620TIP3    H253276   4.331   5.304  16.182  1.4810  1.2656  0.5282
10621TIP3   OH253277   0.987   6.445   1.244 -0.0071  0.0954 -0.1992
10621TIP3    H153278   0.892   6.440   1.256  0.1087  2.8586  2.3483
10621TIP3    H253279   1.021   6.374   1.299 -0.5575 -0.9195 -1.1384
10622TIP3   OH253280   3.831   0.992   0.862 -0.2287  0.0069 -0.0124
10622TIP3    H153281   3.810   0.982   0.955 -0.8863  0.2517 -0.1348
10622TIP3    H253282   3.813   0.905   0.825  0.1456 -0.1243  0.1057
10623TIP3   OH253283   2.689   5.577  15.836 -0.3570  0.2484  1.0830
10623TIP3    H153284   2.637   5.545  15.762  1.0113  0.2175  0.1237
10623TIP3    H253285   2.716   5.665  15.809  0.0251  0.2928  1.6107
10624TIP3   OH253286   3.587   2.162  14.733 -0.1307  0.2855 -0.2967
10624TIP3    H153287   3.658   2.197  14.786 -0.1161  0.5271 -0.4723
10624TIP3    H253288   3.615   2.073  14.711  0.5653  0.7089 -1.1703
10625TIP3   OH253289   2.975   1.504   2.002 -0.0902  0.0377  0.6199
10625TIP3    H153290   2.906   1.521   1.937  0.0231  1.1640  0.7708
10625TIP3    H253291   2.929   1.497   2.085 -0.4350 -3.2667  0.2055
10626TIP3   OH253292   0.477   6.018   5.359 -0.0247  0.3899  0.3713
10626TIP3    H153293   0.526   6.100   5.355  2.0395 -0.6827  2.3119
10626TIP3    H253294   0.394   6.040   5.401  1.3666  1.1255  2.8023
10627TIP3   OH253295   0.847   3.478   1.586 -0.2316 -0.2444 -0.1205
10627TIP3    H153296   0.858   3.573   1.589 -1.1308 -0.1508  0.1671
10627TIP3    H253297   0.888   3.446   1.666  0.7770 -0.1765 -0.5963
10628TIP3   OH253298   4.547   2.662  15.852  0.3971 -0.2900  0.0429
10628TIP3    H153299   4.549   2.674  15.757 -1.5905 -0.2226 -0.0185
10628TIP3    H253300   4.636   2.682  15.881  0.4243  2.0644 -1.5319
10629TIP3   OH253301   5.028   3.261  14.768 -0.0002  0.4521  0.4170
10629TIP3    H153302   5.021   3.169  14.741 -2.2757  1.0135 -0.9785
10629TIP3    H253303   4.979   3.265  14.850  1.7193  0.0545  1.5004
10630TIP3   OH253304   2.087   0.203  16.760 -0.3949  0.0970 -0.5014
10630TIP3    H153305   2.125   0.125  16.800 -0.1399  0.3809 -0.1884
10630TIP3    H253306   2.128   0.276  16.806 -1.0899  0.4125 -0.3618
10631TIP3   OH253307   5.020   0.618   6.040  0.3600  0.0295  0.4160
10631TIP3    H153308   4.935   0.661   6.044  0.0623 -0.3715 -1.4978
10631TIP3    H253309   5.055   0.640   5.954  1.7650 -0.6388  0.7906
10632TIP3   OH253310   3.592   4.651  16.490 -0.2237  0.5506  0.2672
10632TIP3    H153311   3.514   4.627  16.441 -0.5700  2.5059 -0.1836
10632TIP3    H253312   3.559   4.697  16.567  0.4530  0.7958  0.4161
10633TIP3   OH253313   2.857   6.318  16.449 -0.4461  0.6192 -0.2826
10633TIP3    H153314   2.926   6.251  16.448 -0.6189  0.4161  0.6965
10633TIP3    H253315   2.817   6.312  16.363 -0.3599 -0.4408 -0.2567
10634TIP3   OH253316   6.398   4.749  11.977  0.0530 -0.0701  0.2222
10634TIP3    H153317   6.433   4.788  11.897 -2.4307 -0.2132 -0.9816
10634TIP3    H253318   6.372   4.660  11.951  0.2553 -0.5053  1.4721
10635TIP3   OH253319   0.365   4.131   2.093  0.6519  0.0265  0.3546
10635TIP3    H153320   0.291   4.097   2.143  1.3317  1.4825  2.4369
10635TIP3    H253321   0.326   4.198   2.036  0.3776  1.0322  1.6891
10636TIP3   OH253322   0.722   0.452  12.873  0.1421 -0.0867  0.1024
10636TIP3    H153323   0.689   0.533  12.834  2.0287 -1.0030 -3.6448
10636TIP3    H253324   0.662   0.384  12.841  1.5992 -0.8307 -1.0918
10637TIP3   OH253325   4.007   1.402   2.666 -0.0421  0.1764 -0.6251
10637TIP3    H153326   3.929   1.457   2.661 -0.6081 -0.6014 -0.4798
10637TIP3    H253327   4.041   1.400   2.576 -0.0938  0.6328 -0.6591
10638TIP3   OH253328   4.179   1.974   3.894  0.1996  0.5587  0.1186
10638TIP3    H153329   4.263   1.992   3.934 -0.1509 -0.2834  1.2585
10638TIP3    H253330   4.154   1.888   3.928 -1.3626  1.0333  0.2177
10639TIP3   OH253331   0.131   3.756  16.337  0.0359  0.3652  0.1132
10639TIP3    H153332   0.193   3.690  16.305  0.1079  1.2053 -1.5051
10639TIP3    H253333   0.182   3.808  16.399  0.3258 -0.3055  0.4505
10640TIP3   OH253334   4.877   0.594  13.520  0.2246  0.3565 -0.3142
10640TIP3    H153335   4.916   0.599  13.607  1.7779  2.6635 -1.0901
10640TIP3    H253336   4.943   0.549  13.467 -1.1755 -2.0500 -0.1180
10641TIP3   OH253337   6.418   2.320  16.252  0.3895  0.3126  0.6872
10641TIP3    H153338   6.330   2.353  16.266 -0.0772 -0.3265 -0.5990
10641TIP3    H253339   6.419   2.235  16.296  0.4168  0.3980  0.8495
10642TIP3   OH253340   6.117   2.083   4.645  0.1757 -0.2552 -0.7414
10642TIP3    H153341   6.057   2.063   4.573 -0.1909 -0.5370 -0.3626
10642TIP3    H253342   6.082   2.035   4.719 -0.5181  1.5243  0.1055
10643TIP3   OH253343   4.832   0.535   1.579  0.1129  0.2871 -0.4474
10643TIP3    H153344   4.769   0.603   1.600 -0.3761 -0.7196  1.5406
10643TIP3    H253345   4.910   0.557   1.630 -0.3571 -1.0685  0.9269
10644TIP3   OH253346   3.707   3.483   2.131  0.8710  0.7131  0.3954
10644TIP3    H153347   3.736   3.544   2.063 -2.4149  2.7922  0.7533
10644TIP3    H253348   3.726   3.527   2.213  0.1785  0.4859  0.6859
10645TIP3   OH253349   2.748   5.831  12.999 -0.3808  0.4070  0.0173
10645TIP3    H153350   2.669   5.834  12.946 -0.4058 -0.5421 -0.0171
10645TIP3    H253351   2.814   5.875  12.946 -0.0694 -1.6835 -1.4311
10646TIP3   OH253352   1.810   2.475   6.842 -0.4905  0.2011  0.1740
10646TIP3    H153353   1.872   2.519   6.783 -1.3393  0.8836 -0.2190
10646TIP3    H253354   1.848   2.388   6.856 -1.0626 -0.5180 -2.6093
10647TIP3   OH253355   1.759   3.038  15.907  0.1309 -0.0625 -0.0136
10647TIP3    H153356   1.687   2.986  15.943  0.0986  0.4280  0.6410
10647TIP3    H253357   1.715   3.109  15.859  0.1721 -0.8063 -1.1741
10648TIP3   OH253358   5.830   1.063  17.007 -0.3214 -0.7107 -0.1732
10648TIP3    H153359   5.856   0.971  17.012  0.8276 -0.2821  2.0672
10648TIP3    H253360   5.900   1.104  16.956 -0.8038 -1.0293 -1.1246
10649TIP3   OH253361   5.494   4.013  11.341 -0.1073 -0.0835 -1.0040
10649TIP3    H153362   5.507   4.092  11.289 -2.1624  0.0584 -1.3311
10649TIP3    H253363   5.410   3.978  11.311  0.2661 -1.8130 -0.1094
10650TIP3   OH253364   3.059   1.046   2.720 -0.0010  0.2731 -0.0983
10650TIP3    H153365   3.023   0.986   2.655 -0.3037 -0.2155  0.5206
10650TIP3    H253366   3.095   1.118   2.668 -0.0013 -0.2410 -0.8219
10651TIP3   OH253367   0.540   3.561  13.462 -0.2043  0.2522  0.0358
10651TIP3    H153368   0.578   3.480  13.428  0.2426 -0.2329  1.6261
10651TIP3    H253369   0.485   3.594  13.391 -0.6130 -1.5908 -0.5243
10652TIP3   OH253370   4.344   4.194  12.047  0.5282  0.1971  0.2866
10652TIP3    H153371   4.318   4.210  11.956 -1.5431 -1.4390  0.5521
10652TIP3    H253372   4.299   4.261  12.098 -1.4329 -1.2314  0.4921
10653TIP3   OH253373   2.299   5.237   0.583 -0.4462  0.2973 -0.5006
10653TIP3    H153374   2.373   5.271   0.532 -0.5400  1.7942  0.3448
10653TIP3    H253375   2.222   5.262   0.532 -0.5061  1.2128  0.0335
10654TIP3   OH253376   5.489   1.923   4.483 -0.0643 -0.3661 -0.0850
10654TIP3    H153377   5.560   1.938   4.545  1.0948 -1.0451 -1.2275
10654TIP3    H253378   5.530   1.877   4.410 -1.2408  1.0972 -1.7213
10655TIP3   OH253379   4.947   2.201   2.989 -0.1556  0.5152 -0.2811
10655TIP3    H153380   4.980   2.208   3.078 -0.5501  2.5644 -0.2614
10655TIP3    H253381   4.860   2.162   2.998  1.0879 -2.3367 -0.0964
10656TIP3   OH253382   2.522   0.916   4.454 -0.1029  0.1534 -0.4065
10656TIP3    H153383   2.445   0.908   4.511  1.1204 -1.8267  1.0288
10656TIP3    H253384   2.592   0.874   4.503  1.8706  1.7625 -1.7912
10657TIP3   OH253385   0.518   0.748  15.009 -0.0931 -0.3149  0.6416
10657TIP3    H153386   0.544   0.663  15.045 -0.4307 -0.6049  0.2099
10657TIP3    H253387   0.422   0.749  15.016 -0.0688  0.1766  0.9618
10658TIP3   OH253388   2.070   2.092   1.176 -0.5655  0.2612 -0.2239
10658TIP3    H153389   2.017   2.083   1.256  0.6926 -2.9266  0.2989
10658TIP3    H253390   2.054   2.012   1.127 -0.0954  1.5115 -2.4762
10659TIP3   OH253391   6.784   2.817  15.247  0.1997  0.1480  0.0520
10659TIP3    H153392   6.716   2.878  15.277  0.1420  0.1615 -0.1031
10659TIP3    H253393   6.787   2.831  15.152  0.5513  0.2826  0.0846
10660TIP3   OH253394   4.711   4.016   2.693  0.8716 -0.1380 -0.5555
10660TIP3    H153395   4.746   4.101   2.721 -0.8761  0.7574 -1.0242
10660TIP3    H253396   4.787   3.958   2.691  2.0101  1.3036  0.2026
10661TIP3   OH253397   1.242   1.549  13.089 -0.1727 -0.3383 -0.0748
10661TIP3    H153398   1.304   1.551  13.016 -0.5171 -1.3626 -0.3979
10661TIP3    H253399   1.279   1.484  13.150  0.5458  1.1028  1.0511
10662TIP3   OH253400   6.044   0.834   1.776  0.8167  0.0243 -0.1247
10662TIP3    H153401   6.003   0.920   1.787  0.7373 -0.2532  1.8098
10662TIP3    H253402   6.117   0.833   1.838  0.9422 -1.2280 -0.2747
10663TIP3   OH253403   2.269   0.151  13.666  0.1299 -0.1801  0.7829
10663TIP3    H153404   2.181   0.113  13.664 -0.0978  0.3527  0.7081
10663TIP3    H253405   2.285   0.181  13.576  0.0879  0.4063  0.9702
10664TIP3   OH253406   5.513   1.065  16.908  0.3224  0.0594  0.1817
10664TIP3    H153407   5.582   1.041  16.971 -0.0333  0.2842  0.6648
10664TIP3    H253408   5.441   1.096  16.963  0.3094  1.0485 -0.3755
10665TIP3   OH253409   3.344   4.803   3.911  0.6868 -0.3747  0.3371
10665TIP3    H153410   3.352   4.765   3.999  0.7658  2.1067  1.4381
10665TIP3    H253411   3.434   4.823   3.886  0.6003 -0.4670 -0.0495
10666TIP3   OH253412   1.240   4.527   5.502  0.3469 -0.0918 -0.6789
10666TIP3    H153413   1.162   4.573   5.471  1.5615  1.8870 -0.8848
10666TIP3    H253414   1.209   4.473   5.575 -1.0373  1.4147 -0.1345
10667TIP3   OH253415   0.894   2.772   5.635 -0.3435  0.7903 -0.0314
10667TIP3    H153416   0.905   2.735   5.723  0.1504 -0.6530 -0.6823
10667TIP3    H253417   0.799   2.767   5.620 -0.1923 -1.1673 -0.4893
10668TIP3   OH253418   1.419   5.612  12.223 -0.0275 -0.1434 -0.2889
10668TIP3    H153419   1.353   5.602  12.154 -0.8897 -0.8943  0.6271
10668TIP3    H253420   1.474   5.534  12.216  0.1722  0.0090 -0.4258
10669TIP3   OH253421   1.879   5.622   0.071  0.0223 -0.1530  0.3406
10669TIP3    H153422   1.828   5.697   0.040 -0.8329 -1.3240 -1.1244
10669TIP3    H253423   1.957   5.621   0.015 -0.0209 -0.4207  0.2836
10670TIP3   OH253424   5.039   5.294  12.671 -0.3795  0.1272 -0.4161
10670TIP3    H153425   5.039   5.204  12.704 -2.4748  0.6200  1.0296
10670TIP3    H253426   5.116   5.299  12.615 -0.6605 -2.8093 -1.1522
10671TIP3   OH253427   4.654   2.647   1.309  0.3385  0.4603 -0.6051
10671TIP3    H153428   4.580   2.588   1.300  1.5475 -1.0998 -0.4969
10671TIP3    H253429   4.642   2.712   1.239 -2.3750  1.6494  0.8891
10672TIP3   OH253430   4.379   3.632  14.966  0.4348  0.1426  0.0699
10672TIP3    H153431   4.456   3.678  14.933 -0.0909 -0.1228 -1.5853
10672TIP3    H253432   4.363   3.671  15.052  2.2415  0.3907  0.3116
10673TIP3   OH253433   1.961   6.266  14.756  0.5378  0.3828 -0.6891
10673TIP3    H153434   2.026   6.244  14.823  0.9957  1.3435 -0.8079
10673TIP3    H253435   1.977   6.203  14.685  0.7598  0.0559 -0.3523
10674TIP3   OH253436   0.178   2.715  11.982 -0.3450 -0.0374  0.3187
10674TIP3    H153437   0.093   2.691  12.020 -1.1115  1.2422 -0.5884
10674TIP3    H253438   0.222   2.764  12.052 -1.0851  0.8687  0.1568
10675TIP3   OH253439   3.130   0.313   1.760  0.2093 -0.2543 -0.5430
10675TIP3    H153440   3.175   0.349   1.835  0.7170 -2.1306  0.0872
10675TIP3    H253441   3.150   0.373   1.688  2.5781 -0.2975  0.0383
10676TIP3   OH253442   5.970   5.849  14.416  0.3794  0.7752 -0.2041
10676TIP3    H153443   5.889   5.838  14.466  0.7502 -0.9789  0.0558
10676TIP3    H253444   5.942   5.889  14.334 -0.6417  0.9481  0.2148
10677TIP3   OH253445   4.297   2.602   1.872  0.2375 -0.2388  0.2853
10677TIP3    H153446   4.256   2.650   1.945  1.0612  0.2645  0.4288
10677TIP3    H253447   4.341   2.528   1.914  1.3656  0.4860  0.3972
10678TIP3   OH253448   3.432   1.052  12.634  0.0150  1.0306  0.7381
10678TIP3    H153449   3.414   1.092  12.549  1.9055  1.2898  0.4451
10678TIP3    H253450   3.454   1.125  12.691  0.4954  0.6899  0.9901
10679TIP3   OH253451   6.546   2.415   3.516  0.7619  0.6193 -0.0737
10679TIP3    H153452   6.598   2.448   3.589  0.5304  0.3783  0.2065
10679TIP3    H253453   6.608   2.402   3.445  1.0525  0.4908  0.2044
10680TIP3   OH253454   4.666   5.393  12.498  1.0320  0.8185  0.4065
10680TIP3    H153455   4.590   5.390  12.440  2.3288  1.5328 -1.3962
10680TIP3    H253456   4.656   5.318  12.556 -0.4755  0.2922 -0.5163
10681TIP3   OH253457   5.467   3.382  14.896 -0.0990  0.3202  0.1998
10681TIP3    H153458   5.450   3.432  14.816  0.5357  0.2544  0.0220
10681TIP3    H253459   5.406   3.419  14.960 -1.8672 -0.8310 -0.7730
10682TIP3   OH253460   6.753   1.585   1.506  0.4902 -0.5252 -0.5486
10682TIP3    H153461   6.828   1.595   1.565 -0.5736  1.4532  0.5000
10682TIP3    H253462   6.694   1.524   1.550  0.3880 -0.2270 -0.2771
10683TIP3   OH253463   2.326   6.138   4.990  0.2786 -0.3187 -0.6435
10683TIP3    H153464   2.382   6.189   4.932 -1.4352  0.1816 -1.8821
10683TIP3    H253465   2.298   6.200   5.058 -0.9665  0.1353 -1.5632
10684TIP3   OH253466   4.008   2.909  15.696 -0.0444 -0.4251  0.8256
10684TIP3    H153467   3.924   2.864  15.681 -0.4369 -0.2045  2.2214
10684TIP3    H253468   4.072   2.859  15.646 -1.1372 -0.1126 -0.9353
10685TIP3   OH253469   2.318   0.068  11.966 -0.4402 -0.2990 -0.0222
10685TIP3    H153470   2.307   0.032  11.878 -0.2213 -2.0373  0.6396
10685TIP3    H253471   2.230   0.091  11.994 -0.6922 -1.0893 -0.1451
10686TIP3   OH253472   0.244   3.937   5.838  0.1428  0.3546 -0.1512
10686TIP3    H153473   0.163   3.905   5.878  1.2176 -1.2371  0.8424
10686TIP3    H253474   0.272   3.866   5.781 -0.7535  2.1437 -2.9561
10687TIP3   OH253475   2.398   5.264   4.394 -0.0735 -0.0603  0.8232
10687TIP3    H153476   2.461   5.197   4.420  0.0733  0.5472  2.0682
10687TIP3    H253477   2.451   5.336   4.361 -0.1805 -0.1006  0.5611
10688TIP3   OH253478   3.419   3.789   4.510 -0.3712 -0.4665  0.5136
10688TIP3    H153479   3.492   3.842   4.478 -0.1867 -0.7641  0.4314
10688TIP3    H253480   3.443   3.768   4.601  0.4373 -1.9173 -0.0099
10689TIP3   OH253481   1.394   6.159   3.157  0.1709  0.8078 -0.6629
10689TIP3    H153482   1.369   6.070   3.132  0.5267  0.2968  0.7497
10689TIP3    H253483   1.415   6.202   3.074 -1.9285  0.1943 -1.5398
10690TIP3   OH253484   5.381   5.918   4.612  0.5039  0.0154  0.3276
10690TIP3    H153485   5.345   5.850   4.554  0.1233 -1.0068  1.7334
10690TIP3    H253486   5.467   5.937   4.576 -0.0443 -0.0359 -1.0416
10691TIP3   OH253487   5.128   0.416  14.404 -0.3196 -0.0391  0.7035
10691TIP3    H153488   5.066   0.367  14.457 -1.0005  0.0039 -0.0394
10691TIP3    H253489   5.074   0.465  14.342  0.4285  0.3896  0.3726
10692TIP3   OH253490   4.238   4.735   3.365  0.0705 -0.1687  0.3035
10692TIP3    H153491   4.279   4.657   3.326 -0.1943 -0.8167  1.2938
10692TIP3    H253492   4.148   4.708   3.383 -0.2399  0.6238 -0.0647
10693TIP3   OH253493   1.353   5.165  11.168 -0.4103 -0.7172  0.8827
10693TIP3    H153494   1.396   5.099  11.223  1.7700  1.3610  1.7437
10693TIP3    H253495   1.365   5.247  11.216  1.8150  1.2355 -2.8061
10694TIP3   OH253496   2.822   3.968  12.276 -0.5760  0.3059 -0.0624
10694TIP3    H153497   2.739   4.005  12.306 -0.5917 -0.2273  0.5521
10694TIP3    H253498   2.872   3.954  12.356 -0.5960 -1.0674 -0.2879
10695TIP3   OH253499   3.156   4.062  13.997  0.2481 -0.3031  0.2366
10695TIP3    H153500   3.164   3.969  14.020  1.0091  0.1013  1.6384
10695TIP3    H253501   3.104   4.062  13.916 -0.6330 -1.8793  0.7857
10696TIP3   OH253502   1.755   3.405  15.077 -0.0065  0.6604  0.0838
10696TIP3    H153503   1.720   3.330  15.030 -0.5697 -0.4584  2.2059
10696TIP3    H253504   1.798   3.458  15.010  0.3752 -1.5427 -1.4682
10697TIP3   OH253505   2.143   2.740  12.932 -0.4691  0.3662 -0.5301
10697TIP3    H153506   2.236   2.728  12.914 -0.1626  1.0346  0.5109
10697TIP3    H253507   2.117   2.815  12.879 -0.5410 -0.1302 -1.2036
10698TIP3   OH253508   5.870   0.284   5.999  0.3047  0.2368 -0.0789
10698TIP3    H153509   5.779   0.255   6.011  0.0702  1.2280  0.5720
10698TIP3    H253510   5.922   0.221   6.048 -0.1169  0.2322  0.3718
10699TIP3   OH253511   3.105   6.020  15.271  0.0531 -0.6373  0.0292
10699TIP3    H153512   3.063   5.934  15.269  0.4921 -0.8270 -1.8864
10699TIP3    H253513   3.170   6.017  15.201 -0.1946  1.3804 -0.3161
10700TIP3   OH253514   2.650   0.248  14.018  0.1356  0.3693 -0.1374
10700TIP3    H153515   2.570   0.282  13.977  0.6290  1.1639 -0.4378
10700TIP3    H253516   2.618   0.187  14.084 -0.6686 -1.0362 -1.7940
10701TIP3   OH253517   4.530   0.937   1.210 -0.2697 -0.0192 -1.0395
10701TIP3    H153518   4.560   0.882   1.139  0.5925 -1.3290  0.3146
10701TIP3    H253519   4.481   1.008   1.167  0.6269 -0.5296 -2.9330
10702TIP3   OH253520   1.050   5.683   6.423  0.6964  0.6577 -0.3721
10702TIP3    H153521   0.987   5.679   6.495 -0.0480  0.4424 -1.0318
10702TIP3    H253522   1.098   5.765   6.437  1.0503  0.2596  0.7771
10703TIP3   OH253523   3.722   3.642  17.094  0.2592 -0.0819  0.6092
10703TIP3    H153524   3.790   3.709  17.104  2.0435 -1.5426 -1.3646
10703TIP3    H253525   3.660   3.681  17.033  0.3436  0.4974  0.8872
10704TIP3   OH253526   0.813   0.913  16.110  0.0191 -0.0080  0.0735
10704TIP3    H153527   0.855   0.920  16.024  0.5415 -1.4385  0.1998
10704TIP3    H253528   0.793   1.003  16.134  1.7633  0.6001 -0.6220
10705TIP3   OH253529   6.722   2.861  10.745 -0.7089 -0.5514  0.0179
10705TIP3    H153530   6.814   2.836  10.731 -0.2231  1.2319 -0.1382
10705TIP3    H253531   6.724   2.914  10.824 -0.9869  2.7047 -2.0629
10706TIP3   OH253532   6.062   4.849   1.502  0.3636 -0.5596 -0.4426
10706TIP3    H153533   6.131   4.814   1.445 -0.0047 -1.4506 -0.3473
10706TIP3    H253534   6.107   4.869   1.584  0.4342 -1.5300 -0.2383
10707TIP3   OH253535   4.311   5.097  13.990 -0.2406 -0.0824 -0.0556
10707TIP3    H153536   4.255   5.042  14.045  0.0626  1.8994  2.3250
10707TIP3    H253537   4.357   5.034  13.933 -1.5017 -2.0999  1.0847
10708TIP3   OH253538   2.521   1.910   5.816 -0.1425 -0.4845  0.2898
10708TIP3    H153539   2.585   1.845   5.787  2.0438  1.9839 -0.5739
10708TIP3    H253540   2.443   1.892   5.764  1.6408 -0.1660 -2.5989
10709TIP3   OH253541   1.502   5.382  16.621  0.4400 -0.6317 -0.0523
10709TIP3    H153542   1.408   5.368  16.634  0.5035 -0.9287  0.0891
10709TIP3    H253543   1.530   5.310  16.565  0.6186 -0.6400  0.0476
10710TIP3   OH253544   0.898   5.385  13.596  0.0542 -0.3491  0.1438
10710TIP3    H153545   0.891   5.309  13.653 -0.9932  0.0501  0.5599
10710TIP3    H253546   0.813   5.428  13.603  0.3647  0.4210 -0.7085
10711TIP3   OH253547   1.346   5.363  14.077  0.1696  0.1277  0.1470
10711TIP3    H153548   1.350   5.268  14.081  0.5116 -0.1216 -4.2409
10711TIP3    H253549   1.422   5.388  14.024  0.0643  2.8383  1.2146
10712TIP3   OH253550   6.095   1.858  13.437  0.0721  0.3647  0.0384
10712TIP3    H153551   6.007   1.886  13.461  0.3266  1.4306 -0.2685
10712TIP3    H253552   6.100   1.874  13.342 -0.9820 -3.9112 -0.8799
10713TIP3   OH253553   5.816   0.895  15.845 -0.0876 -0.1997 -0.1642
10713TIP3    H153554   5.823   0.921  15.937 -0.7893  0.9111 -0.4158
10713TIP3    H253555   5.904   0.864  15.822 -0.6407 -3.3809  1.7116
10714TIP3   OH253556   1.401   3.286   2.679 -0.0850  0.1136 -0.3416
10714TIP3    H153557   1.336   3.317   2.617 -0.4249  0.6283  0.2659
10714TIP3    H253558   1.387   3.339   2.758  0.9309  0.0924 -0.1322
10715TIP3   OH253559   3.604   6.201  10.948  0.4778 -0.0218  0.1498
10715TIP3    H153560   3.552   6.243  11.016  1.6056  1.0607  0.3789
10715TIP3    H253561   3.621   6.113  10.980 -1.5715 -0.5312 -0.1383
10716TIP3   OH253562   3.575   5.665   0.664  0.0016 -0.0669 -0.2121
10716TIP3    H153563   3.570   5.627   0.576  1.2378  1.2460 -0.8614
10716TIP3    H253564   3.566   5.759   0.651  0.5991  0.1801  1.0284
10717TIP3   OH253565   2.812   3.504  16.695  0.1982 -0.3791  0.0633
10717TIP3    H153566   2.896   3.460  16.679  0.6734  0.0352  1.3891
10717TIP3    H253567   2.835   3.597  16.704 -0.5621 -0.1014 -0.7989
10718TIP3   OH253568   0.292   2.626  16.088 -0.1539  0.3251  0.3488
10718TIP3    H153569   0.258   2.542  16.121 -0.9922  0.5760  0.1259
10718TIP3    H253570   0.224   2.689  16.109 -0.4753  0.5883 -1.3802
10719TIP3   OH253571   0.563   0.080   2.995  0.2520 -0.0293  0.5411
10719TIP3    H153572   0.544  -0.007   3.029  1.2780 -1.5210 -2.5322
10719TIP3    H253573   0.657   0.091   3.008  0.0628  0.7757  1.2540
10720TIP3   OH253574   0.958   6.140   5.404  0.1606 -0.2178 -0.3619
10720TIP3    H153575   0.893   6.088   5.451 -1.5292  1.2797 -1.0013
10720TIP3    H253576   1.033   6.081   5.395 -0.7480 -1.6700  1.1846
10721TIP3   OH253577   6.336   6.596   1.234 -0.4943 -0.5742 -0.2056
10721TIP3    H153578   6.379   6.625   1.315 -0.5935 -1.8864  0.3376
10721TIP3    H253579   6.343   6.670   1.175  0.3154  0.1156  0.7365
10722TIP3   OH253580   3.205   1.963   4.761 -0.5009  0.2753  0.2202
10722TIP3    H153581   3.284   1.921   4.728  1.0360  2.0090  1.6046
10722TIP3    H253582   3.151   1.977   4.682  1.5955  1.2281 -1.0706
10723TIP3   OH253583   3.093   4.442   5.210  0.4498 -0.2581 -0.1120
10723TIP3    H153584   3.105   4.514   5.272 -0.9026  0.4514 -0.6488
10723TIP3    H253585   3.022   4.472   5.153  1.7540 -0.8217 -2.0926
10724TIP3   OH253586   4.106   4.001  16.554 -0.4411  0.7855 -0.7074
10724TIP3    H153587   4.168   3.933  16.530  0.1632  1.4105 -0.9289
10724TIP3    H253588   4.021   3.956  16.556  0.1463 -0.3006  0.6262
10725TIP3   OH253589   6.194   4.287  11.167  0.3648 -0.0976  0.3382
10725TIP3    H153590   6.144   4.273  11.086  0.3675  1.6020  0.0136
10725TIP3    H253591   6.131   4.276  11.237 -0.1149  0.4269 -0.0038
10726TIP3   OH253592   4.183   0.063  14.711  0.1467 -0.1490 -0.4090
10726TIP3    H153593   4.136   0.134  14.756  2.0463 -0.7098  2.5825
10726TIP3    H253594   4.140  -0.017  14.743  0.8221 -0.5145 -0.4233
10727TIP3   OH253595   0.145   2.852   6.557 -0.0193 -0.1658 -0.0814
10727TIP3    H153596   0.155   2.774   6.612 -0.8497 -1.4816 -1.7577
10727TIP3    H253597   0.053   2.853   6.533  0.1817  0.8097 -0.8332
10728TIP3   OH253598   3.202   4.006   5.909 -0.2052  0.2766 -0.5568
10728TIP3    H153599   3.172   4.095   5.925 -4.0252 -0.7708 -1.4484
10728TIP3    H253600   3.140   3.951   5.957  2.4071 -1.9332  0.4265
10729TIP3   OH253601   6.019   3.734  14.240  0.1638 -0.2701  0.2912
10729TIP3    H153602   5.944   3.794  14.241 -0.5307 -1.1307  1.5087
10729TIP3    H253603   6.061   3.748  14.325  0.6823 -0.6675  0.1000
10730TIP3   OH253604   2.988   0.482   3.810 -0.8881  0.2635 -0.4685
10730TIP3    H153605   3.045   0.511   3.882 -1.0685  1.2787 -0.7217
10730TIP3    H253606   2.900   0.485   3.847 -0.8927 -0.1048 -0.4519
10731TIP3   OH253607   2.849   0.838   1.464  0.0113  0.3596 -0.5396
10731TIP3    H153608   2.851   0.754   1.418  0.6058  0.5650 -0.8927
10731TIP3    H253609   2.873   0.902   1.398  3.5835  0.3772  0.6607
10732TIP3   OH253610   5.036   5.221  12.160  0.7455 -0.4774 -0.4393
10732TIP3    H153611   5.005   5.246  12.247  0.3010 -0.5673 -0.5737
10732TIP3    H253612   4.998   5.286  12.101  1.6282  0.0054 -0.4801
10733TIP3   OH253613   5.049   1.420   3.614 -0.2495 -0.4592  0.1944
10733TIP3    H153614   5.133   1.394   3.576  1.4555  1.3741  2.5172
10733TIP3    H253615   5.029   1.505   3.574 -1.2385 -1.1017 -0.6906
10734TIP3   OH253616   5.974   5.476  14.625  0.0379 -0.0944  0.1498
10734TIP3    H153617   6.017   5.423  14.557 -1.4261 -0.7720 -0.2787
10734TIP3    H253618   5.944   5.412  14.689 -2.1063  0.1225 -0.5655
10735TIP3   OH253619   0.429   3.957   0.974  0.3606 -0.7066  0.7184
10735TIP3    H153620   0.494   4.027   0.981  1.8042 -1.8712 -0.3897
10735TIP3    H253621   0.471   3.882   1.016 -0.7364 -1.1698  0.9797
10736TIP3   OH253622   3.413   3.759   0.951 -0.3434 -0.4507 -0.8824
10736TIP3    H153623   3.457   3.794   0.873  0.6486  0.7265  0.1836
10736TIP3    H253624   3.334   3.717   0.917 -1.1189  2.0337 -2.3243
10737TIP3   OH253625   3.296   0.382   4.801  0.5014  0.0833 -0.6616
10737TIP3    H153626   3.390   0.374   4.819  0.2416  0.2149  0.8316
10737TIP3    H253627   3.291   0.417   4.712  1.8651 -0.0581 -0.7996
10738TIP3   OH253628   0.145   1.885  16.663 -0.1494 -0.3455 -0.1329
10738TIP3    H153629   0.052   1.881  16.641 -0.0570  0.3391 -0.6720
10738TIP3    H253630   0.175   1.794  16.660 -1.1921 -0.7856  1.8194
10739TIP3   OH253631   6.461   0.297  12.514  0.0839  0.1607 -0.1523
10739TIP3    H153632   6.415   0.281  12.432  0.0811  1.3791 -0.3973
10739TIP3    H253633   6.395   0.279  12.582 -0.2182  0.1640 -0.4413
10740TIP3   OH253634   1.761   1.865   3.849  0.2445  0.6929  1.5212
10740TIP3    H153635   1.696   1.879   3.781  1.9809  1.4976 -0.0237
10740TIP3    H253636   1.731   1.918   3.923  0.4250  3.0594 -0.0572
10741TIP3   OH253637   3.610   4.759  16.110 -0.1355  0.6010  0.4800
10741TIP3    H153638   3.611   4.805  16.026  1.1705  0.6337  0.5037
10741TIP3    H253639   3.525   4.715  16.112  0.6778 -1.1426 -1.8063
10742TIP3   OH253640   0.808   6.305  15.984 -0.0278 -0.7677 -0.6972
10742TIP3    H153641   0.831   6.398  15.983  0.6978 -0.9436 -0.9721
10742TIP3    H253642   0.738   6.298  16.048  0.5556 -0.1845  0.0088
10743TIP3   OH253643   0.334   2.886  12.120 -0.5709  0.1385  0.5346
10743TIP3    H153644   0.340   2.900  12.215 -1.1396  2.0678  0.3281
10743TIP3    H253645   0.292   2.966  12.088  1.7176  0.5339 -1.6167
10744TIP3   OH253646   4.019   1.979  10.499 -0.1210  1.1097 -0.2175
10744TIP3    H153647   3.974   1.976  10.414 -2.1581  1.2814  0.8471
10744TIP3    H253648   4.031   2.073  10.516  2.1489  1.0471 -1.2524
10745TIP3   OH253649   2.585   4.808  11.487  0.4615  0.3538 -0.2838
10745TIP3    H153650   2.496   4.831  11.461  0.2896 -0.3026 -0.2994
10745TIP3    H253651   2.578   4.789  11.580  0.7178  0.9449 -0.1452
10746TIP3   OH253652   4.015   1.738  16.659  0.2424 -0.2565 -0.3379
10746TIP3    H153653   3.977   1.806  16.604 -1.0192  0.8697  1.8670
10746TIP3    H253654   3.958   1.662  16.647 -0.1625  0.0620 -0.4180
10747TIP3   OH253655   3.837   4.884  15.428 -0.5466 -0.2417 -0.0452
10747TIP3    H153656   3.798   4.817  15.372 -1.3657 -1.3701  1.8127
10747TIP3    H253657   3.925   4.852  15.447 -0.0317  0.4566 -1.1656
10748TIP3   OH253658   5.899   0.252   5.700  0.4450 -0.0336  0.2611
10748TIP3    H153659   5.916   0.231   5.792 -0.1636 -1.3509  0.0834
10748TIP3    H253660   5.886   0.167   5.658 -2.1988  0.6773 -0.4562
10749TIP3   OH253661   2.874   5.732   1.702  0.4136  0.1716 -0.4884
10749TIP3    H153662   2.785   5.699   1.710  0.8270 -1.0969 -0.8685
10749TIP3    H253663   2.923   5.659   1.662  1.7910  0.5250  0.4810
10750TIP3   OH253664   1.432   6.493  11.643 -0.0036  0.6972  0.0565
10750TIP3    H153665   1.516   6.457  11.614 -0.3028 -0.6775  0.8455
10750TIP3    H253666   1.433   6.483  11.739 -0.5527  1.8029  0.1857
10751TIP3   OH253667   5.505   1.309   4.447  0.1154  0.9498 -0.3805
10751TIP3    H153668   5.547   1.225   4.426 -2.5249 -0.3701 -0.5224
10751TIP3    H253669   5.469   1.339   4.363 -1.6144  0.6949  0.2635
10752TIP3   OH253670   4.912   2.423   1.658 -0.2592  0.2616 -0.0327
10752TIP3    H153671   4.986   2.363   1.652 -0.7641 -0.3136 -0.6366
10752TIP3    H253672   4.902   2.458   1.569 -1.6983 -0.8842 -0.3528
10753TIP3   OH253673   0.181   2.117   4.561  0.2903 -0.0073  0.6021
10753TIP3    H153674   0.136   2.154   4.485  0.6284  1.1629  0.9700
10753TIP3    H253675   0.173   2.022   4.549  1.0622  0.1417 -1.3171
10754TIP3   OH253676   2.992   3.061   1.271  0.4029 -0.2964  0.3080
10754TIP3    H153677   2.945   3.000   1.328  0.3850  0.2537  0.8766
10754TIP3    H253678   3.075   3.078   1.316  1.0130 -0.9877 -0.5253
10755TIP3   OH253679   1.757   4.325   4.379  0.5238 -0.0560 -0.1183
10755TIP3    H153680   1.682   4.380   4.403 -0.0804 -0.0523 -1.9656
10755TIP3    H253681   1.775   4.275   4.459 -1.2085  0.2166  0.4800
10756TIP3   OH253682   5.826   3.025  14.710  0.0505  0.3622 -0.4081
10756TIP3    H153683   5.735   3.007  14.689  0.3553 -0.5042 -1.0082
10756TIP3    H253684   5.854   3.089  14.644  0.5090 -1.0568 -1.6222
10757TIP3   OH253685   5.310   2.480  13.534  0.2834  0.3291  0.2094
10757TIP3    H153686   5.273   2.559  13.574  0.0950  0.7388 -0.7738
10757TIP3    H253687   5.300   2.413  13.601  2.6549  1.6804  2.0059
10758TIP3   OH253688   1.542   4.582  16.108  0.2601  0.0001  0.6651
10758TIP3    H153689   1.603   4.640  16.063 -0.3733  0.6616  0.6421
10758TIP3    H253690   1.557   4.599  16.201  0.1503  0.1176  0.6606
10759TIP3   OH253691   5.211   1.951   6.164 -0.3385  0.6363  0.0310
10759TIP3    H153692   5.232   1.984   6.251  0.2716  0.6513 -0.1188
10759TIP3    H253693   5.129   1.993   6.141 -0.6415  0.4142  0.7187
10760TIP3   OH253694   2.811   6.400  12.175  0.1270 -0.3015  0.3968
10760TIP3    H153695   2.731   6.350  12.155  0.3115 -0.9757  1.3287
10760TIP3    H253696   2.783   6.492  12.172 -0.3266 -0.4692 -0.8308
10761TIP3   OH253697   0.666   1.936   1.072  0.5362  0.0206  0.0021
10761TIP3    H153698   0.747   1.953   1.120  1.0250  0.5438 -0.9907
10761TIP3    H253699   0.597   1.940   1.138  1.2927 -0.2124  0.8189
10762TIP3   OH253700   1.528   2.407  12.734 -0.2419 -0.1219  0.1682
10762TIP3    H153701   1.536   2.435  12.825  0.3716 -0.0545  0.0992
10762TIP3    H253702   1.605   2.353  12.719 -1.1932 -1.4829  0.1653
10763TIP3   OH253703   1.882   2.504   0.214 -0.1446 -0.0135 -0.3744
10763TIP3    H153704   1.857   2.414   0.237  0.7649 -0.4381 -1.0185
10763TIP3    H253705   1.798   2.550   0.204 -0.6397 -0.9808 -0.8103
10764TIP3   OH253706   4.741   3.320   0.502  0.3364 -0.3003  0.2250
10764TIP3    H153707   4.753   3.414   0.516  0.4353 -0.2168 -0.3903
10764TIP3    H253708   4.829   3.283   0.510  0.6288 -0.0546 -1.5868
10765TIP3   OH253709   6.170   0.212   1.632 -0.1495 -0.1024 -0.3122
10765TIP3    H153710   6.130   0.156   1.565  0.1553 -2.1595  1.1531
10765TIP3    H253711   6.143   0.172   1.715  1.2548  1.1145  0.7518
10766TIP3   OH253712   2.916   3.556   5.732 -0.3915 -0.3483  0.5319
10766TIP3    H153713   2.855   3.629   5.720 -0.5090 -0.3700  0.9886
10766TIP3    H253714   2.897   3.496   5.660  2.1606  1.7685 -2.0287
10767TIP3   OH253715   3.526   0.278   0.348 -0.0478  0.1909  0.0281
10767TIP3    H153716   3.509   0.369   0.371  1.7019  0.2193  1.3681
10767TIP3    H253717   3.502   0.228   0.426 -1.2188 -0.5202 -0.7819
10768TIP3   OH253718   5.960   5.081   3.519 -0.1052  0.6619 -0.0201
10768TIP3    H153719   6.053   5.068   3.501  0.2226 -0.0104  2.0503
10768TIP3    H253720   5.957   5.154   3.581 -0.8574 -0.1156  0.8730
10769TIP3   OH253721   0.066   5.147   3.745  0.2743 -0.4552  0.1893
10769TIP3    H153722   0.149   5.187   3.771 -0.2745  1.0393 -0.3341
10769TIP3    H253723   0.090   5.085   3.676  0.9873 -0.2055  0.2069
10770TIP3   OH253724   1.897   4.569   5.179  0.7861  0.2455 -0.0046
10770TIP3    H153725   1.897   4.613   5.264 -1.4840  0.7193 -0.2033
10770TIP3    H253726   1.925   4.636   5.117 -2.9217  1.5863 -0.3436
10771TIP3   OH253727   1.901   3.040   6.465  0.4772 -0.0361  0.5898
10771TIP3    H153728   1.988   3.008   6.445  1.7883  1.3438  3.7537
10771TIP3    H253729   1.889   3.023   6.558 -1.9533  1.3546  0.5868
10772TIP3   OH253730   2.767   4.937  11.676 -0.5863 -0.1441  0.2297
10772TIP3    H153731   2.753   4.880  11.752  0.6446 -2.2063 -1.0502
10772TIP3    H253732   2.852   4.977  11.692  0.1191 -1.3273 -0.5074
10773TIP3   OH253733   2.462   6.769  13.726 -0.6254  0.0862  0.1560
10773TIP3    H153734   2.449   6.706  13.655  0.3517  0.6886 -0.5717
10773TIP3    H253735   2.385   6.826  13.723 -0.7307 -0.0775 -0.2321
10774TIP3   OH253736   2.421   3.849  12.750  0.4365 -0.3678  0.0560
10774TIP3    H153737   2.465   3.868  12.833  0.3739  1.3987 -0.2968
10774TIP3    H253738   2.337   3.813  12.776  0.5503 -0.1406  0.7657
10775TIP3   OH253739   4.542   4.293   2.244  0.1544 -0.0335 -0.0754
10775TIP3    H153740   4.591   4.232   2.188 -1.9790 -0.4887 -1.4802
10775TIP3    H253741   4.525   4.244   2.324 -0.4967 -0.8707 -0.7248
10776TIP3   OH253742   3.150   5.129   0.952  0.1340  0.0391 -0.0654
10776TIP3    H153743   3.225   5.072   0.943 -1.5505 -2.7218  2.5044
10776TIP3    H253744   3.103   5.121   0.869 -0.9144 -3.6446  0.8026
10777TIP3   OH253745   1.352   4.050  15.511 -0.0657  0.1259  0.6395
10777TIP3    H153746   1.352   4.078  15.419  0.3156  1.3486  1.0057
10777TIP3    H253747   1.350   3.954  15.506  0.7126  0.1549 -0.6634
10778TIP3   OH253748   2.051   5.552  15.226  0.3096  0.6615 -0.3303
10778TIP3    H153749   2.005   5.535  15.144  0.5846 -1.7936 -0.0004
10778TIP3    H253750   2.143   5.533  15.207 -0.1022 -3.8373  1.5090
10779TIP3   OH253751   3.923   6.233   2.337  0.0325 -0.2001 -0.7551
10779TIP3    H153752   3.870   6.295   2.287  0.0476  2.2234  2.0575
10779TIP3    H253753   3.885   6.147   2.318 -0.6975  0.7728 -3.8933
10780TIP3   OH253754   5.580   5.694   5.651 -0.5898  0.0697 -0.3776
10780TIP3    H153755   5.531   5.751   5.710 -1.5903  0.7788 -1.8640
10780TIP3    H253756   5.523   5.683   5.575  1.2220  0.2507 -1.7939
10781TIP3   OH253757   1.027   5.268   3.587 -0.0568  0.1241 -0.2911
10781TIP3    H153758   1.051   5.223   3.667 -1.4132  1.0469  0.6600
10781TIP3    H253759   1.087   5.343   3.583 -0.2038  0.2616  0.0404
10782TIP3   OH253760   1.192   4.687  16.948  0.1319 -0.1437  0.6090
10782TIP3    H153761   1.194   4.682  16.853 -1.5688  2.5115  0.3915
10782TIP3    H253762   1.101   4.668  16.972  0.0402  1.3898  1.5429
10783TIP3   OH253763   4.821   3.678   4.110  0.3314  0.4372  0.0653
10783TIP3    H153764   4.809   3.583   4.102  0.3759  0.4123  0.2795
10783TIP3    H253765   4.735   3.710   4.138  0.6545  0.3016  1.2510
10784TIP3   OH253766   1.276   5.435   2.367  0.4222 -0.2903 -0.0685
10784TIP3    H153767   1.206   5.483   2.323 -0.8071 -0.7649  1.3488
10784TIP3    H253768   1.357   5.469   2.327 -0.3838  3.0987  1.0383
10785TIP3   OH253769   3.147   2.011  13.654  0.1394  0.7124  0.4262
10785TIP3    H153770   3.234   1.973  13.647  0.0474  0.5303  0.3024
10785TIP3    H253771   3.140   2.069  13.578  0.3390  1.0964  0.6967
10786TIP3   OH253772   3.373   0.813  13.511 -0.3550 -0.2404 -0.2748
10786TIP3    H153773   3.305   0.876  13.486 -2.1125 -1.0968  2.0868
10786TIP3    H253774   3.333   0.728  13.493  0.9957 -0.7155 -1.0180
10787TIP3   OH253775   1.108   1.300  13.650  0.6297 -0.2356  0.2032
10787TIP3    H153776   1.097   1.269  13.740  0.0710 -1.7558 -0.3736
10787TIP3    H253777   1.048   1.375  13.643 -0.3172 -0.9336  0.7091
10788TIP3   OH253778   6.728   1.464  16.372 -0.3335  0.0449  0.6350
10788TIP3    H153779   6.757   1.376  16.351  1.1574  0.4966  0.7819
10788TIP3    H253780   6.704   1.460  16.465 -1.6176 -0.5410  0.2968
10789TIP3   OH253781   2.720   3.937   4.733  0.5209 -0.0991 -0.3989
10789TIP3    H153782   2.747   4.026   4.754  1.3615 -0.4442 -0.0176
10789TIP3    H253783   2.737   3.887   4.812  0.8262 -0.7719 -0.8817
10790TIP3   OH253784   0.277   6.162  12.568 -0.0553 -0.5894 -0.4825
10790TIP3    H153785   0.219   6.136  12.640 -2.7750 -1.1474 -2.7804
10790TIP3    H253786   0.327   6.082  12.549 -0.1998 -0.8001  0.0043
10791TIP3   OH253787   2.699   5.714   3.392 -0.6262  0.2630  0.1612
10791TIP3    H153788   2.723   5.674   3.476  1.8807  2.2436  0.4524
10791TIP3    H253789   2.697   5.640   3.331  1.1742 -0.7289  1.2409
10792TIP3   OH253790   4.613   0.514  16.767  1.1203  0.3852  0.1478
10792TIP3    H153791   4.632   0.607  16.752  0.2949  0.4309 -0.6702
10792TIP3    H253792   4.617   0.474  16.680 -1.4298  0.2088  0.0682
10793TIP3   OH253793   3.228   6.500  14.333 -0.3641 -0.4315  0.2704
10793TIP3    H153794   3.219   6.405  14.343 -1.0961 -0.3341  0.5715
10793TIP3    H253795   3.322   6.514  14.318 -0.3641 -1.2709 -0.5468
10794TIP3   OH253796   1.455   2.123  11.079 -0.4433  0.2334 -0.0643
10794TIP3    H153797   1.515   2.096  11.149 -1.2023 -0.4990  0.3144
10794TIP3    H253798   1.456   2.219  11.083 -0.9920  0.2038  1.4216
10795TIP3   OH253799   0.597   0.902   0.175 -0.0493  0.0384  0.2925
10795TIP3    H153800   0.536   0.831   0.155 -0.7599  0.9535 -0.8790
10795TIP3    H253801   0.672   0.886   0.118 -0.1719  0.1725  0.0918
10796TIP3   OH253802   0.667   1.450   3.577  0.1246  0.2236  0.6815
10796TIP3    H153803   0.703   1.500   3.650  0.6564  0.4823  0.2452
10796TIP3    H253804   0.650   1.515   3.509 -0.9790  0.0760  0.8024
10797TIP3   OH253805   6.256   1.997  12.936 -0.3528 -0.1917 -0.1390
10797TIP3    H153806   6.222   1.946  12.862 -1.3945  0.3684 -0.0427
10797TIP3    H253807   6.278   2.082  12.899  0.3746 -0.3419 -0.0697
10798TIP3   OH253808   0.545   2.492   3.540 -0.3100  0.2554  0.2036
10798TIP3    H153809   0.590   2.454   3.615  1.1022  1.1775 -0.1402
10798TIP3    H253810   0.574   2.584   3.539 -0.6833  0.3727 -1.1738
10799TIP3   OH253811   6.572   5.833  13.532 -0.0781  0.1046  0.0071
10799TIP3    H153812   6.593   5.923  13.506  4.3509 -1.2684 -1.7354
10799TIP3    H253813   6.580   5.834  13.628  1.9712  1.1971 -0.1326
10800TIP3   OH253814   1.327   0.892  13.522  0.4016  0.3350 -0.6575
10800TIP3    H153815   1.391   0.847  13.577  0.4083 -1.2852 -1.9417
10800TIP3    H253816   1.363   0.979  13.510  1.0346  0.2889  0.8334
10801TIP3   OH253817   1.377   4.532  14.675 -0.6390 -0.1720 -0.3952
10801TIP3    H153818   1.313   4.475  14.634 -2.1337 -0.4617  2.2085
10801TIP3    H253819   1.353   4.532  14.768  3.5580 -0.8661  0.8072
10802TIP3   OH253820   5.229   0.540   1.952 -0.2153  0.2607 -0.3983
10802TIP3    H153821   5.273   0.513   2.032  0.0672  0.0269 -0.6282
10802TIP3    H253822   5.299   0.543   1.886 -0.1357  2.2000 -0.2332
10803TIP3   OH253823   5.208   1.518  11.435 -0.2568 -0.0595  0.3117
10803TIP3    H153824   5.274   1.549  11.496  1.4836 -1.0272 -1.0355
10803TIP3    H253825   5.207   1.584  11.365 -2.5416  1.2689  1.5232
10804TIP3   OH253826   5.534   1.098  13.177 -0.1172 -0.2346 -0.2177
10804TIP3    H153827   5.598   1.027  13.174 -0.7123 -0.7268 -1.4887
10804TIP3    H253828   5.585   1.175  13.203  0.9515 -0.6607 -0.9987
10805TIP3   OH253829   2.256   2.353   5.995  0.3048  0.1483 -0.5922
10805TIP3    H153830   2.287   2.410   6.065  0.6566 -1.2598  0.4249
10805TIP3    H253831   2.276   2.401   5.914  1.1515  1.1892  0.2215
10806TIP3   OH253832   5.922   6.316   4.593 -0.0559  0.7401  0.0706
10806TIP3    H153833   5.921   6.221   4.603 -0.5062  0.7449  0.0735
10806TIP3    H253834   5.898   6.331   4.501  1.0209  0.8124 -0.2092
10807TIP3   OH253835   0.564   0.829  10.777  0.1444  0.0049  0.1893
10807TIP3    H153836   0.506   0.892  10.735 -2.1833  0.5328  3.9030
10807TIP3    H253837   0.642   0.879  10.800 -0.0757  0.5632 -0.2773
10808TIP3   OH253838   1.992   1.888   5.098 -0.1708 -0.6885 -0.1214
10808TIP3    H153839   1.916   1.841   5.063 -0.2440 -1.6765  1.2656
10808TIP3    H253840   1.961   1.926   5.180  0.2752  0.6551 -0.5659
10809TIP3   OH253841   4.396   5.035   0.765 -0.5130 -0.7963  0.5889
10809TIP3    H153842   4.432   5.119   0.795 -1.6451 -0.4592  1.0593
10809TIP3    H253843   4.303   5.053   0.753 -0.5559 -1.6955 -0.4269
10810TIP3   OH253844   4.888   4.951   1.675 -0.6212 -0.1618  0.0138
10810TIP3    H153845   4.907   4.972   1.583  0.3875  1.5886  0.5938
10810TIP3    H253846   4.974   4.940   1.715 -1.0633 -3.7765  0.1732
10811TIP3   OH253847   5.596   3.448  12.473  0.1285 -0.8507 -0.2797
10811TIP3    H153848   5.575   3.497  12.552 -1.3636 -1.1886 -0.4552
10811TIP3    H253849   5.511   3.425  12.436  0.8192 -2.1840 -1.0538
10812TIP3   OH253850   0.049   0.866  12.467 -0.4765 -0.1730  0.1791
10812TIP3    H153851  -0.029   0.811  12.465 -0.6391  0.0700 -0.0567
10812TIP3    H253852   0.019   0.950  12.499 -0.2272 -0.2162  0.5281
10813TIP3   OH253853   2.335   5.331   4.917  0.0744 -0.2037 -0.7459
10813TIP3    H153854   2.254   5.302   4.874 -0.8949 -1.1096  1.6172
10813TIP3    H253855   2.347   5.270   4.990  3.4115 -0.6760 -1.5746
10814TIP3   OH253856   5.050   0.776  16.039 -0.2701  0.0765  0.4183
10814TIP3    H153857   5.056   0.685  16.010  2.1452  0.2789  0.1998
10814TIP3    H253858   5.062   0.772  16.134 -0.4832  0.1501  0.4509
10815TIP3   OH253859   1.665   2.799   5.896 -0.5420 -0.0604 -0.0594
10815TIP3    H153860   1.739   2.861   5.895  0.6869 -1.4687  0.8310
10815TIP3    H253861   1.668   2.758   5.810 -0.9647  0.6434 -0.4177
10816TIP3   OH253862   0.675   2.634  15.120 -0.5143  0.2986  0.0232
10816TIP3    H153863   0.738   2.690  15.075  0.0875 -1.0778 -0.8787
10816TIP3    H253864   0.724   2.594  15.191  0.3391 -2.6808 -2.1634
10817TIP3   OH253865   2.126   4.961  12.387 -0.1896  0.0281 -0.3245
10817TIP3    H153866   2.184   4.930  12.318 -0.4805 -0.2078 -0.4624
10817TIP3    H253867   2.176   4.950  12.468  0.2945  0.6497 -0.5285
10818TIP3   OH253868   0.346   5.447  14.876 -0.4154  0.2234  0.2502
10818TIP3    H153869   0.303   5.463  14.792 -0.3123 -0.1399  0.1296
10818TIP3    H253870   0.382   5.532  14.900  2.2011 -0.3308 -1.5506
10819TIP3   OH253871   0.776   1.973  15.214 -0.1066 -0.4318  0.0086
10819TIP3    H153872   0.823   1.902  15.257  0.1599 -0.7495 -0.7916
10819TIP3    H253873   0.730   1.930  15.142 -1.4876 -0.0945  0.6842
10820TIP3   OH253874   6.385   6.358   0.529  0.6367  0.3278  0.3284
10820TIP3    H153875   6.352   6.439   0.568 -0.6014 -0.2157  0.4604
10820TIP3    H253876   6.335   6.349   0.447 -0.5116 -1.1870  1.1702
10821TIP3   OH253877   1.347   3.275  15.676 -0.1881 -0.0719  0.5533
10821TIP3    H153878   1.292   3.326  15.616 -0.5730 -0.0885  0.8902
10821TIP3    H253879   1.374   3.199  15.624 -0.3666  0.0100  0.3385
10822TIP3   OH253880   6.296   4.626  12.738  0.4667 -0.1120  0.4963
10822TIP3    H153881   6.274   4.553  12.797 -0.6448 -0.1574  0.0287
10822TIP3    H253882   6.344   4.585  12.667 -2.3397 -0.8131 -1.0694
10823TIP3   OH253883   6.597   5.289  11.997  0.3016 -0.1130 -0.3180
10823TIP3    H153884   6.522   5.346  12.017  0.3343 -0.4296  0.7220
10823TIP3    H253885   6.616   5.245  12.080  1.1840 -0.5715 -0.7643
10824TIP3   OH253886   2.544   2.456  15.079  0.0351 -0.1913 -0.1874
10824TIP3    H153887   2.579   2.544  15.069 -3.5754  1.2873 -0.3914
10824TIP3    H253888   2.528   2.426  14.989 -1.8098  0.2766 -0.0393
10825TIP3   OH253889   6.359   6.130   0.202  0.3218  0.3240 -0.4366
10825TIP3    H153890   6.294   6.194   0.230  2.1139  1.3879  1.4537
10825TIP3    H253891   6.370   6.146   0.108 -1.0310  1.1247 -0.4733
10826TIP3   OH253892   3.658   0.520   4.054 -0.0782 -0.4818  0.8012
10826TIP3    H153893   3.727   0.483   3.999 -2.1430 -1.2563 -1.3670
10826TIP3    H253894   3.697   0.599   4.092  2.1124 -1.1088 -0.0856
10827TIP3   OH253895   3.459   5.152   4.956  0.3008 -0.2430  0.2584
10827TIP3    H153896   3.510   5.090   4.905 -0.3196 -2.1621  1.8935
10827TIP3    H253897   3.436   5.221   4.894  1.1623 -1.5509 -1.5646
10828TIP3   OH253898   3.724   6.379   4.917 -0.1975 -0.0616  0.5815
10828TIP3    H153899   3.636   6.403   4.888  0.2977  0.8464 -0.1878
10828TIP3    H253900   3.718   6.378   5.013 -1.0820 -0.1687  0.5300
10829TIP3   OH253901   6.617   2.840  11.402 -0.6000 -0.2035  0.1191
10829TIP3    H153902   6.645   2.854  11.312 -0.8493  2.5976  0.4367
10829TIP3    H253903   6.550   2.772  11.396 -1.6484  0.9622 -2.0113
10830TIP3   OH253904   5.341   2.997  12.556 -0.3718 -0.0703 -0.2965
10830TIP3    H153905   5.322   2.916  12.507 -2.7025  0.9227 -1.0712
10830TIP3    H253906   5.255   3.033  12.578  0.6168  0.3689  3.1942
10831TIP3   OH253907   4.681   3.643  14.163 -0.0858 -0.1947  0.2686
10831TIP3    H153908   4.648   3.670  14.249 -1.9854  0.3650 -0.6272
10831TIP3    H253909   4.727   3.561  14.180 -0.6191 -0.1911  1.7979
10832TIP3   OH253910   4.191   1.026   1.942  0.4239  0.6813 -0.1182
10832TIP3    H153911   4.158   0.988   1.861  1.6207 -0.5496 -0.0439
10832TIP3    H253912   4.285   1.015   1.937  0.5582  1.1910  1.1485
10833TIP3   OH253913   2.768   2.998  12.325 -0.0772  0.0754  0.0298
10833TIP3    H153914   2.715   3.074  12.350  1.1496  1.0337 -0.1937
10833TIP3    H253915   2.707   2.925  12.324 -0.9144  0.7119  2.1082
10834TIP3   OH253916   1.434   6.604   2.428  0.2219 -0.4394 -0.4169
10834TIP3    H153917   1.483   6.644   2.500  1.0444 -0.2052 -1.0943
10834TIP3    H253918   1.500   6.586   2.361 -0.8773  1.7063 -2.1406
10835TIP3   OH253919   0.840   2.230   1.434  0.1877  0.4552 -0.7309
10835TIP3    H153920   0.867   2.321   1.449  0.3354  0.8060 -2.9279
10835TIP3    H253921   0.761   2.238   1.380 -1.2408 -0.6906  1.1197
10836TIP3   OH253922   1.491   5.726   1.123  0.7247 -0.2126  0.3155
10836TIP3    H153923   1.572   5.756   1.083  1.6318 -0.2144  2.0883
10836TIP3    H253924   1.437   5.805   1.130  0.9661 -0.0233  0.0429
10837TIP3   OH253925   0.309   2.862   1.906 -0.5283 -0.1017  0.9924
10837TIP3    H153926   0.225   2.863   1.953 -1.5062 -0.3745 -0.7332
10837TIP3    H253927   0.305   2.784   1.851 -0.2659  1.3536 -1.1163
10838TIP3   OH253928   3.524   5.712   2.128 -0.2541  0.3109 -0.2747
10838TIP3    H153929   3.593   5.764   2.086 -0.8137  1.7227  0.5217
10838TIP3    H253930   3.547   5.711   2.221 -1.5362  1.1730  0.0674
10839TIP3   OH253931   1.728   5.198  15.918  0.4681 -0.6105  0.4999
10839TIP3    H153932   1.660   5.181  15.983  2.0069  1.2900  2.7117
10839TIP3    H253933   1.682   5.204  15.835 -1.9872  0.0907  1.8718
10840TIP3   OH253934   6.303   1.605  11.584 -0.1984 -0.2857  0.2657
10840TIP3    H153935   6.361   1.681  11.590  0.7941 -0.9748 -0.4456
10840TIP3    H253936   6.227   1.637  11.535 -0.9370  0.9221  2.1651
10841TIP3   OH253937   1.131   2.585  12.416 -0.5915  0.1685  0.7107
10841TIP3    H153938   1.205   2.556  12.470 -0.9059 -0.8675  0.6024
10841TIP3    H253939   1.073   2.509  12.413 -1.2496  0.6913  0.0767
10842TIP3   OH253940   0.811   0.168  12.969 -1.1805 -0.0468  0.1295
10842TIP3    H153941   0.732   0.150  13.021 -0.3511 -1.3298  0.9818
10842TIP3    H253942   0.808   0.102  12.899 -0.8103 -0.1725  0.2318
10843TIP3   OH253943   5.690   3.940  14.940  0.4024 -0.1788 -0.1212
10843TIP3    H153944   5.611   3.916  14.989 -1.2502  2.2925 -1.4750
10843TIP3    H253945   5.705   4.032  14.963  2.6839 -0.4998 -0.2086
10844TIP3   OH253946   3.650   6.086   5.054  0.1173  0.0799 -0.0142
10844TIP3    H153947   3.563   6.125   5.048  0.3635  0.6237 -0.0552
10844TIP3    H253948   3.636   5.992   5.040 -0.4618  0.1683 -0.0061
10845TIP3   OH253949   0.269   0.863   5.841 -0.1988 -0.0892  0.1215
10845TIP3    H153950   0.303   0.856   5.930 -0.1698 -0.7997  0.0583
10845TIP3    H253951   0.174   0.870   5.852 -0.2637 -1.0222  0.1733
10846TIP3   OH253952   3.756   0.283   2.827  0.1604  0.5191  0.0856
10846TIP3    H153953   3.767   0.305   2.919 -0.2890 -1.6849  0.7011
10846TIP3    H253954   3.675   0.325   2.801 -0.3443  0.1394  1.0467
10847TIP3   OH253955   2.383   2.933  11.456  0.1070 -0.4863  0.3004
10847TIP3    H153956   2.395   3.017  11.500  1.7699 -1.3633  1.6135
10847TIP3    H253957   2.471   2.911  11.423 -0.2899 -1.7184  0.0255
10848TIP3   OH253958   6.651   4.398   2.081  0.4953  0.5037  0.2571
10848TIP3    H153959   6.637   4.344   2.160 -0.5521  1.4736  0.7462
10848TIP3    H253960   6.637   4.337   2.009  0.0803 -0.0742  0.8109
10849TIP3   OH253961   4.192   3.501  15.286  0.1552  0.4645  0.3191
10849TIP3    H153962   4.116   3.467  15.332 -0.4729  0.2923 -0.8330
10849TIP3    H253963   4.177   3.595  15.281  0.3801  0.5243  0.7440
10850TIP3   OH253964   2.411   5.005  10.847 -0.1189 -0.0880 -0.5443
10850TIP3    H153965   2.356   4.935  10.810  0.8754 -1.4249  0.4561
10850TIP3    H253966   2.461   4.962  10.916  1.9882  1.1711 -1.2505
10851TIP3   OH253967   4.191   4.201   2.214  0.1166  0.4916 -0.4632
10851TIP3    H153968   4.234   4.265   2.271  1.5915 -1.5585  0.7881
10851TIP3    H253969   4.253   4.188   2.142  0.0310  0.1136 -0.4685
10852TIP3   OH253970   3.687   6.242  16.438 -0.2610  0.2129  0.0875
10852TIP3    H153971   3.716   6.158  16.402 -0.5957 -0.1430  0.6536
10852TIP3    H253972   3.670   6.224  16.530 -2.1156  0.4635 -0.1995
10853TIP3   OH253973   2.128   6.506   0.647 -0.3938 -0.3656  0.2388
10853TIP3    H153974   2.210   6.555   0.640 -1.3507  1.0497 -1.4559
10853TIP3    H253975   2.147   6.422   0.607  0.4448 -0.3182  0.5202
10854TIP3   OH253976   4.562   1.053   0.414 -0.1100 -0.5433 -0.3825
10854TIP3    H153977   4.525   0.998   0.484  1.3140 -0.7072  0.2597
10854TIP3    H253978   4.566   0.994   0.338  0.3172 -0.9908 -0.0176
10855TIP3   OH253979   6.438   4.672   4.578 -0.5434  0.4626 -0.4822
10855TIP3    H153980   6.518   4.724   4.582 -1.7236  2.2096  1.9111
10855TIP3    H253981   6.368   4.736   4.562 -1.8549 -0.5187  1.0976
10856TIP3   OH253982   0.056   6.108  15.271 -0.2331  0.0156 -0.2555
10856TIP3    H153983  -0.031   6.124  15.307  0.2770  2.0999  0.1074
10856TIP3    H253984   0.081   6.190  15.230  2.2574  0.0084  1.1426
10857TIP3   OH253985   3.207   4.966  12.875  0.2719  0.0346 -0.0907
10857TIP3    H153986   3.249   5.037  12.924 -1.8504  0.1580  1.6209
10857TIP3    H253987   3.202   4.998  12.785 -0.6520  2.0700  0.6574
10858TIP3   OH253988   3.105   5.229  12.203  0.3509  0.3008 -0.7619
10858TIP3    H153989   3.038   5.206  12.267  0.4590 -1.9138 -1.3857
10858TIP3    H253990   3.066   5.209  12.119  0.9741  1.1863 -1.2697
10859TIP3   OH253991   0.063   2.673   2.952 -0.5061  0.1437 -0.1135
10859TIP3    H153992  -0.010   2.611   2.965  0.6733 -1.1861  0.2961
10859TIP3    H253993   0.105   2.677   3.038  1.0457 -0.5687 -0.8312
10860TIP3   OH253994   3.137   3.871   4.647  0.1879 -0.5894  0.0871
10860TIP3    H153995   3.211   3.906   4.696 -0.1303  0.3636 -0.1073
10860TIP3    H253996   3.080   3.832   4.714 -1.3393  2.6786  0.7608
10861TIP3   OH253997   2.754   1.341   5.646  0.1896  0.0071  0.0589
10861TIP3    H153998   2.838   1.373   5.681  0.0629 -0.3741  0.7241
10861TIP3    H253999   2.749   1.378   5.558  0.2285  1.4799  0.6740
10862TIP3   OH254000   6.721   4.260   4.080  0.0743 -0.0842  0.4951
10862TIP3    H154001   6.632   4.240   4.105  0.1039 -0.5359  0.2319
10862TIP3    H254002   6.755   4.180   4.040 -0.2776  0.8859 -1.8407
10863TIP3   OH254003   1.361   5.134   5.072 -0.1656 -0.1985 -0.2906
10863TIP3    H154004   1.287   5.194   5.064 -0.2319 -0.2066  0.2427
10863TIP3    H254005   1.418   5.156   4.998 -1.8490 -1.8152 -2.1236
10864TIP3   OH254006   3.217   3.143   1.423 -0.1456 -0.2432 -0.3852
10864TIP3    H154007   3.145   3.204   1.405 -1.3070 -1.1603  0.9520
10864TIP3    H254008   3.254   3.173   1.506  0.1711 -0.5368 -0.4186
10865TIP3   OH254009   5.224   5.034  14.033  0.2091 -0.1134 -0.3869
10865TIP3    H154010   5.312   5.039  14.071 -0.4923  3.1471  0.9135
10865TIP3    H254011   5.165   5.038  14.108 -1.0903  0.1132 -1.4074
10866TIP3   OH254012   6.749   2.177  14.056 -0.6447  0.5107  0.6771
10866TIP3    H154013   6.690   2.174  13.980  0.4728  1.3203 -0.2596
10866TIP3    H254014   6.829   2.217  14.021 -0.6939  2.4482  2.6831
10867TIP3   OH254015   2.986   4.961  15.182 -0.2483 -0.2589 -0.3450
10867TIP3    H154016   3.073   5.001  15.188 -0.6636  0.7411 -0.8378
10867TIP3    H254017   2.935   5.004  15.251 -0.3048 -0.9767  0.0636
10868TIP3   OH254018   0.810   0.798   0.064  0.3158  0.0172 -0.8100
10868TIP3    H154019   0.862   0.720   0.043  0.9120  0.3794 -0.7115
10868TIP3    H254020   0.872   0.855   0.110 -0.2402  0.3589 -0.4923
10869TIP3   OH254021   6.491   5.442  15.198 -0.2871  0.1493  0.4976
10869TIP3    H154022   6.399   5.446  15.172 -0.0770 -0.0730 -0.2917
10869TIP3    H254023   6.512   5.348  15.199 -0.1115  0.1887  0.8496
10870TIP3   OH254024   0.039   4.069  12.372  0.5522 -0.0010 -0.4502
10870TIP3    H154025   0.038   3.973  12.375 -1.6901  0.0365  1.5191
10870TIP3    H254026   0.092   4.094  12.448  1.1836  0.3405 -0.9965
10871TIP3   OH254027   1.512   6.273   0.478 -0.2142 -0.0923  0.0679
10871TIP3    H154028   1.557   6.197   0.441  1.0573  0.3255  0.7075
10871TIP3    H254029   1.544   6.348   0.428  0.8760  0.3711  1.4139
10872TIP3   OH254030   1.353   4.016  12.245 -0.2863 -0.2204 -0.9551
10872TIP3    H154031   1.295   3.993  12.317 -0.0961  2.6392  0.1678
10872TIP3    H254032   1.300   4.006  12.166 -0.8604 -2.1710 -0.3529
10873TIP3   OH254033   5.278   4.729  15.350  0.1390 -0.4168 -0.2265
10873TIP3    H154034   5.343   4.692  15.409  0.3964 -0.5938 -0.6224
10873TIP3    H254035   5.235   4.653  15.311 -0.3199 -0.3024  0.0495
10874TIP3   OH254036   5.077   1.912   1.502 -0.2237  0.1018  0.1943
10874TIP3    H154037   5.101   1.906   1.410 -0.4344 -0.1243  0.1537
10874TIP3    H254038   5.034   1.997   1.510  0.7211  0.5739  0.3007
10875TIP3   OH254039   0.654   0.844  12.532  0.8887  0.1998 -0.2286
10875TIP3    H154040   0.605   0.853  12.451  1.7570 -0.1922 -0.8080
10875TIP3    H254041   0.700   0.927  12.542  0.4686  0.3962  0.0709
10876TIP3   OH254042   1.366   0.528  15.162  0.0019  0.4080  0.4823
10876TIP3    H154043   1.451   0.572  15.169 -0.3066  1.2463 -0.6955
10876TIP3    H254044   1.378   0.464  15.092 -1.1407  2.6033 -1.8224
10877TIP3   OH254045   6.527   0.872  14.095 -0.1304 -0.1523 -0.1479
10877TIP3    H154046   6.452   0.911  14.141  0.2525  1.5206 -0.9084
10877TIP3    H254047   6.569   0.946  14.051  2.5012 -0.9447  0.9684
10878TIP3   OH254048   1.463   6.096  11.220 -0.1752 -0.2671  0.4015
10878TIP3    H154049   1.445   6.063  11.133  0.1565  0.2323  0.1386
10878TIP3    H254050   1.465   6.192  11.210  2.1110 -0.2777  0.5074
10879TIP3   OH254051   2.981   0.823   3.819 -0.3066  0.4460  0.7256
10879TIP3    H154052   2.996   0.826   3.724  1.3546  1.3635  1.0033
10879TIP3    H254053   2.923   0.898   3.836 -2.4323 -1.0169  0.1508
10880TIP3   OH254054   4.206   3.574  12.219 -0.1466  0.2723  0.2471
10880TIP3    H154055   4.254   3.656  12.229  0.7595 -0.0456 -1.3811
10880TIP3    H254056   4.114   3.600  12.216  0.0566  1.1040  0.9897
10881TIP3   OH254057   3.383   4.612  11.352  0.2026  0.4331 -0.0586
10881TIP3    H154058   3.437   4.547  11.306 -2.0365 -1.6363  0.1308
10881TIP3    H254059   3.295   4.575  11.350 -1.1782  3.6076 -0.1145
10882TIP3   OH254060   5.744   5.509   1.255  1.0175 -0.2591 -0.1089
10882TIP3    H154061   5.685   5.558   1.312  1.7197  1.3105 -0.7350
10882TIP3    H254062   5.818   5.567   1.240  2.1053 -1.6971 -0.4463
10883TIP3   OH254063   2.314   1.662  11.467  0.2185 -0.8720  0.2507
10883TIP3    H154064   2.242   1.720  11.440 -0.0182 -1.6477 -0.8073
10883TIP3    H254065   2.306   1.657  11.562  1.4134  2.3792  0.5959
10884TIP3   OH254066   0.152   4.386   6.090  0.3399  0.1965 -0.6319
10884TIP3    H154067   0.214   4.391   6.163 -1.2854 -0.3267  0.8295
10884TIP3    H254068   0.165   4.299   6.053  1.0374  0.3932 -0.8649
10885TIP3   OH254069   2.814   2.807  14.599 -0.1304  0.6943  0.6679
10885TIP3    H154070   2.867   2.855  14.536  0.4153  0.3348  0.8444
10885TIP3    H254071   2.790   2.872  14.665  1.8349  0.4258  1.6871
10886TIP3   OH254072   1.822   0.931  15.895  0.3818 -0.1812 -0.4790
10886TIP3    H154073   1.757   0.952  15.827  0.3187 -0.8083 -0.6139
10886TIP3    H254074   1.891   0.997  15.884 -0.0976  0.3199 -0.5135
10887TIP3   OH254075   0.721   3.571  13.844  0.3702  0.0214 -0.2694
10887TIP3    H154076   0.717   3.479  13.869  0.0687 -0.0549 -0.5956
10887TIP3    H254077   0.629   3.598  13.834  0.4871  0.0462 -1.2959
10888TIP3   OH254078   2.948   5.835  14.928 -0.8317  0.2792 -0.5335
10888TIP3    H154079   2.938   5.814  15.021  0.4143 -0.8693 -0.6409
10888TIP3    H254080   3.029   5.792  14.902 -1.6211 -0.1681 -2.3760
10889TIP3   OH254081   2.644   4.324  15.012 -0.3026 -0.2420 -0.1495
10889TIP3    H154082   2.712   4.392  15.016 -1.6171  1.0863  0.0584
10889TIP3    H254083   2.693   4.242  15.011  1.2959  0.6588  0.8270
10890TIP3   OH254084   5.701   0.236   4.252  0.3717 -0.4425  0.0135
10890TIP3    H154085   5.675   0.217   4.161 -0.6845 -0.6945  0.3560
10890TIP3    H254086   5.760   0.165   4.276 -1.1957 -1.6870  0.2890
10891TIP3   OH254087   0.222   6.425   3.636 -0.0349  0.1169 -0.3194
10891TIP3    H154088   0.207   6.424   3.730  4.0935 -1.9483  0.4266
10891TIP3    H254089   0.263   6.511   3.620 -0.2039  0.2361 -0.1182
10892TIP3   OH254090   6.683   6.224  14.127 -0.1389  0.4001 -0.2290
10892TIP3    H154091   6.778   6.240  14.126  0.0098 -0.4674 -1.4421
10892TIP3    H254092   6.646   6.301  14.083  0.0580  0.4303 -0.3445
10893TIP3   OH254093   1.933   5.265   2.018  0.7555  0.3035 -0.2678
10893TIP3    H154094   2.029   5.272   2.015  0.7458  0.5456  0.0025
10893TIP3    H254095   1.902   5.356   2.019  0.4329  0.2585 -3.1597
10894TIP3   OH254096   5.789   4.641  17.102 -0.2171  0.1426  0.1261
10894TIP3    H154097   5.770   4.686  17.184  0.2466 -1.6722  1.2495
10894TIP3    H254098   5.761   4.551  17.116 -3.9953  0.6488 -3.1343
10895TIP3   OH254099   1.572   1.797  11.811 -0.0206 -0.4593 -0.1340
10895TIP3    H154100   1.664   1.781  11.789 -0.5285 -0.8472 -2.0246
10895TIP3    H254101   1.572   1.806  11.907  1.9324 -0.7540 -0.0788
10896TIP3   OH254102   0.243   1.869  14.769  0.1562 -0.1855  0.1641
10896TIP3    H154103   0.281   1.883  14.855  1.9312  1.7760 -0.8876
10896TIP3    H254104   0.309   1.902  14.708 -2.1074  0.8159 -1.8471
10897TIP3   OH254105   1.916   2.976   1.819  0.0418  0.2158  0.1284
10897TIP3    H154106   1.845   2.951   1.878  1.9171  1.0804  2.8221
10897TIP3    H254107   1.890   3.062   1.787 -1.6611 -0.8510 -1.4758
10898TIP3   OH254108   2.023   4.404  14.177 -0.2653 -0.2685  0.1529
10898TIP3    H154109   1.933   4.375  14.162 -0.3527  0.1364 -0.0979
10898TIP3    H254110   2.022   4.436  14.267 -0.0562 -1.4661  0.5986
10899TIP3   OH254111   6.580   4.807   1.003  0.1670 -0.3286 -0.2334
10899TIP3    H154112   6.611   4.883   0.954 -0.3054 -1.4106 -2.2267
10899TIP3    H254113   6.659   4.773   1.046  0.9408 -0.5337 -1.8048
10900TIP3   OH254114   5.092   6.761   2.874 -0.0174  0.5154 -0.4380
10900TIP3    H154115   5.078   6.678   2.918 -1.2005  0.2781 -1.2206
10900TIP3    H254116   5.099   6.738   2.781  0.5688  1.1910 -0.5651
10901TIP3   OH254117   5.243   3.731   1.801 -0.1971  0.4531 -0.2643
10901TIP3    H154118   5.159   3.777   1.805  0.1736  1.0671  0.7986
10901TIP3    H254119   5.306   3.799   1.779  0.3621  0.4715  1.3432
10902TIP3   OH254120   5.492   3.985   1.489 -0.1023 -0.2294 -0.5734
10902TIP3    H154121   5.491   3.947   1.401 -1.5346 -0.4344 -0.4652
10902TIP3    H254122   5.409   3.960   1.528 -0.0276  0.9579  0.3797
10903TIP3   OH254123   0.802   1.607   1.902 -0.3833 -0.4145 -0.4953
10903TIP3    H154124   0.789   1.645   1.988 -0.9735 -0.8623 -0.3833
10903TIP3    H254125   0.862   1.667   1.858  0.5089 -0.5733  0.4873
10904TIP3   OH254126   2.764   4.643   0.938 -0.0045 -0.4676 -0.2958
10904TIP3    H154127   2.698   4.680   0.879 -0.5102 -1.5521 -0.4224
10904TIP3    H254128   2.836   4.616   0.880  1.7177  3.0804  0.0799
10905TIP3   OH254129   4.308   1.018  12.623  0.2056  0.2863  0.0147
10905TIP3    H154130   4.315   0.939  12.678  0.6262  0.7279  0.6008
10905TIP3    H254131   4.341   0.990  12.538  0.2984 -0.1946  0.2026
10906TIP3   OH254132   5.115   0.249   2.871 -0.2844 -0.1238  0.3122
10906TIP3    H154133   5.094   0.221   2.960  0.8260 -0.5251  0.4532
10906TIP3    H254134   5.118   0.168   2.821  1.3032 -0.1117  0.3772
10907TIP3   OH254135   0.068   3.981  11.464  0.3363  0.0038 -0.6263
10907TIP3    H154136   0.147   3.966  11.413 -0.2932  0.1794 -1.6660
10907TIP3    H254137   0.010   4.030  11.406  0.3190  1.8692  0.8851
10908TIP3   OH254138   3.385   5.687  16.887 -0.3211 -0.0192  0.1062
10908TIP3    H154139   3.447   5.617  16.906  1.5076  1.9062  1.3317
10908TIP3    H254140   3.299   5.647  16.903  0.6232 -2.2487 -0.1591
10909TIP3   OH254141   1.846   2.636  14.742  0.3123  0.4038  0.3756
10909TIP3    H154142   1.822   2.605  14.655 -1.3376  2.6989 -0.0242
10909TIP3    H254143   1.942   2.645  14.738  0.4133 -1.0437 -0.6711
10910TIP3   OH254144   0.801   3.071  15.639 -0.0164  0.5705  0.1987
10910TIP3    H154145   0.764   3.095  15.723 -0.5660 -0.2895  0.2110
10910TIP3    H254146   0.820   2.977  15.647 -0.0927  0.4782 -0.6391
10911TIP3   OH254147   1.311   2.201   2.178 -0.4235 -0.7482 -0.3203
10911TIP3    H154148   1.279   2.194   2.268  0.9573 -0.3043  0.2128
10911TIP3    H254149   1.406   2.191   2.185 -0.4240 -2.0689 -1.8848
10912TIP3   OH254150   4.308   6.605  13.000  0.1664 -0.2249 -0.1355
10912TIP3    H154151   4.394   6.647  12.990  0.5448 -0.5097  1.7769
10912TIP3    H254152   4.311   6.529  12.942  0.6612  0.5750 -1.1790
10913TIP3   OH254153   3.096   2.671   1.148 -0.4657 -0.4827  0.2690
10913TIP3    H154154   3.021   2.625   1.185  0.7052 -2.6863 -0.0081
10913TIP3    H254155   3.070   2.690   1.057 -1.5087  0.7200  0.8051
10914TIP3   OH254156   1.367   0.233  15.766  0.3205  0.1921  0.9597
10914TIP3    H154157   1.327   0.275  15.690  1.0064  0.0049  0.4913
10914TIP3    H254158   1.424   0.301  15.803  1.8011 -0.4651 -0.0783
10915TIP3   OH254159   0.788   6.406   2.943 -0.2933 -0.0674 -0.3206
10915TIP3    H154160   0.778   6.475   3.008 -0.7424  0.5833 -1.0735
10915TIP3    H254161   0.842   6.444   2.875 -1.2011 -0.1783 -1.1177
10916TIP3   OH254162   0.924   1.451   5.336  0.1209  0.0481 -0.0157
10916TIP3    H154163   0.920   1.547   5.331 -0.3748  0.0232 -0.0662
10916TIP3    H254164   0.957   1.424   5.251  0.8308  0.2089  0.2023
10917TIP3   OH254165   5.787   0.683   5.111 -0.6297  0.3588 -0.0486
10917TIP3    H154166   5.848   0.688   5.185 -1.5780 -0.8811  0.8453
10917TIP3    H254167   5.828   0.623   5.049  0.5219  1.9776 -0.9024
10918TIP3   OH254168   1.284   2.705   5.932  0.1675  0.4179 -0.0713
10918TIP3    H154169   1.335   2.695   5.851 -2.1164 -0.1924 -1.5070
10918TIP3    H254170   1.321   2.782   5.974  2.5008 -0.2311 -0.8578
10919TIP3   OH254171   2.475   3.213  15.764 -0.2523 -0.2423 -0.4606
10919TIP3    H154172   2.525   3.295  15.768  0.0777 -0.4477 -0.3329
10919TIP3    H254173   2.447   3.207  15.673  2.2472 -1.4669 -1.1955
10920TIP3   OH254174   2.043   3.928   1.093  0.2962 -0.2082 -1.2053
10920TIP3    H154175   2.088   4.011   1.100 -0.9991  0.3746  0.5060
10920TIP3    H254176   2.107   3.869   1.052  2.2144  0.8549  0.1855
10921TIP3   OH254177   3.459   1.254   0.932 -0.0606 -0.2297  0.1699
10921TIP3    H154178   3.421   1.202   0.861  0.3990 -0.3700  0.0254
10921TIP3    H254179   3.389   1.260   0.997  0.3657 -2.3476  0.8925
10922TIP3   OH254180   1.843   4.394  14.415 -0.4396 -0.2385 -0.5300
10922TIP3    H154181   1.782   4.467  14.407 -0.7325 -0.5742 -1.3452
10922TIP3    H254182   1.792   4.324  14.457 -0.4001 -0.2604 -0.5179
10923TIP3   OH254183   2.547   3.233   5.254 -0.2067  0.6647 -0.8086
10923TIP3    H154184   2.533   3.294   5.326 -0.2715 -0.9398  0.5600
10923TIP3    H254185   2.482   3.260   5.188 -0.3558  1.9491 -0.1606
10924TIP3   OH254186   2.006   6.767  17.108 -0.5827  0.4663  0.3418
10924TIP3    H154187   1.919   6.737  17.132 -0.8214 -0.1026 -1.2421
10924TIP3    H254188   2.011   6.856  17.144 -1.4481  0.1390  1.2789
10925TIP3   OH254189   2.052   5.186  12.947 -0.4479 -0.3360  0.2135
10925TIP3    H154190   2.117   5.231  12.892  0.9372  1.1113  2.9403
10925TIP3    H254191   1.983   5.251  12.959  0.0341 -0.0461  1.5042
10926TIP3   OH254192   2.997   2.625   0.874 -0.2209 -0.2746  0.4977
10926TIP3    H154193   2.935   2.555   0.852 -0.1925 -0.0283 -0.3813
10926TIP3    H254194   2.980   2.693   0.809  0.5006  0.0812  0.6806
10927TIP3   OH254195   1.386   5.504   0.711 -0.5006 -0.0139  0.2906
10927TIP3    H154196   1.471   5.547   0.721  0.4496 -1.8631  0.4787
10927TIP3    H254197   1.359   5.524   0.621  0.8576 -0.6263 -0.2644
10928TIP3   OH254198   6.421   1.538   0.390 -0.2421 -0.0986  0.1781
10928TIP3    H154199   6.429   1.621   0.344 -0.7577 -0.2645 -0.2033
10928TIP3    H254200   6.499   1.535   0.446  0.0474  0.3974 -0.1913
10929TIP3   OH254201   3.484   5.134  14.258 -0.6991 -0.6252  0.6231
10929TIP3    H154202   3.580   5.129  14.263 -0.4222  2.0970 -0.9360
10929TIP3    H254203   3.461   5.071  14.190  0.3561  1.3218 -1.6004
10930TIP3   OH254204   1.135   1.782   0.021  0.2073  0.0328 -0.1027
10930TIP3    H154205   1.128   1.702   0.074 -0.8488  0.6129  0.6667
10930TIP3    H254206   1.069   1.841   0.059 -0.1492  0.6791 -1.6886
10931TIP3   OH254207   4.560   5.978   5.951  0.1450  0.5680 -0.0517
10931TIP3    H154208   4.609   5.952   6.029 -1.5007 -0.8877  0.5357
10931TIP3    H254209   4.469   5.985   5.981 -0.4080  0.6096 -1.6819
10932TIP3   OH254210   5.988   5.071  14.673  0.0917 -0.2172  0.6172
10932TIP3    H154211   5.961   4.994  14.722  1.8311 -2.1904 -1.4128
10932TIP3    H254212   6.076   5.091  14.706  1.8101 -2.3380 -2.4505
10933TIP3   OH254213   5.434   0.967  14.761  0.2975 -0.1796 -0.3467
10933TIP3    H154214   5.405   1.043  14.812  2.6574  0.5443 -0.0267
10933TIP3    H254215   5.502   0.927  14.815  1.3777 -0.6183 -1.9952
10934TIP3   OH254216   3.049   0.568   1.558  0.0049 -0.3254  0.1548
10934TIP3    H154217   3.137   0.594   1.531 -0.0786  0.8150  0.9834
10934TIP3    H254218   2.998   0.570   1.477  0.4624  0.1452 -0.1249
10935TIP3   OH254219   0.375   4.550   4.348  0.1961 -0.3181 -0.2231
10935TIP3    H154220   0.365   4.536   4.442 -0.4684  1.7280  0.0496
10935TIP3    H254221   0.286   4.540   4.313 -0.1845  2.1893 -0.1121
10936TIP3   OH254222   4.710   1.174   3.856 -0.2324 -0.6277  0.2207
10936TIP3    H154223   4.763   1.101   3.888  2.0561  0.7746 -0.2494
10936TIP3    H254224   4.655   1.135   3.788  1.6323 -1.7496 -0.6972
10937TIP3   OH254225   3.769   0.218   3.389 -0.0271 -0.4860 -0.2626
10937TIP3    H154226   3.708   0.242   3.459 -0.1274  0.7935 -0.7886
10937TIP3    H254227   3.743   0.129   3.364 -0.4869 -0.6516  0.7776
10938TIP3   OH254228   4.556   0.586   2.754  0.4743  0.3182  0.2544
10938TIP3    H154229   4.537   0.507   2.804 -0.4618  1.4886  1.7734
10938TIP3    H254230   4.645   0.611   2.780  2.0537 -1.9450 -2.5859
10939TIP3   OH254231   3.196   1.751   0.733  0.1884  0.2104 -1.1032
10939TIP3    H154232   3.119   1.698   0.752  0.6878 -0.7344 -1.6685
10939TIP3    H254233   3.190   1.768   0.639 -0.1029  1.3788 -0.8800
10940TIP3   OH254234   3.503   3.840  16.050  0.7807 -0.0448 -0.2605
10940TIP3    H154235   3.521   3.861  15.959  0.6069 -0.3757 -0.3699
10940TIP3    H254236   3.488   3.746  16.051  3.7129 -0.5546  0.5525
10941TIP3   OH254237   4.979   0.856   4.390 -0.1734  0.6010 -0.9936
10941TIP3    H154238   4.992   0.948   4.369 -0.6020  0.2974 -2.7029
10941TIP3    H254239   4.921   0.824   4.321 -0.8304 -0.7149  0.1494
10942TIP3   OH254240   0.976   6.173   0.959  0.2100  0.4044 -0.1213
10942TIP3    H154241   1.055   6.213   0.924  0.0972  1.2751  0.5965
10942TIP3    H254242   0.910   6.242   0.956 -0.1840  0.0625  0.4470
10943TIP3   OH254243   3.048   5.949  11.917 -0.2064  0.3068 -0.1208
10943TIP3    H154244   3.093   5.865  11.903  0.7011  0.8112 -0.2486
10943TIP3    H254245   3.003   5.967  11.835  2.8151  1.8762 -1.4894
10944TIP3   OH254246   6.066   0.530   2.752 -0.0354  0.1555  0.3180
10944TIP3    H154247   6.110   0.505   2.671  0.9172 -1.0936  1.2095
10944TIP3    H254248   5.973   0.524   2.731  0.1925 -1.5042 -0.2949
10945TIP3   OH254249   4.387   5.380   0.023  0.0872  0.2826  0.4286
10945TIP3    H154250   4.437   5.336  -0.046  0.9418 -0.0183  1.2141
10945TIP3    H254251   4.346   5.455  -0.020  1.6658  0.8489 -0.1316
10946TIP3   OH254252   4.003   1.651   2.125 -0.3933  0.0546  0.0925
10946TIP3    H154253   3.969   1.740   2.116 -0.6005  0.0771  1.0379
10946TIP3    H254254   4.027   1.625   2.036 -0.0846  1.1501 -0.1530
10947TIP3   OH254255   0.942   0.257   0.241 -0.1780  0.4131  0.1560
10947TIP3    H154256   0.882   0.332   0.247 -2.5596 -1.4525  0.9226
10947TIP3    H254257   0.934   0.226   0.151  0.0922  0.5375  0.0900
10948TIP3   OH254258   2.271   2.537   3.159 -0.1731  0.1713 -0.5902
10948TIP3    H154259   2.355   2.535   3.113  0.1488 -1.7321  0.0454
10948TIP3    H254260   2.206   2.542   3.089  0.2940 -3.1093 -1.3653
10949TIP3   OH254261   0.006   6.209   4.361 -0.0277 -0.1572  0.4664
10949TIP3    H154262   0.095   6.174   4.362  0.2786  0.5595 -0.6317
10949TIP3    H254263  -0.049   6.137   4.390  1.1039 -0.0444  3.0013
10950TIP3   OH254264   3.476   1.931   5.034  0.3524 -0.4359 -0.7512
10950TIP3    H154265   3.419   1.911   5.109  0.2368 -2.4302 -1.3395
10950TIP3    H254266   3.436   2.008   4.994  0.4116  0.6551  1.2336
10951TIP3   OH254267   2.938   1.629   6.205 -0.2458  0.1614 -0.6362
10951TIP3    H154268   2.901   1.685   6.273 -1.4203  0.2216 -1.3117
10951TIP3    H254269   2.923   1.540   6.236 -0.5946  0.1908 -0.7246
10952TIP3   OH254270   3.018   5.547   1.160 -0.1921  0.0528 -0.0165
10952TIP3    H154271   3.097   5.524   1.210 -1.3077 -1.7738  0.9727
10952TIP3    H254272   2.974   5.463   1.147 -0.6764  0.7139 -2.8178
10953TIP3   OH254273   5.894   0.929  11.170 -0.1577  0.2286  0.1747
10953TIP3    H154274   5.893   0.861  11.237 -0.2699  2.1747  2.2066
10953TIP3    H254275   5.978   0.919  11.127  0.4186 -0.3273  1.4040
10954TIP3   OH254276   4.833   3.075  12.753 -0.8750 -0.4998 -0.6232
10954TIP3    H154277   4.819   2.983  12.776 -1.9440 -0.1421  0.2571
10954TIP3    H254278   4.759   3.121  12.793  0.9149  1.0593  1.0450
10955TIP3   OH254279   3.638   6.252   5.451 -0.7099  0.3420  0.5040
10955TIP3    H154280   3.719   6.233   5.404 -0.2610  2.3191  0.4164
10955TIP3    H254281   3.615   6.170   5.495  0.6131 -0.6107 -0.5430
10956TIP3   OH254282   4.522   2.204  13.673 -0.1961 -0.3066 -0.0914
10956TIP3    H154283   4.510   2.142  13.602  1.6692  0.1775 -0.8663
10956TIP3    H254284   4.490   2.287  13.639 -0.0954 -0.2534 -0.0564
10957TIP3   OH254285   6.291   1.339  10.988  0.3052 -0.4854 -0.2364
10957TIP3    H154286   6.282   1.432  10.967 -0.5686 -0.5878 -0.3296
10957TIP3    H254287   6.247   1.328  11.072  0.7262 -0.7499 -0.0455
10958TIP3   OH254288   6.553   6.096  13.560  0.3159 -0.2190  0.2041
10958TIP3    H154289   6.559   6.168  13.623 -2.9413  0.8094 -0.5572
10958TIP3    H254290   6.486   6.038  13.597  2.5717 -2.6562  0.5721
10959TIP3   OH254291   1.743   5.303   1.269 -0.2155 -0.7398  0.1889
10959TIP3    H154292   1.667   5.359   1.288 -0.9575 -1.4691 -0.6250
10959TIP3    H254293   1.717   5.217   1.301  0.9123 -0.6361  1.3941
10960TIP3   OH254294   5.272   3.763  16.267  0.8641 -0.3390 -0.6502
10960TIP3    H154295   5.307   3.709  16.338 -2.4048 -0.5082  0.9121
10960TIP3    H254296   5.283   3.853  16.297 -0.0750 -0.3952 -0.1234
10961TIP3   OH254297   4.970   1.791  12.714 -0.1151 -0.0652  0.4137
10961TIP3    H154298   4.887   1.754  12.683 -0.8585  1.5290  0.4270
10961TIP3    H254299   5.036   1.755  12.655 -1.2515  1.2911 -1.7479
10962TIP3   OH254300   3.246   0.037  16.100 -0.5301 -0.3362  0.3999
10962TIP3    H154301   3.236   0.046  16.195  0.6650 -3.9132  0.9413
10962TIP3    H254302   3.333  -0.001  16.089 -0.8414 -0.3828 -2.0902
10963TIP3   OH254303   1.990   6.151  16.016 -0.1205  0.4415 -0.3564
10963TIP3    H154304   2.049   6.135  16.090 -0.8524 -2.0709 -0.2689
10963TIP3    H254305   2.048   6.182  15.946  0.7685  1.5510  0.8405
10964TIP3   OH254306   0.120   0.624   3.814  0.0828 -0.7596  0.1231
10964TIP3    H154307   0.079   0.701   3.853 -1.6482 -1.9407  0.7439
10964TIP3    H254308   0.207   0.620   3.854 -1.1522 -1.1579  2.8904
10965TIP3   OH254309   5.742   1.829   5.859  0.0342  0.1708 -0.3384
10965TIP3    H154310   5.833   1.849   5.879 -0.5252  1.1244  1.3793
10965TIP3    H254311   5.705   1.912   5.828 -0.6067  0.1434  0.3421
10966TIP3   OH254312   2.015   6.703  14.985 -0.3043  0.1545  0.5654
10966TIP3    H154313   2.083   6.636  14.990 -2.0792 -1.6621  1.1374
10966TIP3    H254314   1.964   6.679  14.907 -0.5372  1.2616  0.3670
10967TIP3   OH254315   5.871   0.269  11.593  0.2171  0.0866  0.0867
10967TIP3    H154316   5.886   0.186  11.547 -1.0058 -0.4281  0.5764
10967TIP3    H254317   5.952   0.318  11.581  0.7334 -0.9295 -0.7385
10968TIP3   OH254318   6.374   0.711  16.743 -0.6135 -0.2825 -0.1564
10968TIP3    H154319   6.358   0.741  16.653 -2.4370  0.9707  0.5573
10968TIP3    H254320   6.337   0.623  16.746  1.7799 -1.3846 -1.3299
10969TIP3   OH254321   0.231   6.300   3.065  0.7510 -0.0840  0.4070
10969TIP3    H154322   0.239   6.279   3.158  0.4876 -0.0620  0.4334
10969TIP3    H254323   0.174   6.377   3.063  0.6342 -0.1782  0.2138
10970TIP3   OH254324   5.802   1.808   2.925 -0.1101  0.2528  0.2487
10970TIP3    H154325   5.802   1.876   2.857 -0.2593 -0.0947 -0.0972
10970TIP3    H254326   5.894   1.782   2.933  0.0682  1.0699  0.9587
10971TIP3   OH254327   5.682   4.402  17.171 -0.1469 -0.0689 -0.3253
10971TIP3    H154328   5.652   4.320  17.210  0.5895 -0.1732  0.0283
10971TIP3    H254329   5.626   4.469  17.210  0.2507 -0.2346  0.5437
10972TIP3   OH254330   4.969   3.256  10.907 -0.3892 -0.3544 -0.3447
10972TIP3    H154331   5.014   3.297  10.833  0.0181  0.4627  0.3435
10972TIP3    H254332   4.929   3.178  10.870  2.9365 -2.0113 -0.6630
10973TIP3   OH254333   4.569   5.422   2.931 -0.0009  0.3023  0.0379
10973TIP3    H154334   4.503   5.393   2.993  0.0382 -0.5560 -0.3227
10973TIP3    H254335   4.653   5.398   2.970  0.1021  1.2581  0.4260
10974TIP3   OH254336   1.395   6.036  16.215 -0.2977  0.0827 -0.0090
10974TIP3    H154337   1.477   6.060  16.171  0.5286 -0.9554  0.9516
10974TIP3    H254338   1.418   5.962  16.271 -1.6850  0.3986  1.0077
10975TIP3   OH254339   5.801   4.132   2.405 -0.4433 -0.4822 -0.3273
10975TIP3    H154340   5.712   4.142   2.373 -0.2780 -0.1684 -0.6872
10975TIP3    H254341   5.838   4.221   2.404  0.1109 -0.7147 -0.8762
10976TIP3   OH254342   6.404   0.417  11.996  0.3583 -0.2045  0.2440
10976TIP3    H154343   6.350   0.348  12.033  0.8496 -0.8494 -0.2381
10976TIP3    H254344   6.370   0.498  12.035  0.0767 -0.7597  1.1515
10977TIP3   OH254345   3.834   5.181  10.852 -0.8342 -0.3288  0.2035
10977TIP3    H154346   3.772   5.188  10.779 -0.8110  2.1747  0.3853
10977TIP3    H254347   3.778   5.176  10.930 -0.8239  0.4264  0.2594
10978TIP3   OH254348   3.510   5.137  14.566 -0.4129  0.2885  0.1467
10978TIP3    H154349   3.587   5.082  14.556 -1.1887 -0.9044  0.7021
10978TIP3    H254350   3.537   5.222  14.531  1.1591 -0.1075  0.3780
10979TIP3   OH254351   4.000   2.749  12.686  0.2185 -0.2578 -0.0370
10979TIP3    H154352   3.956   2.832  12.705  0.4120 -0.1617 -0.0157
10979TIP3    H254353   4.077   2.773  12.635  0.6438 -0.3728  0.5559
10980TIP3   OH254354   1.571   3.664   3.662  0.3833  0.0646 -0.0323
10980TIP3    H154355   1.625   3.726   3.614 -0.4294  1.2517  0.5709
10980TIP3    H254356   1.530   3.716   3.732  0.4660 -1.3381  1.0899
10981TIP3   OH254357   6.284   1.125   4.610 -0.1925  0.2836  0.0859
10981TIP3    H154358   6.371   1.157   4.632  0.0951 -1.0867  1.0272
10981TIP3    H254359   6.299   1.061   4.540 -0.2778 -0.9409  1.1667
10982TIP3   OH254360   5.828   4.480   1.717  0.0668  0.4033  0.0990
10982TIP3    H154361   5.905   4.485   1.660 -0.4455  0.5020 -0.5802
10982TIP3    H254362   5.854   4.418   1.785  1.0232  1.0041  0.2928
10983TIP3   OH254363   3.732   0.897   2.187  0.2208  0.8107  0.3488
10983TIP3    H154364   3.714   0.970   2.128 -1.2970  0.0888 -0.1124
10983TIP3    H254365   3.781   0.834   2.133  0.3867  0.9173  0.3737
10984TIP3   OH254366   6.326   4.524   4.825 -0.2659  0.2305  0.2606
10984TIP3    H154367   6.397   4.469   4.857 -0.9612 -0.8245 -0.0109
10984TIP3    H254368   6.365   4.576   4.754  0.4511  0.2897  0.6990
10985TIP3   OH254369   5.326   5.204   4.865  0.6896 -0.6043  0.5841
10985TIP3    H154370   5.268   5.269   4.904  1.0144 -2.2582  4.0406
10985TIP3    H254371   5.414   5.234   4.889  1.0991  0.0446 -1.6570
10986TIP3   OH254372   6.201   5.702  11.808  0.0928 -0.2556 -0.1662
10986TIP3    H154373   6.172   5.772  11.749  0.6623  0.8560  0.8388
10986TIP3    H254374   6.165   5.726  11.893 -1.3947 -2.2711 -0.2082
10987TIP3   OH254375   1.248   1.962   5.634 -0.5308 -0.1497  0.0832
10987TIP3    H154376   1.269   1.993   5.722  0.1852  1.1632 -0.5424
10987TIP3    H254377   1.211   2.038   5.589 -0.3723 -0.6529 -0.9268
10988TIP3   OH254378   0.325   2.820  11.104  0.2138 -0.4221  0.1340
10988TIP3    H154379   0.249   2.763  11.109  0.2889 -0.3716  1.9226
10988TIP3    H254380   0.391   2.768  11.057 -0.3321 -1.1163  0.1311
10989TIP3   OH254381   4.817   6.629  15.705  0.4229  0.0773 -0.5178
10989TIP3    H154382   4.910   6.636  15.685  1.0345 -0.2613  2.0156
10989TIP3    H254383   4.788   6.551  15.656  2.3083 -1.9240  1.4522
10990TIP3   OH254384   4.524   4.223   2.548 -0.0859 -0.4698  0.3869
10990TIP3    H154385   4.577   4.165   2.604 -0.5107 -1.5907 -0.3648
10990TIP3    H254386   4.439   4.227   2.592 -0.0483 -0.3816  0.4526
10991TIP3   OH254387   1.190   4.919  12.200  0.1491 -0.3085 -0.3622
10991TIP3    H154388   1.216   4.934  12.110  1.2893 -2.4133 -0.4147
10991TIP3    H254389   1.194   5.005  12.242 -0.1947  0.6340 -2.2459
10992TIP3   OH254390   6.122   3.198  11.740  0.2871 -0.0748 -0.0862
10992TIP3    H154391   6.173   3.138  11.794 -1.7344 -1.2676  0.5465
10992TIP3    H254392   6.160   3.192  11.653  1.7680 -0.2754  0.5632
10993TIP3   OH254393   2.838   0.462   5.614  0.3468 -0.1317  0.1840
10993TIP3    H154394   2.877   0.550   5.615  1.3399 -0.5001 -2.1517
10993TIP3    H254395   2.882   0.417   5.542  0.2545 -2.7564  1.7206
10994TIP3   OH254396   3.166   5.338  11.874  0.9177  0.0068 -0.3730
10994TIP3    H154397   3.112   5.261  11.892  1.6117 -0.3507  0.2350
10994TIP3    H254398   3.212   5.317  11.793  0.3756  0.1888 -0.7309
10995TIP3   OH254399   4.871   6.694   2.315  0.2796 -0.1860 -0.1665
10995TIP3    H154400   4.842   6.782   2.339  0.6159  0.0040 -0.4648
10995TIP3    H254401   4.883   6.697   2.220 -1.8328 -1.1593 -0.5032
10996TIP3   OH254402   6.413   3.880  11.829 -0.1092  0.2860  0.5481
10996TIP3    H154403   6.395   3.787  11.818  0.5909  0.2470 -0.3515
10996TIP3    H254404   6.341   3.924  11.784 -0.8663  0.1919  1.6547
10997TIP3   OH254405   6.110   2.763   4.325  0.1347 -0.4239  0.9114
10997TIP3    H154406   6.140   2.684   4.280 -0.0433 -0.1495  0.3004
10997TIP3    H254407   6.080   2.820   4.254  1.6127  0.7736  1.2327
10998TIP3   OH254408   2.362   1.474  12.668  0.3485  0.0960 -0.4843
10998TIP3    H154409   2.419   1.408  12.628  1.5939  0.5194  0.5725
10998TIP3    H254410   2.396   1.558  12.637  0.9361  0.3972  0.9139
10999TIP3   OH254411   5.480   5.193   2.386 -0.3081 -1.0308  0.0803
10999TIP3    H154412   5.436   5.252   2.447 -0.1994 -0.6658 -0.1938
10999TIP3    H254413   5.544   5.146   2.440  0.4085 -0.0640  0.0729
11000TIP3   OH254414   5.197   3.355   4.323  0.4100 -0.0291  0.0508
11000TIP3    H154415   5.257   3.390   4.389 -0.6951  2.6339 -0.2656
11000TIP3    H254416   5.237   3.378   4.239 -0.2107  0.3182 -0.1603
11001TIP3   OH254417   2.314   5.129   5.769 -0.3052 -0.3414  0.1154
11001TIP3    H154418   2.340   5.089   5.852 -0.4994 -2.6762 -0.8960
11001TIP3    H254419   2.248   5.193   5.792 -1.5708 -2.1409  1.6171
11002TIP3   OH254420   3.406   0.015   3.592  0.0996 -0.2764  0.2328
11002TIP3    H154421   3.355  -0.014   3.517 -2.1831  2.4187  0.6171
11002TIP3    H254422   3.399  -0.056   3.655 -0.3621 -1.3603 -1.0303
11003TIP3   OH254423   2.863   4.190   3.735 -0.3578 -0.0418 -0.3167
11003TIP3    H154424   2.797   4.227   3.676 -0.6362  2.5250  1.5514
11003TIP3    H254425   2.822   4.111   3.770 -1.2557 -0.0835 -1.4266
11004TIP3   OH254426   3.301   0.924   0.783 -0.2909 -0.5261  0.1267
11004TIP3    H154427   3.358   0.877   0.723  0.4495  0.8138 -0.2335
11004TIP3    H254428   3.306   1.016   0.755  0.2955  0.1691  2.3940
11005TIP3   OH254429   2.161   3.838   6.106  0.4624 -0.2261 -0.1311
11005TIP3    H154430   2.218   3.914   6.097  1.1333 -0.2984  2.8596
11005TIP3    H254431   2.107   3.857   6.183  1.8009 -3.3963  1.7235
11006TIP3   OH254432   6.586   3.716  15.416  0.2973  0.2116 -1.0537
11006TIP3    H154433   6.569   3.631  15.458  1.7172  1.8290  3.0325
11006TIP3    H254434   6.501   3.745  15.385 -1.1650 -0.4491  2.0905
11007TIP3   OH254435   5.603   0.814   2.943 -0.3472 -0.6102  0.0516
11007TIP3    H154436   5.531   0.786   2.886 -0.4217 -0.6375  0.1594
11007TIP3    H254437   5.598   0.755   3.018 -0.5761 -0.2312  0.3335
11008TIP3   OH254438   1.316   0.255  15.060  0.5434 -0.2181  0.0820
11008TIP3    H154439   1.224   0.274  15.077  0.5762  0.3531 -0.3687
11008TIP3    H254440   1.332   0.171  15.104  0.0442  0.1273  0.9453
11009TIP3   OH254441   5.378   4.427   5.856  0.2736  0.3177  0.3054
11009TIP3    H154442   5.435   4.485   5.806  1.4709 -1.0857 -0.0244
11009TIP3    H254443   5.428   4.407   5.935 -0.7076  0.8236  1.0608
11010TIP3   OH254444   4.135   1.937   1.749  0.3710 -0.0923  0.0113
11010TIP3    H154445   4.131   1.888   1.831 -0.0687  0.6264  0.4219
11010TIP3    H254446   4.174   2.021   1.773 -0.2752  0.3287 -0.4114
11011TIP3   OH254447   2.871   0.216   1.471 -0.2300  0.2786 -0.0461
11011TIP3    H154448   2.925   0.147   1.510 -0.3293  1.8521  3.0214
11011TIP3    H254449   2.801   0.168   1.426 -0.3958 -1.6807  2.1555
11012TIP3   OH254450   2.231   3.442  11.276 -0.6397  0.2732 -0.7748
11012TIP3    H154451   2.164   3.485  11.222 -1.3664 -0.5788 -0.5704
11012TIP3    H254452   2.236   3.353  11.242  0.1930  0.2531 -0.5990
11013TIP3   OH254453   6.421   1.921   2.970  0.0453 -0.0530 -0.6460
11013TIP3    H154454   6.344   1.931   3.026 -0.2200 -1.4453 -0.7462
11013TIP3    H254455   6.448   2.011   2.950 -1.9665  0.4679 -1.1617
11014TIP3   OH254456   3.722   1.702   4.643 -0.3403 -0.1532 -0.0367
11014TIP3    H154457   3.740   1.714   4.550  2.2154 -0.3515  0.4123
11014TIP3    H254458   3.720   1.790   4.680  0.3072 -0.1584  0.0133
11015TIP3   OH254459   4.602   0.349  11.485 -0.2726  0.5034  0.1928
11015TIP3    H154460   4.623   0.331  11.393 -2.8628 -1.9791 -0.0155
11015TIP3    H254461   4.585   0.262  11.523  1.8753  1.3831  3.3451
11016TIP3   OH254462   1.055   1.987   0.656 -0.2743  0.3020  0.8314
11016TIP3    H154463   1.083   2.064   0.605  0.1624  0.8785  1.9222
11016TIP3    H254464   1.100   1.997   0.740 -1.1116 -0.5564  1.3863
11017TIP3   OH254465   3.285   5.672  15.319  0.4543  0.2577 -0.3711
11017TIP3    H154466   3.379   5.658  15.330  0.4966  1.1729  0.5282
11017TIP3    H254467   3.263   5.624  15.239  1.6629 -0.0385 -0.5428
11018TIP3   OH254468   0.973   6.243  16.287 -0.3050  0.6333  0.2203
11018TIP3    H154469   0.955   6.287  16.370  1.2071  1.2964  0.2149
11018TIP3    H254470   1.052   6.287  16.253 -0.3721 -0.2447 -1.1143
11019TIP3   OH254471   5.363   4.808   1.368  0.0071 -0.6095  0.2463
11019TIP3    H154472   5.322   4.825   1.284  2.4885  2.1871 -0.4813
11019TIP3    H254473   5.413   4.727   1.355 -0.4242 -0.7296 -0.6561
11020TIP3   OH254474   4.477   0.827  10.445  0.3824  0.1693 -0.3221
11020TIP3    H154475   4.493   0.900  10.385  0.7682  1.1511  0.9687
11020TIP3    H254476   4.482   0.866  10.532  1.7303 -1.6247  0.4192
11021TIP3   OH254477   1.073   4.057   4.855  0.7473  0.0604 -0.5537
11021TIP3    H154478   1.075   4.061   4.950 -1.0193  0.6591 -0.5301
11021TIP3    H254479   1.114   3.973   4.834 -1.1034 -1.2289  0.8543
11022TIP3   OH254480   3.366   2.692   1.188 -0.1209 -0.0073  0.0841
11022TIP3    H154481   3.281   2.663   1.154 -0.0294 -1.6567  1.1767
11022TIP3    H254482   3.413   2.724   1.112 -2.4366  2.7483 -0.2600
11023TIP3   OH254483   0.087   5.626   0.603  0.3409  0.2411 -0.4204
11023TIP3    H154484   0.000   5.614   0.564  0.9524 -0.6646 -1.5049
11023TIP3    H254485   0.102   5.546   0.653  1.3347 -0.4373 -1.7623
11024TIP3   OH254486   6.070   2.553   5.715  0.1260  0.3607  0.3227
11024TIP3    H154487   6.139   2.614   5.740  0.6862 -0.7354  1.5342
11024TIP3    H254488   6.107   2.504   5.641  0.3870  0.2522  0.5231
11025TIP3   OH254489   6.769   4.098  12.954  0.4325 -0.4239 -0.1860
11025TIP3    H154490   6.703   4.055  12.900  0.6467 -1.1559  0.1301
11025TIP3    H254491   6.834   4.129  12.891  0.6503 -1.2213 -0.3631
11026TIP3   OH254492   0.799   5.483   0.430  0.3083 -0.0966 -0.2256
11026TIP3    H154493   0.767   5.421   0.364  0.6002 -0.6154  0.1200
11026TIP3    H254494   0.856   5.431   0.486  1.1412  0.6423 -0.3713
11027TIP3   OH254495   1.105   0.243  14.663 -0.2777 -0.5570  0.2427
11027TIP3    H154496   1.133   0.188  14.736  0.0954  1.0107  1.2839
11027TIP3    H254497   1.038   0.300  14.699 -0.8735 -0.5080 -0.9096
11028TIP3   OH254498   4.082   2.785  16.779  0.0982 -0.3695 -0.2429
11028TIP3    H154499   4.152   2.850  16.773  1.2255 -1.3377  1.7759
11028TIP3    H254500   4.001   2.836  16.775  0.8705  0.7753 -2.5994
11029TIP3   OH254501   5.468   0.043  12.733 -0.1963 -0.5130 -0.1355
11029TIP3    H154502   5.393   0.102  12.739  1.2341  1.2799  0.4879
11029TIP3    H254503   5.543   0.098  12.754  1.1186 -2.7029  1.0632
11030TIP3   OH254504   4.657   3.358   4.640  0.3146 -0.1664  0.4822
11030TIP3    H154505   4.641   3.284   4.700  0.3863 -0.6781 -0.1238
11030TIP3    H254506   4.660   3.318   4.553 -1.1857  0.7580 -0.0148
11031TIP3   OH254507   2.912   4.791   1.162 -0.6327  0.0197 -0.6952
11031TIP3    H154508   2.954   4.706   1.172 -0.6518  0.2456  1.6358
11031TIP3    H254509   2.852   4.780   1.088 -2.6402 -2.8568  1.2546
11032TIP3   OH254510   1.847   5.873  16.887 -0.1405  0.3860  0.0990
11032TIP3    H154511   1.785   5.870  16.960 -0.5905  0.5217 -0.2726
11032TIP3    H254512   1.841   5.786  16.847 -0.8075  0.7098 -0.5190
11033TIP3   OH254513   6.646   0.332   2.501 -0.3512 -0.4074 -0.0084
11033TIP3    H154514   6.580   0.264   2.492 -2.8841  1.8800  0.8171
11033TIP3    H254515   6.680   0.322   2.589 -3.2487  1.5239  1.4084
11034TIP3   OH254516   2.356   4.276  15.758 -0.0557  0.4085  0.0953
11034TIP3    H154517   2.396   4.217  15.822  0.4316  0.4455 -0.1705
11034TIP3    H254518   2.404   4.358  15.767 -0.4120  0.6149  0.1264
11035TIP3   OH254519   0.251   6.453  12.837 -0.2359 -0.8436 -0.6737
11035TIP3    H154520   0.199   6.396  12.781  0.0924 -1.5170 -0.3035
11035TIP3    H254521   0.306   6.504  12.777  0.6817 -2.1213 -0.9286
11036TIP3   OH254522   5.077   6.513  15.926 -0.1867  0.0913 -0.5419
11036TIP3    H154523   5.159   6.562  15.940  0.8656 -1.9593  0.6523
11036TIP3    H254524   5.008   6.579  15.933  1.2015  1.4062  1.0512
11037TIP3   OH254525   6.111   3.277  12.919  0.1164 -0.7773 -0.3185
11037TIP3    H154526   6.083   3.211  12.855  2.7204 -0.1329 -2.2108
11037TIP3    H254527   6.146   3.225  12.992 -0.1777 -1.5121 -0.6890
11038TIP3   OH254528   4.990   2.861   3.769  0.2125 -0.7860  0.1898
11038TIP3    H154529   5.014   2.769   3.782  1.2561 -0.9416 -2.5366
11038TIP3    H254530   4.963   2.866   3.677 -1.6524  1.2729  0.8003
11039TIP3   OH254531   5.280   0.804  13.184  0.2382 -0.4425 -0.4513
11039TIP3    H154532   5.205   0.840  13.231  1.1316 -0.7001  1.2021
11039TIP3    H254533   5.248   0.721  13.147 -0.0751 -0.9529  0.9335
11040TIP3   OH254534   1.191   4.355   3.471  0.5308  0.3038  0.3677
11040TIP3    H154535   1.277   4.397   3.475 -0.7930  2.9686  1.6263
11040TIP3    H254536   1.148   4.379   3.553 -1.2664 -1.3974 -0.0281
11041TIP3   OH254537   4.922   6.737  12.316  0.1451  0.0356  0.0145
11041TIP3    H154538   4.840   6.715  12.272  0.3242  0.3430 -0.4771
11041TIP3    H254539   4.988   6.732  12.247  0.4900  0.0996  0.3395
11042TIP3   OH254540   6.578   4.226   0.560  0.0203 -0.1831  0.8540
11042TIP3    H154541   6.498   4.202   0.607 -2.7417  0.7246 -3.1585
11042TIP3    H254542   6.578   4.322   0.562  1.2664 -0.1830  1.1848
11043TIP3   OH254543   1.829   5.183  12.194 -0.2870  0.3170 -0.3425
11043TIP3    H154544   1.812   5.089  12.190  0.3336  0.2325 -1.2973
11043TIP3    H254545   1.884   5.200  12.117  0.1044  1.3506  0.1605
11044TIP3   OH254546   1.822   2.127  13.068 -0.3771 -0.0430  0.3223
11044TIP3    H154547   1.846   2.146  13.159 -0.2334  1.1890  0.0342
11044TIP3    H254548   1.791   2.036  13.070 -1.0817  0.2091  1.7495
11045TIP3   OH254549   0.406   0.082   1.079  0.1308  0.2877  0.0792
11045TIP3    H154550   0.425   0.151   1.015  0.5976  0.5779  0.5360
11045TIP3    H254551   0.391   0.004   1.026  0.3872  0.5592 -0.3950
11046TIP3   OH254552   2.372   0.184  15.376  0.3565 -0.7518 -0.2126
11046TIP3    H154553   2.440   0.211  15.315  0.5607 -1.3002 -0.2359
11046TIP3    H254554   2.413   0.116  15.429  0.5073  0.4510  1.2366
11047TIP3   OH254555   6.507   1.546   5.572  0.0027 -0.6991 -0.3151
11047TIP3    H154556   6.455   1.595   5.635 -0.1160 -0.5288 -0.5406
11047TIP3    H254557   6.539   1.470   5.620 -2.0022 -1.7972 -0.6729
11048TIP3   OH254558   1.532   5.425   2.279  0.1565  0.2028 -0.1895
11048TIP3    H154559   1.598   5.488   2.306  2.2958 -2.0557  0.1030
11048TIP3    H254560   1.558   5.399   2.190 -1.3534  0.5661 -0.7544
11049TIP3   OH254561   0.149   3.261  12.614  0.1308  0.5410  0.2151
11049TIP3    H154562   0.066   3.241  12.658 -0.7055  2.2533 -0.5166
11049TIP3    H254563   0.177   3.344  12.653  0.7312  0.7300 -0.5995
11050TIP3   OH254564   3.387   2.429  13.961 -0.6844 -0.7078 -0.4202
11050TIP3    H154565   3.430   2.363  13.907 -1.0073 -0.1656 -1.3351
11050TIP3    H254566   3.294   2.419  13.941 -0.6190  0.9127 -1.5494
11051TIP3   OH254567   2.384   3.757   1.055 -0.0286 -0.0968 -0.4375
11051TIP3    H154568   2.393   3.821   1.125 -1.2754  1.4423 -1.6574
11051TIP3    H254569   2.326   3.690   1.090  2.0104 -1.0863  1.1810
11052TIP3   OH254570   1.189   3.364  13.031  0.5418 -0.3442  0.2203
11052TIP3    H154571   1.104   3.375  13.074  0.9061  2.1665  0.3517
11052TIP3    H254572   1.167   3.341  12.941 -0.3515  2.6807 -0.3861
11053TIP3   OH254573   1.938   4.061   0.714 -0.1966  0.2069  0.5618
11053TIP3    H154574   2.019   4.092   0.672 -0.3016  0.0233  0.2171
11053TIP3    H254575   1.901   3.999   0.651  0.4001 -1.2117  1.5709
11054TIP3   OH254576   3.024   3.057   1.636 -0.2956  0.2964 -0.0618
11054TIP3    H154577   2.959   3.014   1.581 -0.7980 -0.1347  0.8646
11054TIP3    H254578   3.003   3.030   1.725  1.6164 -0.4774  0.1840
11055TIP3   OH254579   5.100   5.717  11.543  0.0094 -0.1067  0.2465
11055TIP3    H154580   5.138   5.643  11.590  0.2050  1.5306  2.7660
11055TIP3    H254581   5.176   5.766  11.512 -0.1030 -0.1008 -0.0192
11056TIP3   OH254582   4.768   1.319  15.030 -0.6155 -0.1001 -0.4359
11056TIP3    H154583   4.759   1.413  15.048 -1.6985 -0.1387 -0.7354
11056TIP3    H254584   4.696   1.279  15.079  0.4048 -0.8782  0.4598
11057TIP3   OH254585   4.549   0.067   5.130  0.1656 -0.2481  0.2038
11057TIP3    H154586   4.493   0.032   5.061  0.6301  1.0210 -0.8310
11057TIP3    H254587   4.507   0.039   5.212  0.5813 -3.2931 -0.5615
11058TIP3   OH254588   1.655   0.766  13.553  0.0359 -0.0218  0.5222
11058TIP3    H154589   1.629   0.677  13.577  1.9318 -0.5240  0.8189
11058TIP3    H254590   1.702   0.799  13.630  0.6130  0.7011 -0.1320
11059TIP3   OH254591   6.336   0.818   0.943  0.0912 -0.0705 -0.2007
11059TIP3    H154592   6.358   0.803   1.035  1.2347  0.1388 -0.4351
11059TIP3    H254593   6.249   0.779   0.933  0.4072 -1.0519  0.7132
11060TIP3   OH254594   1.501   3.907  12.813  0.3567  0.0908  0.0014
11060TIP3    H154595   1.491   3.937  12.903  0.7108  1.5007 -0.4157
11060TIP3    H254596   1.495   3.987  12.760  1.2223 -0.5908 -1.1495
11061TIP3   OH254597   1.311   6.308  15.706  0.2395  0.3002  0.3514
11061TIP3    H154598   1.361   6.252  15.647 -1.7396 -1.1175 -0.0328
11061TIP3    H254599   1.334   6.277  15.794 -0.2513 -0.6149  0.1640
11062TIP3   OH254600   5.720   5.526  12.358 -1.0006  0.0074 -0.3155
11062TIP3    H154601   5.809   5.492  12.348 -0.6383  0.4587  1.1563
11062TIP3    H254602   5.727   5.619  12.339 -0.9499  0.2278  0.7165
11063TIP3   OH254603   3.521   3.808   3.824 -0.8122 -0.0849 -0.0349
11063TIP3    H154604   3.478   3.723   3.835  0.2632 -0.6116  0.1420
11063TIP3    H254605   3.451   3.872   3.837 -1.3167 -0.9148  1.4262
11064TIP3   OH254606   4.032   5.287   5.256 -0.1086  0.0530 -0.0898
11064TIP3    H154607   4.103   5.344   5.286 -0.3142 -0.1149  0.7339
11064TIP3    H254608   3.954   5.321   5.298 -0.2717 -0.6869  0.2164
11065TIP3   OH254609   0.954   6.662  17.085 -0.1234 -0.2583 -0.2784
11065TIP3    H154610   0.950   6.659  17.181 -0.9109  2.3733 -0.1992
11065TIP3    H254611   0.889   6.597  17.057  1.3463 -2.3010  0.9433
11066TIP3   OH254612   3.601   4.136   4.170  0.7173 -0.3328  0.0377
11066TIP3    H154613   3.616   4.113   4.078  2.3079  1.2460 -0.1305
11066TIP3    H254614   3.672   4.196   4.191 -0.3254  0.2572  1.9627
11067TIP3   OH254615   5.786   4.644   4.328  0.4484  0.3141 -0.1284
11067TIP3    H154616   5.767   4.575   4.266 -0.0430  0.5926 -0.2867
11067TIP3    H254617   5.754   4.724   4.286 -0.9647  0.3482  0.9734
11068TIP3   OH254618   0.985   5.713   2.827 -0.1521 -0.5292  0.1812
11068TIP3    H154619   1.080   5.709   2.838 -0.1259 -1.1572 -0.2165
11068TIP3    H254620   0.950   5.720   2.916  0.2852  0.2176  0.2970
11069TIP3   OH254621   1.269   1.267   3.336 -0.0262  0.3778 -0.1780
11069TIP3    H154622   1.344   1.262   3.396  0.4021  1.1721 -0.6270
11069TIP3    H254623   1.205   1.207   3.372  0.9930 -0.6263 -0.0089
11070TIP3   OH254624   4.125   6.096  15.470 -0.0240  0.3546  0.6147
11070TIP3    H154625   4.169   6.018  15.436 -0.6386 -0.0553  0.7535
11070TIP3    H254626   4.048   6.063  15.514  0.2900  0.9601  1.6395
11071TIP3   OH254627   1.406   3.024  14.561  0.0647 -0.5529  0.2160
11071TIP3    H154628   1.315   3.054  14.557  0.6737  1.4705  1.0002
11071TIP3    H254629   1.433   3.016  14.470 -1.1030 -1.8672 -0.0333
11072TIP3   OH254630   4.668   5.931  11.476 -0.1816  0.1294 -0.2188
11072TIP3    H154631   4.711   5.869  11.535 -0.9310 -0.3304 -0.1491
11072TIP3    H254632   4.701   5.909  11.389 -0.6076 -0.5044 -0.2195
11073TIP3   OH254633   1.129   2.074   6.076  0.1389  0.4156  0.7178
11073TIP3    H154634   1.146   2.045   6.165  1.2668  2.4348  1.1852
11073TIP3    H254635   1.044   2.118   6.081 -0.9798 -1.6015  0.2559
11074TIP3   OH254636   2.161   3.514   1.089  0.4813 -0.2952  0.4860
11074TIP3    H154637   2.135   3.442   1.032 -0.8365 -0.7813  1.6962
11074TIP3    H254638   2.119   3.591   1.051  1.1760 -0.2846 -0.2945
11075TIP3   OH254639   3.236   0.450   1.966 -0.3350  0.1489 -0.0809
11075TIP3    H154640   3.224   0.541   1.939 -2.3904 -0.6267 -1.9551
11075TIP3    H254641   3.190   0.444   2.050 -0.6148  0.7169 -0.1893
11076TIP3   OH254642   0.052   5.764  15.623 -0.3580 -0.8036  0.0439
11076TIP3    H154643   0.135   5.721  15.642 -0.4856 -0.3139  1.8020
11076TIP3    H254644   0.074   5.833  15.561  0.6570 -0.3141  0.9413
11077TIP3   OH254645   0.328   6.730  12.289 -0.5417 -0.3935  0.0462
11077TIP3    H154646   0.255   6.670  12.277 -0.1489 -0.3948 -2.4881
11077TIP3    H254647   0.401   6.689  12.244  0.9139 -0.0973  2.0396
11078TIP3   OH254648   0.955   2.884   3.587  0.0835 -0.1984 -0.5329
11078TIP3    H154649   1.010   2.898   3.664 -0.0826  0.9883 -0.6163
11078TIP3    H254650   0.866   2.904   3.617 -0.0553 -0.2845 -0.8842
11079TIP3   OH254651   0.731   1.761  13.236  0.0581  0.1968 -0.5092
11079TIP3    H154652   0.734   1.792  13.145 -0.8840 -1.3014 -1.0676
11079TIP3    H254653   0.816   1.718  13.249  2.1633  4.5299  0.8765
11080TIP3   OH254654   6.404   0.024  17.124 -0.3354  0.6033  0.0498
11080TIP3    H154655   6.419   0.117  17.108 -1.4474  0.2629 -3.4208
11080TIP3    H254656   6.452  -0.021  17.055 -2.3602 -1.2350 -0.2368
11081TIP3   OH254657   2.774   0.610  13.860  0.5353  0.2070  0.1808
11081TIP3    H154658   2.816   0.631  13.943  2.1258 -2.1518  0.0114
11081TIP3    H254659   2.843   0.622  13.795  0.1893 -1.0104 -0.4232
11082TIP3   OH254660   4.973   0.915   3.659 -0.1472 -0.3561 -0.2613
11082TIP3    H154661   4.953   0.979   3.589 -0.6984 -2.0985 -1.7350
11082TIP3    H254662   5.061   0.939   3.688 -0.5958  1.4795 -0.3537
11083TIP3   OH254663   6.360   4.408   4.106 -0.2141  0.4631 -0.0455
11083TIP3    H154664   6.394   4.497   4.103 -1.7338  1.0297 -0.8540
11083TIP3    H254665   6.376   4.379   4.195  0.1030  1.6181  0.2775
11084TIP3   OH254666   2.370   2.732   4.671 -0.0817  0.5988 -0.2896
11084TIP3    H154667   2.446   2.761   4.721  0.9498 -1.8993 -0.3018
11084TIP3    H254668   2.406   2.689   4.593 -1.5698  1.2674 -1.3896
11085TIP3   OH254669   2.242   4.048  16.726 -0.3922 -0.1442 -0.5656
11085TIP3    H154670   2.295   4.037  16.646 -0.1101 -2.3642 -0.1010
11085TIP3    H254671   2.156   4.074  16.693 -0.6161 -2.2028 -1.7005
11086TIP3   OH254672   4.692   2.085  14.424  0.1083  0.3914  0.0303
11086TIP3    H154673   4.710   2.066  14.516  1.2725  1.1724 -0.0234
11086TIP3    H254674   4.621   2.149  14.427 -0.7951 -0.6047  0.3328
11087TIP3   OH254675   4.715   1.290  16.146  0.1902  0.2906 -0.7334
11087TIP3    H154676   4.686   1.279  16.056 -0.5954  1.0190 -0.5715
11087TIP3    H254677   4.774   1.365  16.143  1.5760 -0.7813 -0.9444
11088TIP3   OH254678   3.384   6.520  16.440  0.1097 -0.0168  0.0308
11088TIP3    H154679   3.472   6.551  16.418  0.7585 -0.8691  1.3474
11088TIP3    H254680   3.354   6.474  16.362  0.0090  1.9946 -1.1536
11089TIP3   OH254681   3.873   1.872  16.448  0.3100  0.2251 -0.4699
11089TIP3    H154682   3.927   1.841  16.374 -0.1760 -0.3189 -0.6016
11089TIP3    H254683   3.785   1.844  16.426  0.0587  0.6287  0.0205
11090TIP3   OH254684   1.282   5.395   1.563  0.7355 -0.0838  0.2768
11090TIP3    H154685   1.335   5.316   1.565 -0.5422 -1.0387 -1.5546
11090TIP3    H254686   1.224   5.383   1.487  0.5587  2.6239 -0.0662
11091TIP3   OH254687   2.525   4.237  12.872  0.0719  0.2380  0.1978
11091TIP3    H154688   2.575   4.301  12.922  1.4435  0.8597 -1.9078
11091TIP3    H254689   2.507   4.166  12.934  1.3448  1.1764  1.6628
11092TIP3   OH254690   3.973   1.732  13.716  0.7740 -0.4725 -0.3124
11092TIP3    H154691   4.055   1.756  13.674 -0.1552  0.0406 -1.8812
11092TIP3    H254692   3.998   1.677  13.790  2.6126  0.9433  0.1413
11093TIP3   OH254693   3.870   3.415  15.200 -0.2079  0.5581  0.2346
11093TIP3    H154694   3.894   3.366  15.121  1.2945 -0.0333  1.0439
11093TIP3    H254695   3.777   3.435  15.189  0.3654  2.0159 -2.5413
11094TIP3   OH254696   3.386   2.876  11.410  0.0036  0.8380 -0.4120
11094TIP3    H154697   3.297   2.912  11.409  0.6821  2.5838  0.3599
11094TIP3    H254698   3.381   2.802  11.470 -0.4043  2.3867  1.5050
11095TIP3   OH254699   2.596   5.405  16.062  0.0579 -0.1653 -0.3402
11095TIP3    H154700   2.633   5.456  15.990 -0.3053  1.0653  0.3224
11095TIP3    H254701   2.502   5.423  16.057 -0.1207 -1.1238 -0.3651
11096TIP3   OH254702   6.163   6.631   2.563 -0.6615 -0.4922 -0.4540
11096TIP3    H154703   6.230   6.680   2.515  0.1977  0.9084  2.0765
11096TIP3    H254704   6.168   6.542   2.529  0.6226  0.2293 -2.1913
11097TIP3   OH254705   4.853   5.029   5.575 -0.2038  0.7192  0.7111
11097TIP3    H154706   4.884   4.943   5.547  3.7454  2.6961 -1.4153
11097TIP3    H254707   4.911   5.052   5.648  0.1090  2.4054 -0.0510
11098TIP3   OH254708   3.245   1.328  14.705 -0.8435  0.2622 -0.0509
11098TIP3    H154709   3.156   1.358  14.691 -0.8444  0.2349 -0.1048
11098TIP3    H254710   3.287   1.398  14.755 -1.3690 -0.4348  1.4001
11099TIP3   OH254711   4.717   2.670   6.336  0.7053 -0.2980  0.4231
11099TIP3    H154712   4.659   2.738   6.372 -0.1509 -1.2280  0.8358
11099TIP3    H254713   4.805   2.704   6.349  0.3185  0.3284  1.4708
11100TIP3   OH254714   1.345   1.179   1.352 -0.3188  0.1465  0.0906
11100TIP3    H154715   1.352   1.271   1.325 -0.4423  0.3323  0.7000
11100TIP3    H254716   1.274   1.178   1.416 -1.2360 -0.5977 -0.9141
11101TIP3   OH254717   1.255   2.219   1.278  0.1173  0.1799 -0.2969
11101TIP3    H154718   1.175   2.196   1.232  0.6253 -1.6544 -0.2808
11101TIP3    H254719   1.324   2.215   1.212  0.4286  0.2093  0.0212
11102TIP3   OH254720   6.731   3.801   3.517  0.5909 -0.1629 -0.0156
11102TIP3    H154721   6.643   3.802   3.555 -1.2770  2.1431 -4.0379
11102TIP3    H254722   6.774   3.878   3.553  0.4042 -0.4069  0.7348
11103TIP3   OH254723   1.811   0.140  16.739  0.0849  0.3270 -0.2951
11103TIP3    H154724   1.904   0.140  16.759  0.1049 -2.0587 -0.1869
11103TIP3    H254725   1.770   0.174  16.819  0.6900 -1.6130  0.8872
11104TIP3   OH254726   6.315   3.292  14.445  0.5014 -0.7272  0.5927
11104TIP3    H154727   6.353   3.350  14.380  0.5099 -2.3605 -0.8830
11104TIP3    H254728   6.267   3.350  14.504  0.1556  0.7317 -1.0950
11105TIP3   OH254729   2.886   5.854   3.888 -0.5432 -0.1276 -0.0985
11105TIP3    H154730   2.844   5.921   3.942 -0.0509  0.6070 -0.6032
11105TIP3    H254731   2.858   5.771   3.925 -1.1888  0.3650  0.5232
11106TIP3   OH254732   0.198   1.766   1.136  0.3270  0.0179 -0.7397
11106TIP3    H154733   0.227   1.738   1.050  1.5608  1.9548 -0.9782
11106TIP3    H254734   0.187   1.685   1.185  0.8854 -1.0304 -2.3158
11107TIP3   OH254735   3.017   4.595   2.550  0.2647 -0.1193  0.3900
11107TIP3    H154736   2.937   4.548   2.526  1.8011 -2.3915 -0.4435
11107TIP3    H254737   3.004   4.684   2.517 -2.4292 -0.1117  1.3895
11108TIP3   OH254738   3.603   3.410  15.137 -0.4946  0.4126  0.2527
11108TIP3    H154739   3.521   3.459  15.139 -1.0534 -0.5124  0.6289
11108TIP3    H254740   3.579   3.322  15.168  0.2486 -0.4545 -1.5814
11109TIP3   OH254741   2.286   0.944  11.335  0.0911  0.3670 -0.5910
11109TIP3    H154742   2.352   1.009  11.314 -0.5563  0.2532 -3.1393
11109TIP3    H254743   2.286   0.884  11.260 -0.3382 -1.7500  1.0395
11110TIP3   OH254744   2.953   5.970  13.350 -0.0228 -0.1008 -0.1017
11110TIP3    H154745   3.024   5.917  13.314 -0.8579 -0.8486 -0.6848
11110TIP3    H254746   2.898   5.991  13.274 -0.8826 -0.2655  0.4593
11111TIP3   OH254747   1.307   3.325  15.020  0.2066 -0.1690  0.2695
11111TIP3    H154748   1.246   3.250  15.018  0.6805 -0.5521  0.0668
11111TIP3    H254749   1.306   3.359  14.931 -1.7475  1.4925  0.8774
11112TIP3   OH254750   0.131   4.181  15.959  0.2449  0.5592  0.0279
11112TIP3    H154751   0.214   4.199  16.003 -0.9193  0.0316  2.5282
11112TIP3    H254752   0.154   4.122  15.887  2.0152  0.2395  0.8293
11113TIP3   OH254753   2.421   6.353  15.107  0.2034  0.0844 -0.3667
11113TIP3    H154754   2.510   6.389  15.098  0.6386 -1.1941 -1.3374
11113TIP3    H254755   2.433   6.259  15.104 -1.3485 -0.0965 -2.1895
11114TIP3   OH254756   5.975   2.285   0.350  0.2673 -1.0537  0.2304
11114TIP3    H154757   6.062   2.288   0.389  1.1556 -0.7366 -1.7463
11114TIP3    H254758   5.965   2.195   0.319 -0.5143 -1.3553  1.2993
11115TIP3   OH254759   6.630   4.087  13.202  0.4346  0.3276  0.4846
11115TIP3    H154760   6.566   4.153  13.230 -1.0663 -0.7105 -0.4433
11115TIP3    H254761   6.680   4.131  13.133  0.4040  0.9920  0.8794
11116TIP3   OH254762   4.900   1.813   4.822 -0.0956  0.7190  0.2109
11116TIP3    H154763   4.942   1.817   4.736 -0.6341 -0.1337 -0.1038
11116TIP3    H254764   4.972   1.822   4.885  0.2820  1.4507 -0.3269
11117TIP3   OH254765   3.907   4.932   0.785  0.1009 -0.0217  0.0541
11117TIP3    H154766   3.827   4.901   0.741 -0.4994  2.1368 -0.4366
11117TIP3    H254767   3.878   5.008   0.836  1.2835 -0.9994  2.2411
11118TIP3   OH254768   6.612   6.655   5.004  0.3756  0.2456  0.3759
11118TIP3    H154769   6.518   6.676   4.999  0.1141 -1.2800 -1.1990
11118TIP3    H254770   6.632   6.663   5.097 -1.8105 -1.4316  1.0471
11119TIP3   OH254771   6.654   3.110  14.367  0.0901 -0.5100 -0.0627
11119TIP3    H154772   6.744   3.125  14.395  0.3192 -1.8832 -0.0566
11119TIP3    H254773   6.655   3.024  14.326 -1.6252 -1.3894  1.7027
11120TIP3   OH254774   3.715   0.511  11.729 -0.0151  0.0270  0.1571
11120TIP3    H154775   3.663   0.462  11.792  0.3334 -1.1542 -0.4596
11120TIP3    H254776   3.651   0.552  11.671 -0.2690 -2.4454 -1.3711
11121TIP3   OH254777   1.359   3.064  17.119 -0.0804  0.1052 -0.0397
11121TIP3    H154778   1.267   3.059  17.144 -1.3280 -1.0482 -4.3645
11121TIP3    H254779   1.405   3.009  17.182 -2.9634 -2.6109 -0.1947
11122TIP3   OH254780   1.420   1.070   0.627 -0.4621 -0.4310 -0.2405
11122TIP3    H154781   1.337   1.088   0.583 -0.0646  1.2260 -0.3401
11122TIP3    H254782   1.465   1.008   0.569 -0.6320  0.4739 -1.3562
11123TIP3   OH254783   1.048   4.784   5.230  0.2391 -0.0850  0.0345
11123TIP3    H154784   1.070   4.750   5.317  0.1744 -1.3004 -0.4193
11123TIP3    H254785   1.125   4.765   5.176  0.6070  1.4034  0.0214
11124TIP3   OH254786   3.334   2.729   5.687  0.4385  0.0420 -0.5744
11124TIP3    H154787   3.387   2.653   5.664  1.2852  0.8302 -1.2690
11124TIP3    H254788   3.398   2.799   5.703 -0.3009  0.4610  0.6232
11125TIP3   OH254789   0.228   0.120   6.516  0.1607 -0.4475 -0.0659
11125TIP3    H154790   0.259   0.071   6.592  0.7460 -0.1478 -0.1137
11125TIP3    H254791   0.248   0.211   6.536  0.9055 -0.4355 -0.8720
11126TIP3   OH254792   2.499   2.561   2.994 -0.4157  0.2433  0.2722
11126TIP3    H154793   2.495   2.656   2.985  2.9568  0.5688  1.5233
11126TIP3    H254794   2.558   2.532   2.924 -0.0034 -0.7096  0.9954
11127TIP3   OH254795   4.978   1.094   1.450  0.4836  0.0331 -0.0694
11127TIP3    H154796   4.947   1.063   1.535  0.8713 -1.4797 -0.4520
11127TIP3    H254797   4.938   1.180   1.439  0.6655  0.3755  1.7690
11128TIP3   OH254798   1.594   3.830  15.308 -0.0465 -0.1601  0.1560
11128TIP3    H154799   1.617   3.825  15.400 -0.3315  1.4026  0.3194
11128TIP3    H254800   1.676   3.809  15.262  0.3846  0.1748  0.7626
11129TIP3   OH254801   5.787   3.269  15.567  0.1013  0.3373  0.2015
11129TIP3    H154802   5.719   3.277  15.500 -0.9292  1.2923  1.3323
11129TIP3    H254803   5.750   3.207  15.631  0.3982  0.6391  0.6731
11130TIP3   OH254804   1.376   1.163  11.617 -0.0860  0.0529 -0.3564
11130TIP3    H154805   1.327   1.165  11.535  0.8192 -0.6750 -0.9190
11130TIP3    H254806   1.464   1.193  11.594  0.2009 -0.2457  0.3232
11131TIP3   OH254807   5.131   3.098   4.256 -0.5443 -0.4801  0.1749
11131TIP3    H154808   5.127   3.165   4.188  1.5492 -3.0267 -2.5701
11131TIP3    H254809   5.167   3.143   4.332  2.2389  1.2022 -2.0523
11132TIP3   OH254810   4.994   1.925  12.015  0.2958  0.3948  0.0353
11132TIP3    H154811   5.006   1.834  12.041 -0.1945  0.0352 -0.9524
11132TIP3    H254812   5.008   1.975  12.095 -1.1438 -0.6621  0.9916
11133TIP3   OH254813   6.772   1.284   1.372  0.2805  0.1283 -0.0502
11133TIP3    H154814   6.816   1.236   1.301  0.9874  0.4650  0.1573
11133TIP3    H254815   6.695   1.231   1.392 -0.4078  0.4818 -1.6754
11134TIP3   OH254816   1.264   4.737  11.250  0.4042 -0.0167 -0.0808
11134TIP3    H154817   1.194   4.781  11.202  1.6766  0.6802 -1.3122
11134TIP3    H254818   1.245   4.644  11.241  0.1944  0.1393 -1.2711
11135TIP3   OH254819   1.905   5.916  14.195  0.1937 -0.3541 -0.0273
11135TIP3    H154820   1.887   5.835  14.148 -0.6546 -0.9028  1.2261
11135TIP3    H254821   1.936   5.888  14.281  0.5916  0.6448  0.1643
11136TIP3   OH254822   4.688   5.478  16.715  0.2866 -0.3206  0.0753
11136TIP3    H154823   4.650   5.397  16.682 -0.7442  0.4855 -0.7752
11136TIP3    H254824   4.717   5.525  16.636  0.2600  0.4294  0.5014
11137TIP3   OH254825   2.169   5.135  16.107 -0.4204  0.2526  0.4318
11137TIP3    H154826   2.161   5.202  16.175 -1.2314  2.1110 -1.4448
11137TIP3    H254827   2.226   5.174  16.040 -2.3117 -0.1876 -1.5001
11138TIP3   OH254828   5.138   3.456  13.567  0.3774  0.5298  0.0056
11138TIP3    H154829   5.194   3.525  13.603  0.3526  0.3189  0.4543
11138TIP3    H254830   5.093   3.497  13.494  2.1381  0.3140 -1.2171
11139TIP3   OH254831   2.398   5.847   6.354  0.0612  0.0441 -0.4204
11139TIP3    H154832   2.396   5.833   6.449  1.2250 -2.3942 -0.7273
11139TIP3    H254833   2.477   5.899   6.340 -0.4898  1.0154  0.0035
11140TIP3   OH254834   5.146   1.876   0.695 -0.1364 -0.2129 -0.3756
11140TIP3    H154835   5.088   1.800   0.697 -1.9298  1.1409  2.2669
11140TIP3    H254836   5.093   1.945   0.654  1.1448 -0.0811 -1.8737
11141TIP3   OH254837   0.416   6.104   0.324  0.3084 -0.1064  0.1255
11141TIP3    H154838   0.433   6.010   0.322 -0.5990 -0.2420 -1.6501
11141TIP3    H254839   0.321   6.111   0.327  0.3921  0.7645  1.7541
11142TIP3   OH254840   0.195   4.155  11.083  0.3566 -0.6521  0.2141
11142TIP3    H154841   0.138   4.213  11.134 -1.5954 -1.6344 -0.7670
11142TIP3    H254842   0.283   4.189  11.097 -0.4032  0.6389  2.1759
11143TIP3   OH254843   5.639   6.635  13.453 -0.6589  0.0574 -0.2548
11143TIP3    H154844   5.565   6.685  13.488  0.3014  0.8393  0.6793
11143TIP3    H254845   5.602   6.548  13.436 -1.9586  0.6313 -0.4356
11144TIP3   OH254846   6.561   5.277  15.930 -0.6132 -0.0828 -0.0934
11144TIP3    H154847   6.556   5.320  15.844 -1.0953 -1.7153 -0.8939
11144TIP3    H254848   6.654   5.260  15.943 -0.7256 -1.8012 -1.3090
11145TIP3   OH254849   5.050   2.794  11.363  0.2868  0.0274  0.1401
11145TIP3    H154850   5.067   2.799  11.269  0.7164 -2.1539  0.0765
11145TIP3    H254851   5.002   2.875  11.383  0.6917  0.7864 -1.8313
11146TIP3   OH254852   2.053   6.076  11.306 -0.1348  0.1036  0.0818
11146TIP3    H154853   1.971   6.069  11.353  0.9560  0.2835  2.0442
11146TIP3    H254854   2.037   6.031  11.223 -2.3651  0.6339  0.2132
11147TIP3   OH254855   1.195   0.698   5.100  0.2497  0.8073 -0.1756
11147TIP3    H154856   1.146   0.734   5.174 -0.6271  1.4703 -1.0514
11147TIP3    H254857   1.133   0.701   5.027  0.8300 -0.6104 -0.7431
11148TIP3   OH254858   6.355   0.150  10.793 -0.0156  0.4728  0.6668
11148TIP3    H154859   6.335   0.125  10.883  1.4446 -1.3571  0.5215
11148TIP3    H254860   6.357   0.067  10.745 -0.1092  1.3604 -0.9078
11149TIP3   OH254861   3.041   0.380  15.987  1.0874 -0.4981  0.2752
11149TIP3    H154862   2.967   0.369  16.047  1.6618 -1.7094  0.7848
11149TIP3    H254863   3.092   0.452  16.025  1.0334 -0.7411  0.8093
11150TIP3   OH254864   3.355   2.327   2.046 -0.2164  0.0376 -0.5976
11150TIP3    H154865   3.405   2.367   2.117  1.5173  0.9978 -2.3084
11150TIP3    H254866   3.398   2.243   2.031 -0.8558 -0.3588 -0.2250
11151TIP3   OH254867   2.752   6.743   5.214 -0.4861  0.1174  0.3560
11151TIP3    H154868   2.681   6.761   5.154  0.0962  0.7984 -0.1306
11151TIP3    H254869   2.773   6.828   5.253  0.2221 -0.0313  0.3081
11152TIP3   OH254870   3.431   0.761   4.292 -0.1319 -0.0546 -0.0928
11152TIP3    H154871   3.461   0.729   4.377  0.7306  0.8379 -0.0517
11152TIP3    H254872   3.392   0.685   4.250 -1.0290 -0.3846  1.3117
11153TIP3   OH254873   1.426   3.357  16.582  0.3697  0.3625  0.1318
11153TIP3    H154874   1.426   3.291  16.512 -1.4316 -0.0381  0.4943
11153TIP3    H254875   1.470   3.433  16.543  1.4393 -0.6394 -0.6619
11154TIP3   OH254876   3.323   1.062  13.871  0.3038  0.5116 -0.3955
11154TIP3    H154877   3.416   1.062  13.896  0.2856 -0.0844 -0.3134
11154TIP3    H254878   3.295   1.153  13.881  0.3090  0.3010  1.6694
11155TIP3   OH254879   2.184   1.616  11.167 -0.2367  0.6458  0.0662
11155TIP3    H154880   2.175   1.711  11.157 -1.6589  0.2766 -2.5759
11155TIP3    H254881   2.247   1.591  11.100 -0.7433 -0.4131 -0.0226
11156TIP3   OH254882   2.998   0.572  10.792 -0.3329 -0.0003  0.2742
11156TIP3    H154883   3.029   0.482  10.784  0.5637  0.1380  1.8783
11156TIP3    H254884   3.056   0.623  10.735 -0.6837 -0.4057 -0.4455
11157TIP3   OH254885   2.990   4.810   1.533  0.0293 -0.3143  0.0443
11157TIP3    H154886   3.030   4.834   1.450 -0.1792 -1.7587 -0.4926
11157TIP3    H254887   2.897   4.800   1.513 -0.3937  1.5459  0.9563
11158TIP3   OH254888   3.547   3.693   3.139 -0.4693  0.6623  0.1420
11158TIP3    H154889   3.460   3.733   3.136 -0.5928  0.2964 -1.3404
11158TIP3    H254890   3.598   3.741   3.075  0.0265 -0.0264  0.0125
11159TIP3   OH254891   0.624   4.728  12.610  0.0420  0.2455 -0.6168
11159TIP3    H154892   0.664   4.648  12.575  1.4783  1.0177 -0.7769
11159TIP3    H254893   0.560   4.697  12.673  0.6199 -1.0444 -0.6483
11160TIP3   OH254894   4.835   6.603  16.500  0.0213 -0.0636 -0.4703
11160TIP3    H154895   4.849   6.638  16.413 -1.0981  0.2691 -0.5246
11160TIP3    H254896   4.797   6.516  16.486  4.2939 -2.0921 -0.3702
11161TIP3   OH254897   3.078   0.804   0.925 -0.3089 -0.0360  0.3534
11161TIP3    H154898   3.051   0.818   1.015  0.3337  0.5552  0.4579
11161TIP3    H254899   3.149   0.867   0.910 -0.4000 -0.1331 -0.5581
11162TIP3   OH254900   5.761   5.110  15.314  0.2771 -0.4285 -0.0897
11162TIP3    H154901   5.837   5.167  15.326 -0.0160 -0.2066  0.7939
11162TIP3    H254902   5.701   5.137  15.383 -0.4972 -0.7815 -0.6182
11163TIP3   OH254903   5.599   3.708   2.339 -0.2173 -0.3438  0.1795
11163TIP3    H154904   5.608   3.788   2.286 -1.0087 -0.1278  0.3654
11163TIP3    H254905   5.517   3.720   2.387  0.2255 -0.7810  1.0500
11164TIP3   OH254906   3.570   1.719   5.539 -0.3792  0.6284 -0.6189
11164TIP3    H154907   3.567   1.812   5.558  0.7875 -0.0385  3.1182
11164TIP3    H254908   3.480   1.689   5.552 -0.0380  0.5979  1.9351
11165TIP3   OH254909   3.910   1.460  11.750  0.2518  0.6798 -0.4549
11165TIP3    H154910   3.822   1.424  11.761  1.1382 -1.2936  0.4858
11165TIP3    H254911   3.923   1.460  11.655  0.3705 -2.0104 -0.4985
11166TIP3   OH254912   3.934   6.378   3.910  0.1471 -0.9981 -0.8597
11166TIP3    H154913   3.850   6.336   3.930  0.3573 -1.0358 -0.0467
11166TIP3    H254914   3.920   6.471   3.929  0.8725 -1.2884  1.1974
11167TIP3   OH254915   4.575   2.713  11.984 -0.4711  0.4086 -0.0195
11167TIP3    H154916   4.559   2.718  12.078 -0.6510 -2.4463  0.1453
11167TIP3    H254917   4.489   2.698  11.945 -0.4133  1.6968 -0.6562
11168TIP3   OH254918   3.402   3.030   0.356 -0.2976 -0.0147 -0.3676
11168TIP3    H154919   3.393   3.100   0.421  0.1455 -1.7111  1.5835
11168TIP3    H254920   3.313   3.008   0.331 -0.4961  0.2558  0.1102
11169TIP3   OH254921   3.178   6.080  12.386  0.0018  0.1045 -0.0298
11169TIP3    H154922   3.098   6.131  12.402  0.3226 -0.4923  4.1180
11169TIP3    H254923   3.175   6.060  12.293 -3.6148  1.8707 -0.4136
11170TIP3   OH254924   3.100   0.898   2.330  0.3430  0.1058 -0.3178
11170TIP3    H154925   3.108   0.977   2.382 -2.7275  1.2972 -1.5490
11170TIP3    H254926   3.182   0.892   2.281  1.1020  1.8018  0.7300
11171TIP3   OH254927   0.603   0.048   4.990  0.6528 -0.4078  0.4452
11171TIP3    H154928   0.520   0.056   5.036 -0.0841 -2.7470 -0.4145
11171TIP3    H254929   0.660   0.114   5.031 -0.4348 -1.3404  3.5743
11172TIP3   OH254930   2.172   5.666  15.586 -0.1389 -0.4470  0.1509
11172TIP3    H154931   2.108   5.692  15.652 -0.2745  0.9119 -0.4924
11172TIP3    H254932   2.163   5.572  15.579 -2.3115 -0.2270 -0.1743
11173TIP3   OH254933   5.606   3.200  11.003  0.3138  0.1833 -0.5290
11173TIP3    H154934   5.666   3.272  11.021  0.0191  0.6669 -1.4351
11173TIP3    H254935   5.648   3.152  10.931 -0.2668  0.3843 -1.0026
11174TIP3   OH254936   0.159   1.986  13.035  0.2852 -0.5650  0.5272
11174TIP3    H154937   0.249   2.018  13.037  0.8903 -2.0483 -1.2374
11174TIP3    H254938   0.120   2.016  13.117  1.1449  3.5413 -0.4563
11175TIP3   OH254939   6.270   1.469   0.599 -0.1500 -0.5931  0.4374
11175TIP3    H154940   6.202   1.537   0.597 -0.4922 -0.9575 -0.5790
11175TIP3    H254941   6.309   1.472   0.512  1.5484  0.0130  1.2034
11176TIP3   OH254942   4.251   4.115   3.362 -1.1853  0.0736 -0.3564
11176TIP3    H154943   4.323   4.179   3.360  0.1408 -1.2711  2.1041
11176TIP3    H254944   4.191   4.148   3.428  0.4848 -2.1786  2.3691
11177TIP3   OH254945   4.520   2.843  15.494  0.5797 -0.5729  0.2446
11177TIP3    H154946   4.557   2.909  15.435 -1.3750 -0.6278 -1.0707
11177TIP3    H254947   4.451   2.890  15.542  1.1732 -0.9125  1.4512
11178TIP3   OH254948   0.342   2.843  14.595  0.5818 -0.0703 -0.3046
11178TIP3    H154949   0.352   2.855  14.689 -0.9012  1.0445 -0.2814
11178TIP3    H254950   0.247   2.837  14.581  0.7515  0.5466 -1.8182
11179TIP3   OH254951   1.653   0.414   4.758 -0.3082 -0.4733 -0.4854
11179TIP3    H154952   1.561   0.409   4.784  0.6367 -0.3471  3.0119
11179TIP3    H254953   1.685   0.324   4.765  0.0316 -0.3994 -1.0251
11180TIP3   OH254954   3.114   5.214  14.662 -0.2100 -0.7058 -0.5734
11180TIP3    H154955   3.082   5.248  14.578  0.0569  2.0286  0.3821
11180TIP3    H254956   3.192   5.266  14.681 -1.6945  0.4856  2.5744
11181TIP3   OH254957   0.428   3.250   2.917 -0.3487 -0.4819 -0.0044
11181TIP3    H154958   0.454   3.179   2.858 -0.2415  0.0244 -0.5691
11181TIP3    H254959   0.357   3.294   2.871  0.3603  0.4898 -0.1743
11182TIP3   OH254960   5.350   0.982  12.463 -0.7589  0.0466 -0.3223
11182TIP3    H154961   5.382   1.004  12.551  0.4248  0.7654 -0.9329
11182TIP3    H254962   5.284   1.049  12.444 -2.4325 -1.2337  0.7929
11183TIP3   OH254963   0.197   2.300   3.570 -0.1817  0.2135 -0.3100
11183TIP3    H154964   0.256   2.231   3.600 -1.3691 -1.6589 -2.1202
11183TIP3    H254965   0.242   2.340   3.496 -0.7051 -0.5195 -1.0341
11184TIP3   OH254966   2.874   2.581  13.996  0.1260  0.3953 -0.0316
11184TIP3    H154967   2.943   2.560  14.060  0.0235  0.0083 -0.0439
11184TIP3    H254968   2.797   2.601  14.050 -0.7216 -2.5676 -0.0434
11185TIP3   OH254969   4.739   5.659  10.844  0.2453 -0.3273 -1.1362
11185TIP3    H154970   4.649   5.687  10.832  0.2631  0.8164  1.1681
11185TIP3    H254971   4.733   5.584  10.903  0.7823 -0.3666 -1.1312
11186TIP3   OH254972   2.275   2.258  12.227 -0.2981 -0.4085 -0.2644
11186TIP3    H154973   2.240   2.221  12.146 -1.6308  2.2928 -0.9697
11186TIP3    H254974   2.234   2.344  12.234  0.4018 -0.2706  2.8892
11187TIP3   OH254975   2.499   4.205   2.601  0.0850  0.1358  0.1617
11187TIP3    H154976   2.415   4.176   2.565  0.1832  0.0882 -0.0343
11187TIP3    H254977   2.564   4.151   2.555  0.2059 -0.0132  0.5040
11188TIP3   OH254978   4.077   2.811   1.340  0.0716  0.4820 -0.0201
11188TIP3    H154979   4.064   2.902   1.314 -0.9901  0.7729  1.4899
11188TIP3    H254980   4.059   2.809   1.434 -2.1324 -1.6787 -0.4113
11189TIP3   OH254981   3.716   6.386   5.692 -0.3535 -0.1031  0.2753
11189TIP3    H154982   3.669   6.351   5.616 -0.6951 -0.5748  0.6988
11189TIP3    H254983   3.742   6.309   5.742  1.2316  0.1345 -0.1534
11190TIP3   OH254984   1.868   0.057   4.273 -0.2720 -0.2638  0.1728
11190TIP3    H154985   1.866  -0.036   4.254  2.1456 -0.3519  0.2019
11190TIP3    H254986   1.901   0.063   4.363 -1.5149  0.5804  0.5864
11191TIP3   OH254987   5.879   2.085   1.656 -0.3056  0.6398  0.2887
11191TIP3    H154988   5.855   2.168   1.615 -0.7631  0.6212  0.5091
11191TIP3    H254989   5.924   2.110   1.737  2.5401  0.6967 -1.2615
11192TIP3   OH254990   6.076   5.599   1.774 -0.9375 -0.2495 -0.3850
11192TIP3    H154991   6.124   5.613   1.692 -1.2937  0.0505 -0.5397
11192TIP3    H254992   5.998   5.653   1.766 -0.0882  1.2209  0.9038
11193TIP3   OH254993   1.588   6.442   0.288 -0.3463  0.0802 -0.2559
11193TIP3    H154994   1.551   6.453   0.200 -0.7077  1.3705  0.0454
11193TIP3    H254995   1.640   6.521   0.302  1.1874 -0.9647 -0.0098
11194TIP3   OH254996   0.547   0.138  16.855  0.0872  0.1442 -0.5971
11194TIP3    H154997   0.562   0.117  16.948 -0.7306  0.2746 -0.4381
11194TIP3    H254998   0.490   0.215  16.857  1.0523  0.8887 -1.1973
11195TIP3   OH254999   1.444   5.402   0.217 -0.2068 -0.4109  0.8787
11195TIP3    H155000   1.406   5.473   0.269 -0.1593  1.1147 -1.1367
11195TIP3    H255001   1.401   5.323   0.251 -2.8077  0.9315  0.8919
11196TIP3   OH255002   5.154   1.679   3.862 -0.0415  0.0820  0.5360
11196TIP3    H155003   5.081   1.708   3.808 -0.0302 -0.0111  0.4724
11196TIP3    H255004   5.204   1.620   3.806  0.5030  0.7365  0.3170
11197TIP3   OH255005   2.386   1.510  15.255 -0.3489 -0.4205 -0.1083
11197TIP3    H155006   2.455   1.527  15.190  0.9677 -1.8680  0.8677
11197TIP3    H255007   2.371   1.595  15.297  0.2331  0.0873 -0.9054
11198TIP3   OH255008   2.909   2.842   0.415 -0.3027 -0.1289 -0.0496
11198TIP3    H155009   2.860   2.813   0.338  0.2103  0.0183 -0.4373
11198TIP3    H255010   2.954   2.921   0.387  0.1256 -0.2414  0.3065
11199TIP3   OH255011   5.607   1.704  15.085 -0.1138 -0.0189  0.8255
11199TIP3    H155012   5.536   1.746  15.134  1.1118  0.4270  2.2711
11199TIP3    H255013   5.590   1.727  14.994 -1.5547  0.4809  1.2073
11200TIP3   OH255014   0.343   0.125   0.783 -0.3464 -0.0456  0.7815
11200TIP3    H155015   0.286   0.194   0.817 -0.5394 -0.6987  1.8048
11200TIP3    H255016   0.417   0.171   0.743 -0.8370  0.7656  0.8186
11201TIP3   OH255017   5.010   6.304   1.520  0.6112  0.2873 -0.0771
11201TIP3    H155018   4.919   6.297   1.492  1.0366 -0.2339 -1.3524
11201TIP3    H255019   5.061   6.290   1.441  1.8459 -1.5119  1.0123
11202TIP3   OH255020   0.846   1.885   4.692  0.0602  0.5533  0.0526
11202TIP3    H155021   0.847   1.934   4.610 -2.6989 -0.6447 -0.7393
11202TIP3    H255022   0.884   1.800   4.669  0.5864  0.7025  0.3584
11203TIP3   OH255023   1.560   6.155   0.937  0.3403  0.5924  0.2401
11203TIP3    H155024   1.508   6.172   0.859 -0.4346  0.4486  0.7158
11203TIP3    H255025   1.576   6.241   0.975  1.0116  0.6893 -0.2631
11204TIP3   OH255026   1.921   5.650  15.942  0.6054  0.3369 -0.5773
11204TIP3    H155027   1.939   5.665  16.035  0.9471 -0.6645 -0.4682
11204TIP3    H255028   1.924   5.736  15.902 -0.4680  0.8928  0.5071
11205TIP3   OH255029   4.724   6.335  11.916 -0.4583 -0.1815  0.1758
11205TIP3    H155030   4.776   6.327  11.836  0.9435 -1.4977  1.1833
11205TIP3    H255031   4.789   6.343  11.986 -1.6443 -0.1636  1.2889
11206TIP3   OH255032   0.959   2.116   1.895  0.5137 -0.6006 -1.0420
11206TIP3    H155033   0.891   2.180   1.913  1.6963  0.6407 -0.9299
11206TIP3    H255034   1.004   2.149   1.817  0.9257 -1.4543 -1.1729
11207TIP3   OH255035   5.978   6.759  16.817 -0.2125  0.0539 -0.3922
11207TIP3    H155036   5.917   6.821  16.778 -1.4024  0.0921  1.4341
11207TIP3    H255037   6.028   6.810  16.881 -1.5767 -0.9219  1.5163
11208TIP3   OH255038   4.152   3.730  11.381 -0.4586 -0.0842 -0.0092
11208TIP3    H155039   4.147   3.642  11.343  1.4756 -0.2180 -0.0080
11208TIP3    H255040   4.111   3.721  11.468 -0.3978 -0.9472 -0.0697
11209TIP3   OH255041   0.423   6.404   1.482 -0.1383 -0.0190 -0.1155
11209TIP3    H155042   0.496   6.419   1.421  0.4761  0.3282  0.6878
11209TIP3    H255043   0.395   6.492   1.507 -1.0500 -0.1519 -0.6720
11210TIP3   OH255044   2.116   4.804   3.638  0.4460  0.3165  0.2210
11210TIP3    H155045   2.093   4.727   3.586 -1.6125  1.7606 -1.1173
11210TIP3    H255046   2.165   4.860   3.577  0.5210  0.7695  0.6950
11211TIP3   OH255047   6.417   5.918  12.335  0.3859  0.4998 -0.1245
11211TIP3    H155048   6.405   5.963  12.419 -0.7554 -1.2274  0.6509
11211TIP3    H255049   6.434   5.827  12.359 -0.3078 -0.0693 -1.7914
11212TIP3   OH255050   0.614   4.952   4.539 -0.6047 -0.4835 -0.5388
11212TIP3    H155051   0.539   4.987   4.587 -1.0868 -0.8293 -1.0428
11212TIP3    H255052   0.576   4.895   4.473  0.1418 -1.2503 -0.3109
11213TIP3   OH255053   4.905   0.297   0.243 -0.0915  0.0725  0.5999
11213TIP3    H155054   4.906   0.218   0.296 -2.7368 -1.1814 -1.1329
11213TIP3    H255055   4.939   0.271   0.158 -1.8835  0.5247 -0.2880
11214TIP3   OH255056   2.064   1.291  11.361 -0.6033  0.1819  0.0118
11214TIP3    H155057   2.012   1.331  11.431 -1.4971 -1.1765  0.1462
11214TIP3    H255058   2.117   1.225  11.405 -1.9027 -1.3763 -0.7120
11215TIP3   OH255059   4.515   0.288  14.228 -0.1403  0.0161  0.2236
11215TIP3    H155060   4.438   0.335  14.260 -2.1704 -1.6456 -2.0261
11215TIP3    H255061   4.491   0.195  14.235  1.6675 -0.5177 -0.4307
11216TIP3   OH255062   6.588   6.764  14.861 -0.5205  0.2446 -0.0053
11216TIP3    H155063   6.497   6.792  14.856 -0.3134  1.3012  1.6403
11216TIP3    H255064   6.633   6.838  14.902  0.9554 -0.5494 -0.1533
11217TIP3   OH255065   1.092   5.966  13.503  0.0583 -0.1609 -0.4491
11217TIP3    H155066   1.112   5.920  13.422  1.1628  0.0168 -0.2768
11217TIP3    H255067   1.156   6.038  13.507 -1.2430  1.0239 -0.4109
11218TIP3   OH255068   0.795   3.972  15.957  0.0166 -0.1386  0.5151
11218TIP3    H155069   0.716   3.965  16.010 -0.0346  0.4266  0.5059
11218TIP3    H255070   0.832   3.883  15.958 -0.9010 -0.5288  0.0706
11219TIP3   OH255071   0.048   2.484  15.826 -0.3479 -0.1679 -1.0794
11219TIP3    H155072   0.130   2.525  15.798  0.5485  0.0175  1.6895
11219TIP3    H255073   0.076   2.404  15.871 -1.5975  0.6272  1.1426
11220TIP3   OH255074   6.161   0.905   5.921  0.8268  0.2979 -0.0962
11220TIP3    H155075   6.255   0.905   5.900  0.7557 -0.0047 -0.4036
11220TIP3    H255076   6.127   0.981   5.875  0.6608 -0.3986 -1.1241
11221TIP3   OH255077   5.135   6.058  15.535  0.2468  0.1891 -0.4065
11221TIP3    H155078   5.100   6.041  15.448  0.6237  0.4832 -0.6189
11221TIP3    H255079   5.059   6.055  15.593  0.0204 -0.1597 -0.7230
11222TIP3   OH255080   6.629   5.604  15.559 -0.1946  0.1391 -0.4700
11222TIP3    H155081   6.703   5.657  15.588 -0.6297  1.2842 -1.4457
11222TIP3    H255082   6.596   5.648  15.481 -1.3071 -0.8999 -0.6054
11223TIP3   OH255083   1.644   3.917   4.023 -0.4240 -0.0825  0.3646
11223TIP3    H155084   1.661   4.004   3.987  1.0829 -0.5070  0.0133
11223TIP3    H255085   1.601   3.934   4.107  0.0337  1.0112  0.3912
11224TIP3   OH255086   4.748   5.630   5.593  0.3827  0.4128  0.0133
11224TIP3    H155087   4.675   5.650   5.651  1.0840  2.7501  0.1378
11224TIP3    H255088   4.799   5.564   5.641 -1.1310 -0.5527  0.3093
11225TIP3   OH255089   5.646   4.886  14.557  0.5326  0.0455  0.5015
11225TIP3    H155090   5.704   4.810  14.552  1.9088  1.0029  1.6124
11225TIP3    H255091   5.657   4.919  14.646 -0.2127  1.4402  0.0870
11226TIP3   OH255092   3.368   5.230   3.492 -0.5339 -0.1462  0.1443
11226TIP3    H155093   3.384   5.295   3.560 -1.2229 -1.2280  1.3536
11226TIP3    H255094   3.381   5.146   3.535 -0.0329 -0.8282 -1.3124
11227TIP3   OH255095   3.869   4.805  12.729 -0.2403 -0.0381  0.1497
11227TIP3    H155096   3.822   4.876  12.686  0.5089  0.0737 -0.4943
11227TIP3    H255097   3.877   4.833  12.820  0.4472  0.9037 -0.2010
11228TIP3   OH255098   5.517   5.023  14.006  0.3808 -0.0159 -0.1387
11228TIP3    H155099   5.608   5.018  14.035  0.2195  0.9034  0.5309
11228TIP3    H255100   5.520   5.075  13.925  0.3611  0.6284  0.2732
11229TIP3   OH255101   1.672   5.755   6.666 -0.4311  1.4080  0.6018
11229TIP3    H155102   1.594   5.737   6.614  0.0226 -0.4506  0.5062
11229TIP3    H255103   1.640   5.802   6.743 -2.1910 -2.3188  2.2835
11230TIP3   OH255104   4.697   4.040   0.448 -0.3106 -0.1665  0.0785
11230TIP3    H155105   4.772   4.061   0.504  0.2219 -0.5107 -0.5058
11230TIP3    H255106   4.689   3.945   0.452 -0.7695 -0.1255  0.2002
11231TIP3   OH255107   2.269   4.762   6.089 -0.6140 -0.6192 -0.0020
11231TIP3    H155108   2.314   4.787   6.169  2.4686  0.3193 -1.9373
11231TIP3    H255109   2.264   4.844   6.038 -3.1376 -1.0428 -0.5091
11232TIP3   OH255110   6.181   2.970   3.816 -0.5864  0.9147 -0.4377
11232TIP3    H155111   6.273   2.943   3.820 -0.8012  0.4934  2.3018
11232TIP3    H255112   6.133   2.888   3.804 -0.8189  0.7479  1.5563
11233TIP3   OH255113   3.023   0.606  12.399 -0.4863  0.2096 -0.1165
11233TIP3    H155114   3.062   0.630  12.315 -0.9605  1.0562 -0.0992
11233TIP3    H255115   3.090   0.554  12.443  0.6119  1.6474 -0.0766
11234TIP3   OH255116   4.080   2.380   3.439 -0.5318  1.0313  0.5387
11234TIP3    H155117   4.068   2.460   3.388 -0.3971 -0.8967 -2.7224
11234TIP3    H255118   4.173   2.358   3.427 -1.0881 -0.8460 -0.6317
11235TIP3   OH255119   5.864   2.217   1.269 -0.7728  0.4538 -0.1991
11235TIP3    H155120   5.867   2.240   1.362  0.0340  0.2630 -0.1757
11235TIP3    H255121   5.777   2.181   1.256 -0.5016 -0.5707  0.7325
11236TIP3   OH255122   3.740   5.413  14.253 -0.0825 -0.5768  0.4293
11236TIP3    H155123   3.822   5.424  14.301  1.1094  0.4748 -1.7831
11236TIP3    H255124   3.751   5.332  14.204  0.0575  0.0987 -0.6725
11237TIP3   OH255125   4.925   4.865   5.809  0.1813  0.8587 -0.0543
11237TIP3    H155126   4.876   4.814   5.874 -0.3563 -0.5848 -1.5403
11237TIP3    H255127   4.982   4.800   5.767  1.3954  2.0091 -0.1948
11238TIP3   OH255128   3.248   6.249  14.378 -0.1278  0.9773 -0.1816
11238TIP3    H155129   3.235   6.231  14.471 -1.2247 -1.1360 -0.7000
11238TIP3    H255130   3.324   6.196  14.354 -0.8494  0.2214 -0.8328
11239TIP3   OH255131   4.534   3.359  14.284  0.0006  0.4768 -0.3762
11239TIP3    H155132   4.478   3.394  14.215  0.6121 -0.0717 -1.1528
11239TIP3    H255133   4.623   3.383  14.257  0.2305  0.4243  0.3140
11240TIP3   OH255134   5.244   3.478   1.949  0.5229  0.0291  0.0407
11240TIP3    H155135   5.272   3.504   2.037 -1.4200  0.4641  0.5556
11240TIP3    H255136   5.222   3.561   1.906 -1.1094 -0.3722  0.0747
11241TIP3   OH255137   0.946   2.559   4.713 -0.4608 -0.5929  0.4339
11241TIP3    H155138   1.024   2.606   4.741 -0.6218  0.5643 -1.0028
11241TIP3    H255139   0.875   2.600   4.762 -0.2914 -1.0391  1.0617
11242TIP3   OH255140   2.744   3.675   0.208  0.4536  0.0455 -0.7959
11242TIP3    H155141   2.674   3.614   0.183 -0.2497  0.9089 -0.9774
11242TIP3    H255142   2.824   3.625   0.201 -0.3886 -1.9047  2.2886
11243TIP3   OH255143   4.004   4.002   5.628  0.1500  0.2327  0.3090
11243TIP3    H155144   4.090   4.044   5.633  0.6720 -0.8131  0.4293
11243TIP3    H255145   3.942   4.072   5.645  0.9357  1.2002 -0.6927
11244TIP3   OH255146   2.291   5.001   0.862 -0.1420 -0.3270 -0.2269
11244TIP3    H155147   2.360   4.944   0.829 -0.0741 -0.3187 -0.0992
11244TIP3    H255148   2.324   5.033   0.945 -1.0012 -1.6720  0.6595
11245TIP3   OH255149   4.194   0.934   2.205 -0.0818 -0.3092  0.2859
11245TIP3    H155150   4.251   0.994   2.253  0.3869  0.0234 -0.6668
11245TIP3    H255151   4.154   0.988   2.137 -1.2312 -0.6353  0.6983
11246TIP3   OH255152   2.488   2.295   0.400 -0.1439  0.3279  0.1373
11246TIP3    H155153   2.551   2.351   0.355 -0.0819  0.2513  0.1287
11246TIP3    H255154   2.403   2.322   0.365 -0.1877  0.9907  0.7544
11247TIP3   OH255155   1.708   5.768   4.032  0.0435 -0.1856  0.1797
11247TIP3    H155156   1.623   5.754   3.991 -1.0324  0.5213  2.1029
11247TIP3    H255157   1.743   5.846   3.989 -0.8231  0.2280  0.2146
11248TIP3   OH255158   3.947   5.550  16.824 -0.3452  0.3755  0.0745
11248TIP3    H155159   3.866   5.548  16.874  1.4218 -2.9253  2.9905
11248TIP3    H255160   3.939   5.476  16.763 -0.0718  0.8814 -0.5841
11249TIP3   OH255161   5.648   0.697  16.311  0.3652  0.4683 -0.2303
11249TIP3    H155162   5.703   0.725  16.384  2.3716  1.7074 -2.1760
11249TIP3    H255163   5.608   0.777  16.278 -1.0033 -0.1581 -0.1553
11250TIP3   OH255164   4.596   6.165   0.345 -0.2627  0.5614 -0.4542
11250TIP3    H155165   4.618   6.102   0.414 -0.0741  1.3589  0.2148
11250TIP3    H255166   4.680   6.195   0.311 -0.3327  1.4941  0.1783
11251TIP3   OH255167   3.242   0.848  15.508  0.0862  0.2522 -0.5064
11251TIP3    H155168   3.167   0.810  15.462 -0.7914 -0.0257  1.1295
11251TIP3    H255169   3.203   0.905  15.575  1.3325  0.1580  0.3163
11252TIP3   OH255170   2.494   3.382   3.566 -0.4469  0.0426  0.5323
11252TIP3    H155171   2.541   3.386   3.650 -0.9788 -0.8072  0.8761
11252TIP3    H255172   2.468   3.290   3.557 -2.6073  0.6015  0.6691
11253TIP3   OH255173   4.105   3.566   3.053 -0.2362 -0.3755  0.4222
11253TIP3    H155174   4.111   3.490   3.110 -1.3157 -0.5062  0.3708
11253TIP3    H255175   4.024   3.610   3.080  1.3596  1.8207  1.7755
11254TIP3   OH255176   4.176   6.516   2.146 -0.1003  0.1249  0.0590
11254TIP3    H155177   4.145   6.529   2.236 -0.6644  1.5480 -0.3220
11254TIP3    H255178   4.257   6.568   2.142  2.3339 -3.4211  0.9974
11255TIP3   OH255179   2.559   0.973   4.030 -0.2790  0.0473 -0.0943
11255TIP3    H155180   2.473   0.988   3.993 -0.1825  0.3825 -0.1859
11255TIP3    H255181   2.548   0.898   4.088 -1.0111  1.1382  1.1955
11256TIP3   OH255182   5.895   3.886   4.471 -0.1523  0.6260 -0.4479
11256TIP3    H155183   5.816   3.939   4.456 -1.5101 -0.9085  0.9728
11256TIP3    H255184   5.870   3.797   4.445 -0.4627 -0.7953  4.1859
11257TIP3   OH255185   1.898   2.527   1.357 -0.1718  0.2936 -0.0392
11257TIP3    H155186   1.852   2.520   1.274 -0.9903 -0.2566  0.4562
11257TIP3    H255187   1.978   2.475   1.344 -0.2652  0.2631 -0.5019
11258TIP3   OH255188   1.595   4.071  17.146  0.0005  0.2934  0.8994
11258TIP3    H155189   1.602   4.058  17.051  0.0616  2.8952  0.5189
11258TIP3    H255190   1.684   4.094  17.173 -0.4607  1.7450  1.2160
11259TIP3   OH255191   5.283   1.116  14.122  0.0945 -0.1236 -0.5617
11259TIP3    H155192   5.281   1.198  14.172 -0.4976 -0.0155 -0.7561
11259TIP3    H255193   5.370   1.081  14.137  0.2317  0.3693 -0.1895
11260TIP3   OH255194   4.536   3.736  13.817 -0.2022  0.2363  0.0486
11260TIP3    H155195   4.457   3.788  13.803  0.3106  1.4628  1.5099
11260TIP3    H255196   4.559   3.702  13.730 -2.9005 -1.0106 -0.2168
11261TIP3   OH255197   2.247   4.082   0.796  0.3500  0.0685  0.0203
11261TIP3    H155198   2.342   4.076   0.809  0.0499 -0.6872  2.1457
11261TIP3    H255199   2.217   3.991   0.790 -0.3198  0.2779  0.0939
11262TIP3   OH255200   6.382   5.994   1.593 -0.1315 -0.4409  0.0197
11262TIP3    H155201   6.353   6.083   1.574  1.2430  0.6281  2.5808
11262TIP3    H255202   6.356   5.979   1.684 -1.0584 -2.9887 -0.6077
11263TIP3   OH255203   0.126   5.790   4.060 -0.1730 -0.4151  0.3137
11263TIP3    H155204   0.184   5.716   4.079 -0.5556 -1.0339 -0.9407
11263TIP3    H255205   0.059   5.755   4.001 -0.5527  0.8439 -0.0237
11264TIP3   OH255206   0.409   4.729   1.403  0.2088  0.2156  0.1665
11264TIP3    H155207   0.335   4.781   1.371  1.3772  1.7912 -0.0388
11264TIP3    H255208   0.461   4.711   1.324  0.2484 -0.5602  0.3688
11265TIP3   OH255209   6.388   6.065  16.850  0.4620 -0.1494  0.2398
11265TIP3    H155210   6.402   6.144  16.797 -0.7237 -0.4763 -0.5844
11265TIP3    H255211   6.472   6.020  16.849  0.4285 -0.2102 -1.4801
11266TIP3   OH255212   2.588   2.725   3.634 -0.3693  0.1550  0.0182
11266TIP3    H155213   2.658   2.747   3.572  0.6184 -2.3813  0.1752
11266TIP3    H255214   2.511   2.710   3.579 -0.4738  1.5927 -0.2596
11267TIP3   OH255215   6.530   6.525  14.008 -0.3658 -0.0069 -0.3103
11267TIP3    H155216   6.434   6.527  14.005 -0.3065  0.9300 -1.7103
11267TIP3    H255217   6.555   6.615  14.026  0.1957 -0.7385  2.9715
11268TIP3   OH255218   6.143   5.331   6.607  0.4085 -0.3321  0.0829
11268TIP3    H155219   6.198   5.365   6.678 -0.2702  0.8092  0.0740
11268TIP3    H255220   6.194   5.347   6.527  1.5027 -2.3014  0.3631
11269TIP3   OH255221   3.688   4.077  15.482 -0.7469 -0.3727 -0.5166
11269TIP3    H155222   3.684   4.165  15.521 -1.8601 -0.2621 -0.8620
11269TIP3    H255223   3.701   4.018  15.557 -1.1817 -0.0170 -0.1625
11270TIP3   OH255224   1.653   3.132  16.284  0.1041  0.0951  0.1880
11270TIP3    H155225   1.643   3.224  16.258  0.8036  0.0535 -0.2316
11270TIP3    H255226   1.582   3.118  16.347  0.8440  1.3260  1.3428
11271TIP3   OH255227   2.632   2.020  12.085 -0.1343 -0.4665  0.2219
11271TIP3    H155228   2.644   1.967  12.006 -2.2227 -0.4766 -0.1147
11271TIP3    H255229   2.682   1.974  12.152  1.4345 -0.6198 -0.9984
11272TIP3   OH255230   5.590   3.370  13.207 -0.2852 -0.1820 -0.0465
11272TIP3    H155231   5.650   3.308  13.166 -1.5755 -2.4237  1.3088
11272TIP3    H255232   5.544   3.318  13.274 -1.5451  2.2066  1.0187
11273TIP3   OH255233   1.238   1.332   1.730  0.1236  0.5785 -0.0253
11273TIP3    H155234   1.268   1.420   1.748  0.6373  0.1008  1.5389
11273TIP3    H255235   1.154   1.325   1.776  0.8860 -0.2704  1.2928
11274TIP3   OH255236   1.857   5.373  11.848 -0.2045 -0.2630  0.1718
11274TIP3    H155237   1.822   5.457  11.879 -0.4495 -0.2209 -0.2152
11274TIP3    H255238   1.923   5.349  11.914 -0.1554  0.2159  0.3035
11275TIP3   OH255239   4.212   5.655  11.643 -0.5650 -0.4032 -0.1026
11275TIP3    H155240   4.222   5.742  11.604 -0.0211 -0.5213 -0.2259
11275TIP3    H255241   4.151   5.668  11.715 -1.8091 -0.2416 -1.1731
11276TIP3   OH255242   1.577   6.206  11.901 -0.0001 -0.1773 -0.4491
11276TIP3    H155243   1.657   6.216  11.850 -2.2542  0.4487 -4.0062
11276TIP3    H255244   1.562   6.293  11.939  1.1077 -0.3761  0.4975
11277TIP3   OH255245   0.587   3.855   3.608 -0.0845 -0.0843 -0.0580
11277TIP3    H155246   0.654   3.804   3.654  1.4696  1.0626 -1.0234
11277TIP3    H255247   0.606   3.841   3.515 -0.3232  1.3714 -0.3343
11278TIP3   OH255248   3.985   4.000  12.548  0.0008  0.2199 -0.6351
11278TIP3    H155249   3.915   3.937  12.531  1.1966 -1.5994  0.9140
11278TIP3    H255250   3.939   4.077  12.582 -1.3805 -0.2718 -1.3132
11279TIP3   OH255251   3.666   3.537   4.381  0.1337 -0.6674 -0.6707
11279TIP3    H155252   3.648   3.619   4.334 -0.3725 -0.5473 -0.2732
11279TIP3    H255253   3.634   3.469   4.322  1.5907 -0.6523 -1.5012
11280TIP3   OH255254   3.528   6.735  11.559  0.2479 -0.0556 -0.0053
11280TIP3    H155255   3.528   6.808  11.621  0.6191  1.5710 -1.8713
11280TIP3    H255256   3.599   6.678  11.589  0.0072  0.3715  1.4218
11281TIP3   OH255257   0.613   6.141  14.440 -0.6452 -0.7148  0.3118
11281TIP3    H155258   0.556   6.218  14.442 -1.5544 -1.3433 -0.2817
11281TIP3    H255259   0.579   6.084  14.509 -0.3456 -0.8294  0.3661
11282TIP3   OH255260   2.420   1.593  11.030  0.8696 -0.4819 -0.0765
11282TIP3    H155261   2.445   1.517  10.977  0.0704 -0.9391  0.1843
11282TIP3    H255262   2.487   1.599  11.098  2.3378  0.5750 -1.5752
11283TIP3   OH255263   0.546   4.835   5.694 -0.0184  0.4910 -0.1488
11283TIP3    H155264   0.477   4.799   5.639 -0.7746  2.0111 -0.2238
11283TIP3    H255265   0.506   4.912   5.735  1.3295  0.8305  0.5540
11284TIP3   OH255266   1.588   2.855   3.882 -0.4384  0.2858 -0.1633
11284TIP3    H155267   1.610   2.801   3.958  2.5002  3.3234  1.2774
11284TIP3    H255268   1.505   2.896   3.904  0.5600  1.3924  1.5773
11285TIP3   OH255269   1.486   0.462   6.098 -0.4380  0.6800  0.2133
11285TIP3    H155270   1.524   0.514   6.169 -2.1820  0.6505  1.1842
11285TIP3    H255271   1.547   0.388   6.088 -0.4835  0.3595  2.0916
11286TIP3   OH255272   4.602   4.074   5.766 -0.0752  0.2259 -0.7907
11286TIP3    H155273   4.552   4.133   5.822  0.4376 -1.3389  1.3466
11286TIP3    H255274   4.673   4.043   5.821  0.6471 -1.0608 -2.4223
11287TIP3   OH255275   3.067   1.242  13.662 -0.2119 -0.1898 -0.2034
11287TIP3    H155276   3.008   1.189  13.715  0.0808 -1.1450 -0.8251
11287TIP3    H255277   3.147   1.247  13.713 -0.3659 -0.0445  0.0224
11288TIP3   OH255278   6.606   1.946  13.145  0.2210  0.3071 -0.5271
11288TIP3    H155279   6.658   2.026  13.139 -1.5551  1.5802  0.5896
11288TIP3    H255280   6.596   1.917  13.054  2.2313  0.4304 -0.8178
11289TIP3   OH255281   2.404   5.023  15.102 -0.7626  0.5423  0.2214
11289TIP3    H155282   2.494   5.002  15.128 -0.7744  0.4456  0.1851
11289TIP3    H255283   2.383   4.958  15.035  0.5193  2.9180 -2.5883
11290TIP3   OH255284   3.782   1.682  12.883  0.1022 -0.0436 -0.3699
11290TIP3    H155285   3.734   1.764  12.869  0.5153  0.1117 -0.8920
11290TIP3    H255286   3.824   1.693  12.969 -1.7136 -0.6432  0.6325
11291TIP3   OH255287   0.690   2.637   3.126 -0.6167 -0.2906 -0.2539
11291TIP3    H155288   0.664   2.551   3.158  0.5842 -0.9815 -1.0521
11291TIP3    H255289   0.757   2.667   3.188  0.6840 -1.0021 -1.2855
11292TIP3   OH255290   5.932   6.355   2.686 -0.2587 -0.2911  0.2858
11292TIP3    H155291   6.020   6.344   2.651  0.0700 -2.8137  1.8094
11292TIP3    H255292   5.945   6.376   2.778 -1.2446 -0.9632  0.5870
11293TIP3   OH255293   4.521   2.458  16.071 -0.5167 -0.0216 -0.2713
11293TIP3    H155294   4.521   2.507  15.989  0.0489 -0.7671 -0.7304
11293TIP3    H255295   4.489   2.520  16.137  0.0858  0.9184 -0.8583
11294TIP3   OH255296   5.257   5.767   0.964 -0.0312  0.1972 -0.9004
11294TIP3    H155297   5.178   5.821   0.960 -0.0923  0.2237  0.3591
11294TIP3    H255298   5.234   5.686   0.918 -1.1610 -0.2246  0.3606
11295TIP3   OH255299   3.371   3.291  15.289  0.1429  0.4052  0.0929
11295TIP3    H155300   3.412   3.356  15.346  0.1691 -1.4529  2.2638
11295TIP3    H255301   3.284   3.278  15.328  0.2351 -1.0311 -0.1714
11296TIP3   OH255302   2.389   0.715   3.959 -0.6118 -0.4127 -0.2492
11296TIP3    H155303   2.293   0.716   3.954 -0.6462  2.1176  0.0915
11296TIP3    H255304   2.408   0.748   4.047  0.5822 -1.8064  0.0307
11297TIP3   OH255305   4.878   4.444   5.243  0.3246 -0.4576  0.7825
11297TIP3    H155306   4.964   4.460   5.282  0.8316  0.1612 -0.5260
11297TIP3    H255307   4.874   4.349   5.232  1.2473 -0.4129 -0.0113
11298TIP3   OH255308   6.580   0.551  13.795 -0.0423 -0.2124 -0.0507
11298TIP3    H155309   6.562   0.643  13.776  2.1837  0.5512  1.2827
11298TIP3    H255310   6.570   0.543  13.890  2.6300 -0.6044  0.2413
11299TIP3   OH255311   2.941   4.477   1.698  0.2275  0.0114 -0.5481
11299TIP3    H155312   2.921   4.466   1.605  2.4752 -2.5382 -0.8082
11299TIP3    H255313   2.988   4.560   1.703 -0.5817  0.5442 -1.5532
11300TIP3   OH255314   6.714   1.462  13.877 -0.2485  0.0330 -0.5859
11300TIP3    H155315   6.743   1.371  13.886  0.5988  0.2261 -1.3064
11300TIP3    H255316   6.792   1.514  13.893 -0.9097  0.6757  0.6595
11301TIP3   OH255317   4.817   5.787  14.595 -0.4020 -0.0311  0.0797
11301TIP3    H155318   4.831   5.694  14.617 -1.5342 -0.0254  0.8349
11301TIP3    H255319   4.732   5.789  14.552 -0.4686  0.6938  0.2467
11302TIP3   OH255320   4.411   0.095   4.598 -0.5898  0.3197  0.3483
11302TIP3    H155321   4.326   0.084   4.554 -0.1615  0.1782 -0.4547
11302TIP3    H255322   4.452   0.009   4.593  0.3116  0.8036 -0.7759
11303TIP3   OH255323   4.915   0.400   2.706  0.1809 -0.1449 -0.7121
11303TIP3    H155324   4.902   0.477   2.761 -1.6995 -1.1634  0.2971
11303TIP3    H255325   4.976   0.345   2.755 -1.5303 -1.0730  0.3939
11304TIP3   OH255326   1.260   5.757  16.070  0.0066  0.6076  0.4794
11304TIP3    H155327   1.321   5.749  16.143 -0.3891 -0.0838  0.7437
11304TIP3    H255328   1.316   5.773  15.993  0.6890 -2.1466  0.3687
11305TIP3   OH255329   5.529   6.028  13.107  0.2049  0.3462 -0.1555
11305TIP3    H155330   5.596   6.058  13.168  0.1963  1.4325 -0.6658
11305TIP3    H255331   5.448   6.065  13.140 -0.0456 -0.4262  0.0970
11306TIP3   OH255332   2.678   4.523   1.246  0.7948  0.3455 -0.0000
11306TIP3    H155333   2.671   4.612   1.212 -1.2209  0.0913 -0.3218
11306TIP3    H255334   2.591   4.505   1.283  0.8044 -1.8751 -0.9806
11307TIP3   OH255335   5.025   3.718  16.099  0.6741 -0.0827  0.2155
11307TIP3    H155336   4.997   3.669  16.176  0.6154 -0.0045  0.2448
11307TIP3    H255337   5.112   3.751  16.122  0.2742  0.7222  0.6088
11308TIP3   OH255338   5.170   2.402   1.891  0.1257 -0.6116  0.3146
11308TIP3    H155339   5.148   2.348   1.815  0.7185  0.9252 -0.9745
11308TIP3    H255340   5.125   2.360   1.964 -1.8153 -1.1749 -1.1736
11309TIP3   OH255341   6.449   3.959  15.000  0.5800  0.5093 -0.6617
11309TIP3    H155342   6.481   3.873  14.974 -0.8084 -0.6462  1.3251
11309TIP3    H255343   6.369   3.971  14.949  0.6941  0.5662 -0.8286
11310TIP3   OH255344   3.826   2.777   3.368 -0.5473  0.0152  0.2443
11310TIP3    H155345   3.842   2.863   3.408 -4.6657 -0.0769  2.4356
11310TIP3    H255346   3.753   2.793   3.308 -1.2955 -1.9291  0.6175
11311TIP3   OH255347   4.054   2.494  16.614  0.2654 -0.0751  0.3496
11311TIP3    H155348   4.085   2.561  16.552  1.7597 -1.0270  0.0523
11311TIP3    H255349   3.959   2.504  16.614  0.3343  0.7359 -1.1950
11312TIP3   OH255350   0.621   4.550   2.740 -0.0050  0.1965  0.6175
11312TIP3    H155351   0.603   4.461   2.708  0.3248 -0.1070  1.2475
11312TIP3    H255352   0.709   4.545   2.776  0.3238  0.9979 -0.0832
11313TIP3   OH255353   0.081   3.001   1.115  0.4009  0.4614 -0.6683
11313TIP3    H155354   0.005   3.035   1.068 -0.0711 -0.3299 -0.4821
11313TIP3    H255355   0.089   3.059   1.192 -1.7980 -1.2024  0.8746
11314TIP3   OH255356   2.643   2.675  15.589  0.3859  0.2892 -0.3625
11314TIP3    H155357   2.676   2.693  15.501  2.2454  1.3813  0.5153
11314TIP3    H255358   2.719   2.685  15.646 -0.8117 -0.2478  1.3955
11315TIP3   OH255359   3.215   1.451   1.865  0.5527 -0.5221  0.5048
11315TIP3    H155360   3.120   1.443   1.875  0.6980 -4.3064 -0.6565
11315TIP3    H255361   3.249   1.447   1.954 -0.3639  1.1469  0.9506
11316TIP3   OH255362   6.339   4.664  15.277 -0.2594  0.5245 -0.3177
11316TIP3    H155363   6.298   4.732  15.223  0.8116  2.2677  0.9909
11316TIP3    H255364   6.396   4.616  15.217 -2.4037 -0.3953 -1.6364
11317TIP3   OH255365   0.230   1.140   0.598  0.3956  0.0766 -0.0020
11317TIP3    H155366   0.220   1.081   0.673  1.0554  1.1152  0.9079
11317TIP3    H255367   0.230   1.082   0.521  1.7565 -1.1598  0.9237
11318TIP3   OH255368   1.809   1.849  13.155  0.3313 -0.1340 -0.1513
11318TIP3    H155369   1.759   1.772  13.182  1.5117 -0.2806  1.6472
11318TIP3    H255370   1.900   1.825  13.169  0.6516  2.2090  2.1679
11319TIP3   OH255371   3.386   6.670  15.026  0.1477  0.5286 -0.9454
11319TIP3    H155372   3.461   6.728  15.016  0.7689  0.0207  0.5019
11319TIP3    H255373   3.423   6.590  15.065 -1.0572  0.0808 -0.7004
11320TIP3   OH255374   5.338   0.632  13.489  0.1802 -0.1543 -0.3857
11320TIP3    H155375   5.394   0.707  13.468  2.1083 -1.1663  1.0111
11320TIP3    H255376   5.308   0.648  13.578  0.4616 -0.9265 -0.1405
11321TIP3   OH255377   0.192   0.321  12.465 -0.2461  0.0849 -0.3026
11321TIP3    H155378   0.181   0.413  12.489 -0.1070  0.1400 -0.4527
11321TIP3    H255379   0.103   0.286  12.462 -0.1999 -0.2851  1.7693
11322TIP3   OH255380   0.894   4.271   4.749 -0.3056 -0.5298  0.1391
11322TIP3    H155381   0.954   4.211   4.792  1.1813  1.2877  0.7060
11322TIP3    H255382   0.833   4.298   4.817  1.2992  1.3985  0.8944
11323TIP3   OH255383   3.947   2.212  11.990  0.0351  0.2072 -0.2178
11323TIP3    H155384   3.869   2.258  11.956 -0.5546 -0.4504  0.2370
11323TIP3    H255385   3.969   2.259  12.070 -1.0714 -0.8076  0.6935
11324TIP3   OH255386   3.438   0.945  11.551 -0.4892 -0.0820 -0.4431
11324TIP3    H155387   3.533   0.958  11.547 -0.4826 -0.3184 -1.3116
11324TIP3    H255388   3.421   0.871  11.492 -1.2412  0.1443 -0.5237
11325TIP3   OH255389   0.192   0.108   3.895  0.2251 -0.9100 -0.5455
11325TIP3    H155390   0.160   0.107   3.985  1.8400 -0.2413  0.0514
11325TIP3    H255391   0.158   0.027   3.857 -1.7408 -0.4610  0.1885
11326TIP3   OH255392   1.666   3.392   3.997 -0.0211 -0.3739 -0.1181
11326TIP3    H155393   1.615   3.473   4.007 -0.0861 -0.6285  1.9469
11326TIP3    H255394   1.659   3.349   4.083  1.8735 -1.4713 -0.4854
11327TIP3   OH255395   1.167   5.371  13.759  0.2869 -0.4176  0.2870
11327TIP3    H155396   1.225   5.327  13.698 -0.7807  1.0525 -1.8570
11327TIP3    H255397   1.091   5.313  13.768  0.3888 -0.5755  0.0986
11328TIP3   OH255398   0.957   4.226  11.518 -0.2203 -0.1017  0.3651
11328TIP3    H155399   0.991   4.188  11.437  0.2548 -0.2302  0.6225
11328TIP3    H255400   0.862   4.220  11.509 -0.1528 -1.2391  0.3490
11329TIP3   OH255401   0.211   0.905  13.759  0.7682  0.2218 -0.2568
11329TIP3    H155402   0.303   0.888  13.778  0.4586 -3.8164 -1.7380
11329TIP3    H255403   0.167   0.898  13.844  1.6103  0.3893  0.1921
11330TIP3   OH255404   2.221   0.862  15.714 -0.5185 -0.3287 -0.4506
11330TIP3    H155405   2.202   0.818  15.797 -1.2269  1.1646  0.2100
11330TIP3    H255406   2.316   0.873  15.715 -0.5733  0.1353  0.4202
11331TIP3   OH255407   4.137   5.097   0.771 -0.3950 -0.0408  0.2579
11331TIP3    H155408   4.129   5.114   0.864 -0.9833  0.4191  0.1267
11331TIP3    H255409   4.084   5.019   0.756  0.8675 -0.9813  0.5496
11332TIP3   OH255410   2.828   2.439   0.747 -0.1282  0.7176  0.0368
11332TIP3    H155411   2.910   2.395   0.726 -0.4494 -0.0011  0.2471
11332TIP3    H255412   2.765   2.404   0.683 -0.5526  0.3409  0.6571
11333TIP3   OH255413   4.032   0.766   4.526  0.1528 -0.2157  0.2975
11333TIP3    H155414   4.056   0.685   4.570  1.7729 -0.7094 -1.4466
11333TIP3    H255415   4.098   0.777   4.458 -0.5999  2.0775 -0.0962
11334TIP3   OH255416   3.130   5.962   0.762  0.0813  0.3772  0.0926
11334TIP3    H155417   3.140   6.002   0.848 -0.2919  0.6908 -0.0102
11334TIP3    H255418   3.124   5.868   0.779  0.3422  0.4110  0.3796
11335TIP3   OH255419   3.497   5.719   3.689 -0.1128  0.2388 -0.7923
11335TIP3    H155420   3.554   5.767   3.630  0.1841  0.2332 -0.5140
11335TIP3    H255421   3.496   5.772   3.769  0.9276 -0.6631 -0.1715
11336TIP3   OH255422   0.745   5.629  13.338 -0.3751  0.2206 -0.9066
11336TIP3    H155423   0.828   5.675  13.320 -0.4181  1.2358  1.2744
11336TIP3    H255424   0.682   5.670  13.279 -0.1149  2.0766  0.0603
11337TIP3   OH255425   6.121   3.158  13.215 -0.4484 -0.3205  0.2006
11337TIP3    H155426   6.103   3.067  13.193 -0.3637 -0.2319 -0.2584
11337TIP3    H255427   6.165   3.155  13.300 -1.4985 -0.6215  0.7356
11338TIP3   OH255428   4.621   4.404  13.395  0.0576  0.5595 -0.4709
11338TIP3    H155429   4.646   4.407  13.302 -0.6324 -0.5069 -0.7117
11338TIP3    H255430   4.603   4.311  13.411  1.4408  0.5387  1.0884
11339TIP3   OH255431   1.956   3.906   2.063  0.1332 -0.5532  0.3012
11339TIP3    H155432   1.878   3.955   2.034 -0.3303 -0.3867  1.7950
11339TIP3    H255433   1.979   3.946   2.147  1.3901 -1.1126  0.2245
11340TIP3   OH255434   5.994   3.062   1.718  0.0983  0.0870 -0.1398
11340TIP3    H155435   6.035   3.145   1.694  1.0804 -0.0601  1.0220
11340TIP3    H255436   6.054   2.995   1.684 -0.4158 -0.1542 -0.5881
11341TIP3   OH255437   0.140   5.107   3.145 -0.2258  0.2821 -0.3116
11341TIP3    H155438   0.050   5.084   3.122  0.6239 -1.6650 -1.7768
11341TIP3    H255439   0.165   5.172   3.079 -0.9407  1.7661  0.8395
11342TIP3   OH255440   2.769   2.790  16.764 -0.3239 -0.2204 -0.1345
11342TIP3    H155441   2.679   2.817  16.749 -0.8618 -1.1798  1.2699
11342TIP3    H255442   2.787   2.726  16.695 -1.0538 -0.7638  0.1747
11343TIP3   OH255443   3.898   1.776  13.133 -0.1639  0.7342 -0.3000
11343TIP3    H155444   3.942   1.715  13.191  0.0273 -0.0160 -1.2203
11343TIP3    H255445   3.813   1.794  13.175  0.3786  0.9846  0.6961
11344TIP3   OH255446   6.604   4.338  15.298 -0.0753 -0.7872 -0.2837
11344TIP3    H155447   6.575   4.252  15.267 -0.6777 -0.3367 -0.9950
11344TIP3    H255448   6.606   4.329  15.393 -0.9513 -1.3425 -0.3048
11345TIP3   OH255449   4.349   0.614   3.750  0.5597 -0.0736 -0.4916
11345TIP3    H155450   4.320   0.529   3.716  1.6759 -0.4213 -0.6022
11345TIP3    H255451   4.268   0.665   3.760 -0.1978 -1.4109  0.3118
11346TIP3   OH255452   4.314   3.022  13.614 -0.0697 -0.0446 -0.2760
11346TIP3    H155453   4.309   2.927  13.612 -0.1705 -0.0090 -2.0237
11346TIP3    H255454   4.376   3.044  13.544  0.2031  1.1646  0.3269
11347TIP3   OH255455   3.443   2.499   2.252  0.3355 -0.5342  0.5590
11347TIP3    H155456   3.395   2.576   2.283 -2.5811 -1.5582 -1.1817
11347TIP3    H255457   3.535   2.522   2.265 -0.5471  1.4174  4.2691
11348TIP3   OH255458   1.946   5.648   3.861 -0.1758  0.2449  0.0387
11348TIP3    H155459   1.937   5.569   3.914 -0.7411  0.1352 -0.2163
11348TIP3    H255460   2.014   5.626   3.797 -0.8626 -0.3122 -0.5185
11349TIP3   OH255461   5.367   3.428   5.483 -0.4253 -0.3704  0.1099
11349TIP3    H155462   5.317   3.508   5.465  0.5939  0.1863 -0.2874
11349TIP3    H255463   5.441   3.458   5.536 -0.2521 -1.1203  0.2901
11350TIP3   OH255464   1.040   6.729   5.928  0.6771  0.1113 -0.0594
11350TIP3    H155465   1.128   6.766   5.921  0.2527  1.0696 -0.3912
11350TIP3    H255466   1.049   6.659   5.993  1.1518  1.8343  1.7666
11351TIP3   OH255467   2.584   6.557   4.345 -0.1178  0.0990 -0.4084
11351TIP3    H155468   2.595   6.490   4.278 -1.3197 -0.8780  0.3562
11351TIP3    H255469   2.669   6.562   4.388 -0.4698 -2.0650  0.5713
11352TIP3   OH255470   5.604   1.466  11.916 -0.5752 -0.6906 -0.1161
11352TIP3    H155471   5.568   1.541  11.963 -0.6505 -0.4241 -0.6022
11352TIP3    H255472   5.527   1.422  11.879 -0.6914 -1.9637  1.5757
11353TIP3   OH255473   1.713   3.210   5.895  0.6865 -0.4280 -0.0447
11353TIP3    H155474   1.766   3.261   5.957 -0.1258  1.4471 -0.8605
11353TIP3    H255475   1.667   3.147   5.950  0.9547  0.3615  1.1092
11354TIP3   OH255476   2.958   0.875   2.079  0.7259  0.8260 -0.2122
11354TIP3    H155477   2.999   0.900   2.162  1.7548 -2.0832  0.2219
11354TIP3    H255478   2.865   0.864   2.101  1.0516 -0.3149  0.6781
11355TIP3   OH255479   1.358   5.742  13.523 -0.0675  0.2004  0.5295
11355TIP3    H155480   1.302   5.767  13.450 -0.1115  2.9346  1.4625
11355TIP3    H255481   1.302   5.688  13.579  0.2157 -2.6940 -1.8156
11356TIP3   OH255482   4.553   1.178  11.036  0.3464  0.1419 -0.2503
11356TIP3    H155483   4.497   1.208  10.965  0.7196 -1.5869 -1.2993
11356TIP3    H255484   4.521   1.225  11.113 -2.3015 -0.5317 -0.8884
11357TIP3   OH255485   4.951   0.754  11.446 -0.2804 -0.2700  0.0054
11357TIP3    H155486   4.912   0.833  11.483 -2.2628 -0.5503 -1.4520
11357TIP3    H255487   4.883   0.688  11.452  0.3315 -1.0673 -1.5540
11358TIP3   OH255488   5.222   6.184   6.103 -0.8296 -0.0643  0.3256
11358TIP3    H155489   5.283   6.244   6.145  0.3568 -0.2636 -1.0957
11358TIP3    H255490   5.153   6.171   6.169  1.3061 -0.8979  2.4724
11359TIP3   OH255491   0.743   3.276  12.763  0.0758  0.6850  0.8838
11359TIP3    H155492   0.710   3.210  12.702 -0.9815  1.9666  0.0403
11359TIP3    H255493   0.838   3.266  12.760 -0.0248 -0.0888 -0.0451
11360TIP3   OH255494   6.124   1.497   6.148  0.4671  0.3135 -0.2974
11360TIP3    H155495   6.193   1.512   6.212  0.1166 -0.7033  0.3223
11360TIP3    H255496   6.131   1.405   6.125 -0.7378  0.1763 -0.1571
11361TIP3   OH255497   1.986   5.966  15.766  0.0042 -0.1017 -0.2459
11361TIP3    H155498   1.994   6.052  15.808  0.3764 -0.1553 -0.2022
11361TIP3    H255499   2.055   5.914  15.807 -0.0904 -0.3610 -0.4194
11362TIP3   OH255500   1.748   1.037  13.344 -0.7643  0.2421  0.2749
11362TIP3    H155501   1.837   1.038  13.377 -0.3514  0.8149 -0.8386
11362TIP3    H255502   1.695   1.009  13.419  0.5983 -2.3381  0.3101
11363TIP3   OH255503   0.082   0.574  14.529 -0.4940  0.2726  0.6272
11363TIP3    H155504   0.081   0.614  14.442 -0.2529  1.4296  1.1486
11363TIP3    H255505   0.153   0.510  14.525 -2.1030 -1.4863 -0.8118
11364TIP3   OH255506   5.892   2.468   1.147  0.5935 -0.0295 -0.2551
11364TIP3    H155507   5.854   2.380   1.142 -1.5265  0.8517 -0.3873
11364TIP3    H255508   5.937   2.471   1.231  0.9214 -1.3245 -0.3778
11365TIP3   OH255509   6.095   0.436  12.137  0.1581  1.2197  0.5374
11365TIP3    H155510   6.137   0.500  12.194  0.0802  1.1883  0.6288
11365TIP3    H255511   6.052   0.375  12.196  1.6872  0.0873  0.4858
11366TIP3   OH255512   0.802   1.421  13.227  0.2051 -0.6805  0.0156
11366TIP3    H155513   0.871   1.363  13.259 -0.5333 -1.9072 -0.5888
11366TIP3    H255514   0.843   1.466  13.153  0.4638 -1.1682 -0.1451
11367TIP3   OH255515   4.017   5.727   2.368  0.1371 -0.9200 -0.3525
11367TIP3    H155516   4.065   5.674   2.432  1.0998 -0.3888 -0.6223
11367TIP3    H255517   4.014   5.815   2.406 -1.2982 -1.1121  0.0105
11368TIP3   OH255518   3.312   3.341  16.847 -0.5022 -0.0428  0.6915
11368TIP3    H155519   3.270   3.255  16.847 -0.8926  0.0493 -3.5485
11368TIP3    H255520   3.405   3.322  16.860 -0.7905 -0.9795  1.4244
11369TIP3   OH255521   4.632   2.737  11.592  0.4662 -0.3603  0.2670
11369TIP3    H155522   4.632   2.826  11.629  3.1423 -1.1348  2.2765
11369TIP3    H255523   4.582   2.745  11.511 -1.4274  2.4603  1.6384
11370TIP3   OH255524   5.696   4.095   1.167 -0.0615  0.0135  0.3989
11370TIP3    H155525   5.762   4.110   1.099  1.8751  0.1271  2.2522
11370TIP3    H255526   5.620   4.145   1.137  1.2292  1.2469 -0.9726
11371TIP3   OH255527   3.369   0.715   1.183  0.1675 -0.0401 -0.4339
11371TIP3    H155528   3.444   0.660   1.208  1.2739  2.1932  1.3802
11371TIP3    H255529   3.331   0.670   1.108  2.4642 -2.0023 -0.5103
11372TIP3   OH255530   5.527   3.336   0.009 -0.2011 -0.0580  0.2038
11372TIP3    H155531   5.546   3.353  -0.083 -1.1406 -0.3716 -0.0577
11372TIP3    H255532   5.464   3.264   0.007  0.7854 -0.9585  1.1422
11373TIP3   OH255533   5.897   0.755  17.078  0.0297 -0.2049  0.1537
11373TIP3    H155534   5.933   0.793  17.158  0.4941 -0.4883  0.0803
11373TIP3    H255535   5.865   0.669  17.104 -3.2244  1.1354  0.8718
11374TIP3   OH255536   0.276   4.981  16.317 -0.1732 -0.5911  0.5102
11374TIP3    H155537   0.219   4.985  16.240 -0.1141  1.4484  0.5574
11374TIP3    H255538   0.318   4.895  16.311  0.4021 -0.1713 -2.1621
11375TIP3   OH255539   4.731   0.494   1.212  0.0371 -0.1548 -0.0605
11375TIP3    H155540   4.768   0.522   1.296  2.0745 -1.0347 -0.6298
11375TIP3    H255541   4.683   0.414   1.232 -0.7010  0.4252  0.5117
11376TIP3   OH255542   3.415   0.653   4.823 -0.3870  0.2151  0.3262
11376TIP3    H155543   3.427   0.726   4.883  1.7150 -2.2524  3.0235
11376TIP3    H255544   3.326   0.623   4.838 -0.0658 -0.0150  1.8827
11377TIP3   OH255545   4.471   0.737   0.306  0.9737  0.2570  0.3672
11377TIP3    H155546   4.522   0.775   0.235  0.3431  1.0297  0.3212
11377TIP3    H255547   4.382   0.732   0.273  1.4554 -3.6965 -0.5773
11378TIP3   OH255548   4.228   3.778  13.267  0.2481  0.5081  0.0822
11378TIP3    H155549   4.319   3.788  13.297  0.5304 -0.4636 -0.4376
11378TIP3    H255550   4.234   3.719  13.192 -0.4528  2.7600 -1.8232
11379TIP3   OH255551   1.899   3.644   3.876 -0.0727 -0.4745 -0.0218
11379TIP3    H155552   1.813   3.633   3.917 -1.9376  0.4208 -3.5221
11379TIP3    H255553   1.930   3.729   3.906 -1.5885  0.3369 -0.7095
11380TIP3   OH255554   5.017   3.346   2.311  0.1497 -0.0775  0.7568
11380TIP3    H155555   5.102   3.304   2.303 -0.1034 -0.1862 -1.7129
11380TIP3    H255556   4.992   3.368   2.221 -1.7089  1.3944  1.5869
11381TIP3   OH255557   3.143   1.253   0.064 -0.0934 -0.4479  0.2568
11381TIP3    H155558   3.175   1.213  -0.017 -1.4799  1.8877 -1.4849
11381TIP3    H255559   3.065   1.202   0.087 -0.6968 -0.0313 -0.8467
11382TIP3   OH255560   2.603   3.694   3.740 -0.1772  0.0962 -0.3174
11382TIP3    H155561   2.631   3.609   3.775 -0.0736  0.2811  0.0518
11382TIP3    H255562   2.516   3.678   3.705  0.3701 -0.4785 -1.4405
11383TIP3   OH255563   4.303   4.285   6.709  0.5146 -0.0689 -0.1923
11383TIP3    H155564   4.332   4.249   6.792 -0.8648  0.3160  0.4603
11383TIP3    H255565   4.235   4.226   6.679 -0.4256  0.9273 -0.0471
11384TIP3   OH255566   4.233   3.359   1.901  0.0079 -0.1146 -0.6019
11384TIP3    H155567   4.207   3.269   1.880 -1.1421  0.1182 -0.2073
11384TIP3    H255568   4.151   3.409   1.898  0.5059  0.7513  0.0487
11385TIP3   OH255569   5.833   3.581   2.727 -0.3013  0.4771 -0.1356
11385TIP3    H155570   5.886   3.538   2.659  0.2726  0.2098  0.4775
11385TIP3    H255571   5.800   3.661   2.684 -1.1096 -0.4006 -1.1726
11386TIP3   OH255572   4.677   4.809  12.091 -0.1662  0.2566  0.5449
11386TIP3    H155573   4.586   4.802  12.119 -0.0624  1.0818  1.0923
11386TIP3    H255574   4.715   4.877  12.147  1.0648 -0.7997  1.0274
11387TIP3   OH255575   5.122   0.106   0.126  0.1466  0.3635 -0.1197
11387TIP3    H155576   5.162   0.057   0.198  0.6669  0.0530 -0.6207
11387TIP3    H255577   5.179   0.183   0.116 -1.5523  1.9266  1.7285
11388TIP3   OH255578   3.161   6.718  13.719 -0.5691 -0.3142 -0.4639
11388TIP3    H155579   3.137   6.749  13.631 -0.9002 -0.7922 -0.5410
11388TIP3    H255580   3.089   6.662  13.745 -0.3267 -0.4100 -0.0033
11389TIP3   OH255581   6.629   2.419  14.135 -0.5240  0.8949 -0.8330
11389TIP3    H155582   6.672   2.340  14.105  0.4663  0.9699  0.3535
11389TIP3    H255583   6.700   2.480  14.154 -1.1995  1.4735 -0.1124
11390TIP3   OH255584   4.719   0.507   4.262 -0.4347 -0.2071 -0.1332
11390TIP3    H155585   4.630   0.491   4.230 -0.4360  0.7729 -0.6533
11390TIP3    H255586   4.721   0.467   4.348 -2.4293  2.5826  1.3123
11391TIP3   OH255587   5.386   2.519  16.080  0.3157 -0.2341  0.1885
11391TIP3    H155588   5.422   2.530  15.992  0.1992 -2.1809 -0.1260
11391TIP3    H255589   5.423   2.591  16.130  1.6503 -0.0121 -1.0790
11392TIP3   OH255590   5.995   4.839   0.851  0.0637  0.2310 -0.1180
11392TIP3    H155591   6.073   4.872   0.806  0.1937 -1.0017 -0.8030
11392TIP3    H255592   5.945   4.794   0.784  0.0965 -1.3537  0.8981
11393TIP3   OH255593   4.710   2.439  12.222  0.0073 -0.2999 -0.4764
11393TIP3    H155594   4.771   2.483  12.280  0.5253  0.5368 -1.6527
11393TIP3    H255595   4.716   2.486  12.139 -1.6023 -0.7278 -0.8677
11394TIP3   OH255596   3.448   1.066   1.918  0.4104  0.0087 -0.3209
11394TIP3    H155597   3.471   0.976   1.893 -1.1038 -0.7512  0.9197
11394TIP3    H255598   3.416   1.106   1.837 -0.7581 -1.1942 -0.4793
11395TIP3   OH255599   3.898   1.546  16.399  0.6037  1.1668  0.6848
11395TIP3    H155600   3.863   1.574  16.484 -0.2670  0.7595  0.4678
11395TIP3    H255601   3.835   1.578  16.335 -0.5491 -1.4492  0.4411
11396TIP3   OH255602   3.563   5.196  12.245 -0.4111  0.4946  0.3077
11396TIP3    H155603   3.634   5.176  12.184 -1.1759 -0.5791 -0.2214
11396TIP3    H255604   3.537   5.285  12.222  0.2654  0.6241  0.0180
11397TIP3   OH255605   0.667   5.109   3.465  0.0650  0.1775  0.4022
11397TIP3    H155606   0.613   5.145   3.394 -0.5117  0.0176  0.7583
11397TIP3    H255607   0.757   5.127   3.438 -0.2199  2.4570  0.8947
11398TIP3   OH255608   4.489   0.564   1.480  0.2236  0.2093  0.2539
11398TIP3    H155609   4.523   0.476   1.494 -2.3500 -0.9135 -0.2044
11398TIP3    H255610   4.438   0.557   1.399  0.5749  2.3047 -0.1670
11399TIP3   OH255611   0.541   2.086  11.426 -0.4689 -0.3773 -0.3454
11399TIP3    H155612   0.468   2.025  11.435 -0.9002  0.1597 -0.1663
11399TIP3    H255613   0.582   2.087  11.512 -0.8713  0.0935 -0.1565
11400TIP3   OH255614   3.745   4.816  14.200  0.0914 -0.3270  0.1828
11400TIP3    H155615   3.700   4.775  14.274 -2.3205  2.5076  0.3881
11400TIP3    H255616   3.776   4.900  14.234  0.6422  0.1721 -1.5052
11401TIP3   OH255617   4.179   3.362  10.519  0.0548  0.0910  0.2941
11401TIP3    H155618   4.247   3.398  10.577  0.1995 -2.1229  1.5626
11401TIP3    H255619   4.224   3.292  10.471 -1.5425 -2.1597  1.9515
11402TIP3   OH255620   3.132   2.862  14.731 -0.6988  0.3509  0.2911
11402TIP3    H155621   3.112   2.911  14.651  1.7615 -0.4634 -0.8712
11402TIP3    H255622   3.168   2.779  14.700  3.1028  1.1801  2.1685
11403TIP3   OH255623   4.411   1.439   2.704 -0.0611 -0.2951 -0.3508
11403TIP3    H155624   4.495   1.474   2.735  1.1131 -1.9715 -1.5845
11403TIP3    H255625   4.387   1.373   2.769 -0.0855 -0.3066 -0.3715
11404TIP3   OH255626   5.678   2.344  14.541 -0.3262 -0.2126  0.2435
11404TIP3    H155627   5.737   2.398  14.488 -1.0547 -0.2522 -0.6319
11404TIP3    H255628   5.590   2.377  14.519 -0.5359  1.4336  3.2727
11405TIP3   OH255629   2.470   0.657  10.992 -0.3585 -0.1839  0.6507
11405TIP3    H155630   2.413   0.675  10.917 -1.0949 -3.0307  0.4391
11405TIP3    H255631   2.559   0.661  10.956 -0.6052  0.3932  0.0801
11406TIP3   OH255632   4.972   2.309  13.308 -0.1010  0.7885  0.4858
11406TIP3    H155633   4.922   2.318  13.227 -3.6765 -0.4625  2.4246
11406TIP3    H255634   5.015   2.394  13.319  1.1987  0.6937 -3.1007
11407TIP3   OH255635   1.996   4.404   0.574  0.2220 -0.4493  0.0165
11407TIP3    H155636   2.087   4.413   0.547  0.8016  0.6752  2.2413
11407TIP3    H255637   2.000   4.396   0.670 -1.9457 -1.3816  0.0676
11408TIP3   OH255638   4.731   4.660   4.466 -0.6045  0.1444 -0.4355
11408TIP3    H155639   4.752   4.670   4.559  2.1478 -1.6444 -0.7849
11408TIP3    H255640   4.647   4.614   4.465  0.0613 -1.1570  1.2016
11409TIP3   OH255641   2.118   3.887   3.694  0.2960  0.1171  0.3769
11409TIP3    H155642   2.186   3.928   3.641  0.4506 -0.7741 -0.1402
11409TIP3    H255643   2.069   3.959   3.732 -0.0167  0.7721 -1.2522
11410TIP3   OH255644   3.121   0.734   1.918 -0.2368 -0.0627 -0.1335
11410TIP3    H155645   3.086   0.772   1.998  0.4905  0.1974  0.0585
11410TIP3    H255646   3.117   0.805   1.853  1.5391  0.4933  0.3420
11411TIP3   OH255647   2.322   0.578   4.305 -0.5013 -0.5543  0.4982
11411TIP3    H155648   2.389   0.568   4.372 -1.2269 -1.2106  1.1211
11411TIP3    H255649   2.240   0.588   4.353 -0.9988 -0.8173 -0.2819
11412TIP3   OH255650   0.523   0.760   0.636  0.8935  0.6418  0.1052
11412TIP3    H155651   0.477   0.821   0.694 -0.0893 -1.8152  2.0384
11412TIP3    H255652   0.497   0.785   0.548 -2.8132  0.4648  1.0641
11413TIP3   OH255653   0.257   3.752   5.434 -0.1659 -0.9719 -0.0548
11413TIP3    H155654   0.323   3.804   5.389 -0.7732 -0.8937 -0.8853
11413TIP3    H255655   0.297   3.666   5.446 -0.8524 -1.7605 -2.9822
11414TIP3   OH255656   0.487   5.851  12.572 -0.3168 -0.7427 -0.3837
11414TIP3    H155657   0.580   5.868  12.585  0.7502 -4.2973 -2.7588
11414TIP3    H255658   0.462   5.796  12.647 -0.5380  0.1754  0.2310
11415TIP3   OH255659   2.412   5.130  16.498 -0.3152 -0.4403 -0.1832
11415TIP3    H155660   2.471   5.145  16.424  1.0455  3.0258  1.4784
11415TIP3    H255661   2.454   5.059  16.547  1.8727  1.1373  0.2975
11416TIP3   OH255662   4.986   3.668  14.740  0.0204 -0.1493  0.0805
11416TIP3    H155663   5.049   3.669  14.812 -0.7324  0.7384  0.7497
11416TIP3    H255664   4.909   3.623  14.775 -0.1245 -0.2439 -0.3559
11417TIP3   OH255665   6.576   3.378  14.233 -0.2130 -0.8220 -0.5313
11417TIP3    H155666   6.593   3.293  14.274  1.2725 -0.7977 -1.0503
11417TIP3    H255667   6.561   3.359  14.141  0.9187 -0.4555 -0.7996
11418TIP3   OH255668   1.427   6.455  12.859 -0.1376  0.4517  0.4727
11418TIP3    H155669   1.433   6.381  12.799 -1.3333  0.4401  0.3692
11418TIP3    H255670   1.417   6.415  12.946  0.0793  0.4909  0.5181
11419TIP3   OH255671   1.927   0.699   2.364  0.1899  0.2786 -0.5501
11419TIP3    H155672   1.903   0.780   2.408  0.6005 -0.4785  1.1259
11419TIP3    H255673   1.905   0.630   2.427 -0.9224 -0.9799 -2.2764
11420TIP3   OH255674   5.046   5.365  14.252  0.2320  1.0110 -0.3763
11420TIP3    H155675   5.040   5.270  14.249 -2.0580  1.1082 -0.0187
11420TIP3    H255676   5.090   5.384  14.335  0.1894  0.2853 -0.1867
11421TIP3   OH255677   5.309   4.896  12.260  0.0049  0.4569  0.4130
11421TIP3    H155678   5.292   4.890  12.354  1.7292  0.2583  0.7293
11421TIP3    H255679   5.344   4.810  12.236  0.7028  0.8924 -0.1536
11422TIP3   OH255680   3.511   5.365  13.227 -0.8240 -0.2413  0.2001
11422TIP3    H155681   3.455   5.414  13.287 -1.1261  1.7113 -1.5840
11422TIP3    H255682   3.591   5.417  13.220 -1.3556  0.3193 -2.1309
11423TIP3   OH255683   1.229   3.051  12.503 -0.6205  0.0839  0.1946
11423TIP3    H155684   1.255   3.054  12.595  0.5414  1.2840 -0.1506
11423TIP3    H255685   1.272   2.972  12.469 -0.5678 -0.0409  0.5464
11424TIP3   OH255686   5.017   3.682   3.465 -0.4387 -0.2287 -0.4269
11424TIP3    H155687   4.982   3.734   3.536  1.1574  0.6663 -0.2643
11424TIP3    H255688   4.963   3.704   3.389 -1.7252 -0.6925  0.3351
11425TIP3   OH255689   6.036   1.286   3.504 -0.9348  0.6849  0.5704
11425TIP3    H155690   6.067   1.364   3.549 -1.0892  1.0768 -0.0037
11425TIP3    H255691   6.107   1.264   3.443 -0.0657 -0.7186  2.0576
11426TIP3   OH255692   3.036   4.713  11.917  0.2267  0.2111 -0.3364
11426TIP3    H155693   3.078   4.750  11.995  0.7545 -0.5957 -0.2331
11426TIP3    H255694   3.039   4.618  11.931 -1.7798  0.1467 -0.2557
11427TIP3   OH255695   0.241   2.287   4.067 -0.6573 -0.4599  0.5347
11427TIP3    H155696   0.226   2.344   4.143 -0.4384  0.2702  0.0350
11427TIP3    H255697   0.336   2.276   4.064 -0.7188 -1.0983  0.8031
11428TIP3   OH255698   2.893   6.455   4.422 -0.5098 -0.3928 -0.5327
11428TIP3    H155699   2.887   6.360   4.426  0.6842 -0.4577  0.2876
11428TIP3    H255700   2.953   6.473   4.350 -0.7970 -0.2588 -0.7390
11429TIP3   OH255701   4.889   2.253  15.547 -0.2014 -0.4696 -0.1827
11429TIP3    H155702   4.810   2.262  15.495  0.3970 -0.1900 -1.0474
11429TIP3    H255703   4.898   2.337  15.593 -1.7055 -1.3369  1.7890
11430TIP3   OH255704   0.615   1.692   6.086 -0.3372  0.3705  0.0278
11430TIP3    H155705   0.560   1.734   6.152 -0.4005 -1.6269  1.2589
11430TIP3    H255706   0.701   1.732   6.097 -0.5339  0.5800  0.8061
11431TIP3   OH255707   1.522   4.014  16.058 -0.2492  0.3137 -0.4574
11431TIP3    H155708   1.544   4.018  15.965  3.1956 -1.4207  0.2118
11431TIP3    H255709   1.535   4.103  16.090  1.4212  0.3079 -1.0683
11432TIP3   OH255710   2.529   0.269  15.103 -0.0388  0.3594 -0.0399
11432TIP3    H155711   2.448   0.311  15.131 -1.0874  1.1011 -3.9330
11432TIP3    H255712   2.580   0.340  15.063  0.1505 -1.1329 -2.5403
11433TIP3   OH255713   4.860   1.979   5.636 -0.4779 -0.0808  0.6589
11433TIP3    H155714   4.936   1.981   5.694 -0.6948 -1.7681  1.0281
11433TIP3    H255715   4.802   2.046   5.671  0.0577 -0.0361  1.4807
11434TIP3   OH255716   3.203   1.984   2.866  0.5814 -0.1509  0.1504
11434TIP3    H155717   3.259   1.939   2.803  0.3410  0.9111 -0.8484
11434TIP3    H255718   3.239   1.961   2.951  1.8122 -0.4350 -0.4351
11435TIP3   OH255719   1.842   4.231   3.657 -0.5958 -0.7618  0.6345
11435TIP3    H155720   1.914   4.213   3.596  0.2729 -1.6052  1.8837
11435TIP3    H255721   1.826   4.325   3.648 -0.1176 -0.7766 -0.5022
11436TIP3   OH255722   5.367   2.259  16.493 -0.0992 -0.1785 -0.0320
11436TIP3    H155723   5.456   2.242  16.523 -0.3763 -0.8347  0.4127
11436TIP3    H255724   5.321   2.289  16.571 -1.0371 -2.6755  0.3991
11437TIP3   OH255725   4.756   4.514  11.519 -0.3906 -0.2051 -0.1788
11437TIP3    H155726   4.823   4.504  11.586  1.0494  0.0764 -1.5730
11437TIP3    H255727   4.769   4.603  11.485 -2.0729  0.2085  0.1836
11438TIP3   OH255728   5.105   3.857   5.013 -0.0131 -0.0995 -0.0312
11438TIP3    H155729   5.021   3.815   4.993  0.2611 -0.4671 -0.4102
11438TIP3    H255730   5.164   3.785   5.033 -0.1889  0.2412  1.8128
11439TIP3   OH255731   3.642   5.600  14.102  0.0187  0.0104 -0.2297
11439TIP3    H155732   3.685   5.541  14.164 -0.2701  1.2945  1.1994
11439TIP3    H255733   3.687   5.584  14.019  2.3701  0.3612  0.9450
11440TIP3   OH255734   3.516   6.786  13.030 -0.0138 -0.4247 -0.0249
11440TIP3    H155735   3.421   6.800  13.027  0.0232 -0.1738  0.0029
11440TIP3    H255736   3.553   6.857  12.978  0.1698 -0.4181  0.1152
11441TIP3   OH255737   2.517   5.444  13.097  0.3409  0.6852 -0.1743
11441TIP3    H155738   2.469   5.368  13.130 -0.7306  0.3103 -2.5063
11441TIP3    H255739   2.610   5.421  13.108  0.0118 -0.2911  0.5662
11442TIP3   OH255740   3.097   1.321   3.603 -0.0449 -0.0692  0.5507
11442TIP3    H155741   3.073   1.368   3.683  0.8391 -0.4419  1.0331
11442TIP3    H255742   3.131   1.238   3.634  1.5446  0.3105 -0.1594
11443TIP3   OH255743   4.679   3.731  15.292 -0.2232 -0.8288 -0.3086
11443TIP3    H155744   4.607   3.671  15.273  0.2238 -2.0038  1.6037
11443TIP3    H255745   4.645   3.788  15.361 -0.1600  0.1975 -1.1246
11444TIP3   OH255746   0.671   5.331  15.672 -0.1548  0.1442 -0.2154
11444TIP3    H155747   0.598   5.376  15.629 -1.4241  0.3326  2.0636
11444TIP3    H255748   0.736   5.399  15.686 -0.5144  0.4827 -0.1626
11445TIP3   OH255749   3.348   3.727  15.577 -0.1848  0.3106  0.1799
11445TIP3    H155750   3.290   3.704  15.649 -0.4038 -0.5482 -0.2577
11445TIP3    H255751   3.415   3.658  15.577 -0.0191  0.4712 -0.2405
11446TIP3   OH255752   2.159   3.572   5.235  0.0567  0.4449  0.4527
11446TIP3    H155753   2.226   3.514   5.271 -0.1662 -0.5716 -0.7498
11446TIP3    H255754   2.180   3.577   5.141 -2.1867 -0.7712 -0.1355
11447TIP3   OH255755   3.504   0.274   3.508  0.3352  0.4776 -0.2203
11447TIP3    H155756   3.506   0.281   3.413 -0.3572  1.9419 -0.1477
11447TIP3    H255757   3.447   0.200   3.527 -1.3570  1.5613 -0.9206
11448TIP3   OH255758   3.076   3.221   2.111  0.1931 -0.3951  0.7943
11448TIP3    H155759   3.121   3.150   2.065  0.4947  0.5759 -0.4174
11448TIP3    H255760   2.987   3.189   2.123  0.0628 -0.5932 -0.6087
11449TIP3   OH255761   6.156   2.570  11.423 -0.9401  0.4442  0.0327
11449TIP3    H155762   6.067   2.571  11.390 -0.3757  4.0338 -1.6411
11449TIP3    H255763   6.160   2.645  11.482  0.8337  0.0105  0.5049
11450TIP3   OH255764   5.701   2.395   6.008  0.4340 -0.7650 -0.6031
11450TIP3    H155765   5.754   2.374   5.931 -0.2295 -1.1649 -0.9539
11450TIP3    H255766   5.749   2.466   6.051  1.1670 -1.0075 -1.0059
11451TIP3   OH255767   0.994   2.368   4.503  0.2976 -0.0191 -0.3352
11451TIP3    H155768   1.036   2.290   4.540 -1.9162 -0.2875  1.8028
11451TIP3    H255769   0.995   2.432   4.574 -0.4713  0.8837 -1.1189
11452TIP3   OH255770   1.220   6.540   5.363  0.1104 -0.0518  0.1191
11452TIP3    H155771   1.148   6.511   5.419  0.2838 -0.0413  0.3454
11452TIP3    H255772   1.199   6.504   5.277 -1.8366  2.5668 -0.6000
11453TIP3   OH255773   6.569   2.501  16.671  0.5381  1.0800  0.3891
11453TIP3    H155774   6.479   2.534  16.669  0.3603  0.7290  1.6458
11453TIP3    H255775   6.560   2.407  16.653  0.7930  1.2913 -0.8290
11454TIP3   OH255776   0.545   1.071   4.503  0.9230  0.3903 -0.2999
11454TIP3    H155777   0.548   1.061   4.408  0.8963 -0.3681 -0.2271
11454TIP3    H255778   0.474   1.012   4.531  0.3106  1.3019  0.0989
11455TIP3   OH255779   5.444   1.877   2.356 -0.5104  0.4655 -0.0503
11455TIP3    H155780   5.365   1.839   2.317 -1.1655  0.7317  1.0046
11455TIP3    H255781   5.473   1.813   2.420  1.5280 -0.7380 -2.0889
11456TIP3   OH255782   6.314   5.696  12.902 -0.0763  0.0779 -0.7542
11456TIP3    H155783   6.306   5.715  12.809  3.6438  0.3656 -1.0727
11456TIP3    H255784   6.326   5.781  12.943 -0.6010 -0.1479 -0.1105
11457TIP3   OH255785   6.734   1.473   1.755  0.2645  0.1062 -0.3370
11457TIP3    H155786   6.759   1.501   1.843  2.1235  1.9108 -1.3930
11457TIP3    H255787   6.640   1.491   1.750  0.3856  1.1404  0.8662
11458TIP3   OH255788   0.219   4.866   2.935  0.3484 -0.3831  0.0803
11458TIP3    H155789   0.157   4.864   3.008 -0.5744  0.3506 -0.6650
11458TIP3    H255790   0.241   4.774   2.919  1.3483 -0.4818  1.9308
11459TIP3   OH255791   2.142   2.535  13.719 -1.0102 -0.0874  0.2782
11459TIP3    H155792   2.104   2.517  13.805 -1.3343 -0.0758  0.1382
11459TIP3    H255793   2.070   2.521  13.657 -1.2381  1.5396  0.1503
11460TIP3   OH255794   4.557   1.220   1.793  0.0240  0.1376 -0.2327
11460TIP3    H155795   4.620   1.258   1.732 -0.0955 -1.9500 -1.7167
11460TIP3    H255796   4.472   1.253   1.765  0.1828  0.9385  0.2050
11461TIP3   OH255797   0.756   3.491   2.788 -0.3658 -0.3039 -0.0992
11461TIP3    H155798   0.735   3.410   2.741 -1.3016  0.1879 -0.5304
11461TIP3    H255799   0.714   3.482   2.873  1.5089 -1.2886  0.7569
11462TIP3   OH255800   2.256   6.116   5.333  0.3827  0.0345 -0.0834
11462TIP3    H155801   2.192   6.114   5.405  0.3381 -0.0113 -0.1244
11462TIP3    H255802   2.249   6.030   5.293 -0.4716  0.4770 -0.9171
11463TIP3   OH255803   5.790   3.826   5.331 -0.0127  0.3282  0.0694
11463TIP3    H155804   5.704   3.812   5.291 -0.0485  2.0838 -0.5100
11463TIP3    H255805   5.852   3.789   5.268 -0.0884  2.8380 -1.5462
11464TIP3   OH255806   6.323   5.188   1.845 -0.0410  0.4731  0.3628
11464TIP3    H155807   6.275   5.255   1.797  1.3394  0.4447 -1.0787
11464TIP3    H255808   6.415   5.200   1.820  0.2197 -2.0810 -0.0884
11465TIP3   OH255809   4.512   3.487   5.268 -0.6513 -0.2121  1.0034
11465TIP3    H155810   4.434   3.499   5.214  0.1840  2.2993  0.2855
11465TIP3    H255811   4.537   3.396   5.254 -1.8573 -0.2766 -0.9229
11466TIP3   OH255812   2.283   3.222  14.483  0.1881 -0.3974  0.3852
11466TIP3    H155813   2.377   3.234  14.469  0.0597  0.7000  0.3980
11466TIP3    H255814   2.249   3.196  14.398  0.4112 -0.1838  0.2303
11467TIP3   OH255815   4.233   3.866  15.727 -0.6431  0.0840  0.0748
11467TIP3    H155816   4.258   3.912  15.647 -1.5659  1.2220  0.4276
11467TIP3    H255817   4.150   3.824  15.705 -0.5876 -0.1142  0.2445
11468TIP3   OH255818   4.713   0.229   4.402  0.2911  0.0199 -0.1545
11468TIP3    H155819   4.768   0.158   4.370  1.1291  0.5163  0.1541
11468TIP3    H255820   4.652   0.247   4.331  0.5178 -0.5560 -0.4950
11469TIP3   OH255821   5.707   4.438  11.058  0.6931 -0.0351  0.4307
11469TIP3    H155822   5.655   4.518  11.070  0.6137  0.0101 -0.2161
11469TIP3    H255823   5.741   4.444  10.969  2.5132  0.3401  1.1205
11470TIP3   OH255824   0.144   5.887  15.407 -0.3026 -0.4943  0.3393
11470TIP3    H155825   0.223   5.927  15.442 -1.9600  0.5203  3.0481
11470TIP3    H255826   0.101   5.958  15.359 -0.4149 -0.5731  0.3240
11471TIP3   OH255827   6.428   5.560  17.198  0.1226  0.3340 -0.2028
11471TIP3    H155828   6.443   5.644  17.242  1.6502  0.8868 -1.7193
11471TIP3    H255829   6.513   5.515  17.202 -0.3861 -0.6526 -0.3918
11472TIP3   OH255830   2.547   1.039   1.446 -0.1693  0.1583 -0.3433
11472TIP3    H155831   2.466   1.088   1.459  0.7854  1.0750  2.5294
11472TIP3    H255832   2.615   1.096   1.481  1.4661 -1.5536 -0.6590
11473TIP3   OH255833   0.387   6.374   0.447  0.5458  0.3421  1.1761
11473TIP3    H155834   0.360   6.363   0.538 -0.5282 -1.8066  0.6364
11473TIP3    H255835   0.402   6.285   0.416  0.7014  1.0342 -0.8019
11474TIP3   OH255836   4.133   3.120  12.405 -0.0348  0.6222  0.6601
11474TIP3    H155837   4.220   3.133  12.443  0.3904  1.1829 -0.4512
11474TIP3    H255838   4.136   3.170  12.323 -0.8627 -0.6646 -0.1745
11475TIP3   OH255839   5.923   3.362  11.096  0.4506 -0.0367 -0.1353
11475TIP3    H155840   5.988   3.344  11.028  0.2991  0.2327 -0.3515
11475TIP3    H255841   5.868   3.431  11.058  0.0259 -0.2848  0.0369
11476TIP3   OH255842   5.223   6.329   1.709  0.1923  0.1394 -0.4534
11476TIP3    H155843   5.133   6.320   1.677  0.4738 -0.0500 -1.1879
11476TIP3    H255844   5.266   6.387   1.647  0.4287  0.6744  0.2066
11477TIP3   OH255845   3.043   6.355   0.697 -0.2756  0.4003  0.2522
11477TIP3    H155846   3.096   6.435   0.695  0.7018 -0.2307  0.5567
11477TIP3    H255847   3.054   6.321   0.786 -0.6965 -0.0629  0.1284
11478TIP3   OH255848   4.660   1.633   4.906  0.0113 -0.1529  0.3909
11478TIP3    H155849   4.737   1.671   4.947 -0.2856  0.1660  0.6481
11478TIP3    H255850   4.629   1.700   4.845  2.0542 -1.6420 -2.4284
11479TIP3   OH255851   3.370   3.640   2.128 -0.2201  0.1491  0.3544
11479TIP3    H155852   3.387   3.729   2.158  4.7926 -0.9629  1.3378
11479TIP3    H255853   3.419   3.632   2.046 -1.6166 -1.3587 -0.3781
11480TIP3   OH255854   2.370   3.583  15.094  0.0608 -0.0721  0.3716
11480TIP3    H155855   2.277   3.578  15.118  0.0515 -0.5358  0.2393
11480TIP3    H255856   2.376   3.661  15.038  0.1924  1.4000  2.3664
11481TIP3   OH255857   5.961   0.494  15.476  0.1115  0.0208  0.0164
11481TIP3    H155858   5.920   0.479  15.561 -0.0172 -0.6798 -0.1623
11481TIP3    H255859   6.005   0.579  15.484  1.7848 -0.9537  1.4342
11482TIP3   OH255860   6.049   5.912  10.878  0.3318 -0.2629 -0.2784
11482TIP3    H155861   6.122   5.855  10.857 -0.7890 -0.7386 -3.1183
11482TIP3    H255862   5.975   5.853  10.895 -0.8872  0.2746 -3.4441
11483TIP3   OH255863   6.289   2.606   2.031  0.4202  0.0084  0.2193
11483TIP3    H155864   6.230   2.588   2.104  1.9084 -1.2181  1.1615
11483TIP3    H255865   6.337   2.684   2.059 -0.5166  0.8240 -0.4126
11484TIP3   OH255866   3.695   4.994   5.027 -0.2553  0.4730 -0.1707
11484TIP3    H155867   3.671   4.903   5.010 -1.1090  0.4362  1.2090
11484TIP3    H255868   3.717   4.997   5.120  0.8920  1.4410 -0.4574
11485TIP3   OH255869   5.505   2.350  11.436 -0.0510  0.2300 -0.7207
11485TIP3    H155870   5.512   2.445  11.433 -1.7688  0.3522 -1.4942
11485TIP3    H255871   5.437   2.329  11.372  1.4670 -1.6494 -1.7445
11486TIP3   OH255872   3.906   3.089  12.935 -0.2147 -0.5527 -0.0607
11486TIP3    H155873   3.910   3.065  12.842 -0.3045 -1.5165  0.1752
11486TIP3    H255874   3.822   3.132  12.945  0.3411  0.6977 -0.6855
11487TIP3   OH255875   1.422   1.589  12.204  0.0067  0.5879  0.0996
11487TIP3    H155876   1.467   1.659  12.251 -0.2575  2.1417 -1.9235
11487TIP3    H255877   1.493   1.538  12.164  0.2415 -0.8380  2.2310
11488TIP3   OH255878   2.633   1.126   1.996 -0.0830  0.0730 -0.2760
11488TIP3    H155879   2.572   1.163   1.933  1.3962  1.1218 -1.1114
11488TIP3    H255880   2.709   1.101   1.944 -0.0746 -1.8971  0.6373
11489TIP3   OH255881   2.186   0.840  14.065 -0.0313 -0.1336  0.1370
11489TIP3    H155882   2.202   0.775  13.996 -1.6564 -3.1937  2.5244
11489TIP3    H255883   2.092   0.835  14.081  0.3917  0.1449  2.9121
11490TIP3   OH255884   5.719   3.070   1.236  0.4281  0.3020 -0.4380
11490TIP3    H155885   5.808   3.082   1.270  0.0677 -0.2800  0.7246
11490TIP3    H255886   5.713   3.132   1.163  2.0477 -0.2241 -1.0412
11491TIP3   OH255887   0.529   2.068   2.082  0.1675  0.1668  0.3148
11491TIP3    H155888   0.444   2.037   2.115 -0.2060  1.6716  0.8418
11491TIP3    H255889   0.568   2.114   2.157  0.2679  1.7576 -0.6972
11492TIP3   OH255890   0.247   4.611   5.955 -0.5864 -0.4479 -0.0476
11492TIP3    H155891   0.337   4.578   5.951  0.1513  1.4808  0.2470
11492TIP3    H255892   0.193   4.532   5.953  1.0839 -1.6059 -0.9414
11493TIP3   OH255893   6.405   4.056  14.310 -0.1615 -0.0024  0.4807
11493TIP3    H155894   6.492   4.090  14.289  0.3267 -1.9891 -0.8495
11493TIP3    H255895   6.408   4.038  14.404  0.2321  1.6954  0.8038
11494TIP3   OH255896   3.492   6.400   4.507 -0.0493 -0.5736 -0.2331
11494TIP3    H155897   3.579   6.417   4.542 -0.3255 -2.1401  1.2711
11494TIP3    H255898   3.469   6.313   4.540 -2.2323 -0.1304 -0.5039
11495TIP3   OH255899   5.604   5.007  14.887 -0.4184 -0.4785 -0.2345
11495TIP3    H155900   5.590   5.026  14.979 -0.1627 -1.2718 -0.0258
11495TIP3    H255901   5.517   4.982  14.855 -0.9469  1.8921 -0.7370
11496TIP3   OH255902   0.254   5.533  11.605  0.2573  0.4940 -0.1984
11496TIP3    H155903   0.328   5.472  11.602 -0.6549 -0.6256 -0.6065
11496TIP3    H255904   0.223   5.527  11.696 -0.5163 -0.5147 -0.5157
11497TIP3   OH255905   3.241   5.665  15.884 -0.4699 -0.5429 -0.0364
11497TIP3    H155906   3.222   5.575  15.912  1.5498 -1.1678 -0.5752
11497TIP3    H255907   3.166   5.716  15.915 -2.3925 -2.6381 -0.9974
11498TIP3   OH255908   3.034   1.539  13.361  0.2198 -0.0548 -0.6864
11498TIP3    H155909   3.060   1.521  13.451 -1.9169 -0.2297 -0.0559
11498TIP3    H255910   3.022   1.634  13.359 -0.9203 -0.1838 -0.4242
11499TIP3   OH255911   0.218   5.377  12.599  0.0797  0.2225 -0.0565
11499TIP3    H155912   0.190   5.309  12.538 -1.0507  0.5145  0.1256
11499TIP3    H255913   0.303   5.406  12.565 -0.0509 -0.3502 -0.8845
11500TIP3   OH255914   1.402   1.789  17.036  0.4877  1.3378 -0.8261
11500TIP3    H155915   1.391   1.884  17.038  1.4064  1.4353 -0.1255
11500TIP3    H255916   1.314   1.754  17.044  0.4101  2.1105  1.9293
11501TIP3   OH255917   4.840   0.786  16.334 -0.4864  0.0267 -0.4918
11501TIP3    H155918   4.932   0.810  16.347 -0.4313 -0.0259 -0.7893
11501TIP3    H255919   4.843   0.704  16.286 -0.6970  0.3759 -1.1013
11502TIP3   OH255920   5.576   2.868  12.230 -0.3090  0.5441  0.0793
11502TIP3    H155921   5.543   2.779  12.221  0.3937  0.2493  0.3676
11502TIP3    H255922   5.533   2.917  12.160 -1.2323  0.1379  0.3611
11503TIP3   OH255923   4.890   3.670  13.984 -0.6833 -0.2610  0.0882
11503TIP3    H155924   4.814   3.654  14.040 -0.7176 -2.4061 -0.5321
11503TIP3    H255925   4.901   3.589  13.934  1.9862  0.0303  0.1286
11504TIP3   OH255926   5.050   3.832  15.029 -0.1290 -0.2255 -0.5897
11504TIP3    H155927   5.105   3.881  15.090  2.1889 -0.1576 -2.6534
11504TIP3    H255928   5.041   3.746  15.070 -0.7130  0.5869  1.0354
11505TIP3   OH255929   6.699   4.881   1.598 -0.2261  0.1927 -0.0907
11505TIP3    H155930   6.791   4.899   1.617  0.6308 -2.0098 -1.8626
11505TIP3    H255931   6.697   4.863   1.504 -2.8571  2.3334 -0.5106
11506TIP3   OH255932   0.001   0.808   1.218  0.4030  0.5314 -0.4784
11506TIP3    H155933   0.076   0.752   1.237  0.6992  0.7889 -0.8780
11506TIP3    H255934  -0.065   0.749   1.181 -0.3542 -0.0671  1.7137
11507TIP3   OH255935   2.772   4.110   4.141 -0.6314 -0.3444  0.5417
11507TIP3    H155936   2.826   4.044   4.097  0.1122  1.4910 -1.4056
11507TIP3    H255937   2.781   4.090   4.234  1.0377 -1.8907  0.0889
11508TIP3   OH255938   0.021   6.257   3.470  0.0196  0.1017  0.0431
11508TIP3    H155939   0.027   6.294   3.382 -0.7334 -0.8660 -0.4211
11508TIP3    H255940   0.076   6.314   3.524 -1.7166  2.3604 -0.5047
11509TIP3   OH255941   6.342   4.280  12.649 -0.0891  0.2445 -0.2125
11509TIP3    H155942   6.324   4.284  12.555 -0.2670 -0.2204 -0.2012
11509TIP3    H255943   6.437   4.281  12.656 -0.0716  3.2976 -0.2541
11510TIP3   OH255944   1.569   3.797   1.091  0.2737 -0.3606  0.2007
11510TIP3    H155945   1.481   3.776   1.059  0.6723  1.0383 -1.8738
11510TIP3    H255946   1.627   3.743   1.037  0.9889  2.3789 -1.8334
11511TIP3   OH255947   0.981   5.167  13.755 -0.1976 -0.0882 -0.1413
11511TIP3    H155948   0.911   5.149  13.818 -0.9473  1.8454 -0.3899
11511TIP3    H255949   0.985   5.088  13.701 -4.1064  0.7483 -1.9051
11512TIP3   OH255950   3.936   6.493  13.998  0.2413  0.2325  0.0083
11512TIP3    H155951   3.959   6.455  14.083 -0.4931  0.6681  0.4079
11512TIP3    H255952   3.843   6.475  13.988 -0.0232  1.5579  0.0190
11513TIP3   OH255953   2.487   1.552  13.243 -0.0580 -0.5452 -0.5088
11513TIP3    H155954   2.520   1.628  13.196 -1.1825 -0.0622 -0.5266
11513TIP3    H255955   2.498   1.574  13.335  0.7703 -0.8799 -0.5246
11514TIP3   OH255956   0.271   3.074   4.957 -0.4252 -0.3884 -0.0266
11514TIP3    H155957   0.273   3.159   4.913 -1.7450 -0.4016 -0.1179
11514TIP3    H255958   0.180   3.046   4.954  0.1053 -2.1721 -0.6754
11515TIP3   OH255959   3.919   4.953   1.161 -0.0914  0.2402  0.0198
11515TIP3    H155960   3.871   4.872   1.145 -2.0297  1.3864 -0.0398
11515TIP3    H255961   3.854   5.016   1.191  1.1716  2.1054 -0.9509
11516TIP3   OH255962   0.243   5.358   2.201  0.0986  0.3510  0.4258
11516TIP3    H155963   0.167   5.395   2.157  0.2223 -2.0396 -1.9389
11516TIP3    H255964   0.314   5.365   2.137  0.6107 -1.9818  0.6722
11517TIP3   OH255965   1.386   0.340   1.298 -0.3255 -0.1386 -0.8018
11517TIP3    H155966   1.433   0.324   1.380 -1.0250 -0.0290 -0.3723
11517TIP3    H255967   1.455   0.359   1.234  0.2271 -0.2363 -0.2433
11518TIP3   OH255968   1.455   4.717  13.074  0.1982 -0.4939  0.5356
11518TIP3    H155969   1.369   4.726  13.032  0.2530 -0.4474  0.4345
11518TIP3    H255970   1.518   4.728  13.003  0.2655 -1.5937  0.4117
11519TIP3   OH255971   0.216   2.756   5.253 -0.0309  0.3893  0.8604
11519TIP3    H155972   0.184   2.701   5.324  1.6557  0.2641  1.5355
11519TIP3    H255973   0.283   2.811   5.293 -1.4261  2.6832  0.1185
11520TIP3   OH255974   1.640   4.023   1.436 -0.1492  0.2676  0.2145
11520TIP3    H155975   1.686   3.956   1.485 -0.9571  0.0689  0.7202
11520TIP3    H255976   1.657   4.003   1.344  0.9890  0.3660  0.4053
11521TIP3   OH255977   5.574   6.141  14.922  0.6862 -0.6281  0.2811
11521TIP3    H155978   5.522   6.125  14.843  2.1321 -0.3953 -0.7428
11521TIP3    H255979   5.578   6.237  14.929  1.0405 -0.6485  0.3311
11522TIP3   OH255980   5.305   2.599   2.257 -0.1850  0.2760 -0.3076
11522TIP3    H155981   5.250   2.521   2.246 -0.1369  0.5151 -2.5588
11522TIP3    H255982   5.367   2.576   2.326 -0.4043 -1.5386 -0.6979
11523TIP3   OH255983   1.954   1.591   2.431  0.1053 -0.5843 -0.1033
11523TIP3    H155984   1.959   1.645   2.510  0.7474 -1.0664  0.1834
11523TIP3    H255985   1.939   1.502   2.463 -0.0409 -0.7141 -0.5373
11524TIP3   OH255986   3.565   2.325  12.635  0.4275 -0.1340  0.1252
11524TIP3    H155987   3.555   2.399  12.575  0.0832  0.4949  0.9471
11524TIP3    H255988   3.659   2.310  12.639  0.6043  1.1467  1.0070
11525TIP3   OH255989   6.746   2.687  10.403 -0.0621 -0.4143  0.3399
11525TIP3    H155990   6.653   2.676  10.383 -0.5195 -2.5295  3.2857
11525TIP3    H255991   6.760   2.781  10.402 -1.6829 -0.1651 -2.4188
11526TIP3   OH255992   3.412   1.135  14.594  0.5204 -0.4075  0.6200
11526TIP3    H155993   3.359   1.200  14.641 -0.2495 -1.0312  0.6216
11526TIP3    H255994   3.355   1.102  14.525  2.2469  1.8572 -2.0221
11527TIP3   OH255995   1.294   3.067   5.824 -0.4555  0.0267  0.6370
11527TIP3    H155996   1.343   3.147   5.845 -0.5515 -0.0230  1.0547
11527TIP3    H255997   1.281   3.024   5.908 -1.5782  0.2467  0.5944
11528TIP3   OH255998   1.729   3.610   5.705 -0.2887 -0.2428  0.5826
11528TIP3    H155999   1.778   3.664   5.643  0.1615 -0.5441  0.6688
11528TIP3    H256000   1.675   3.553   5.650  1.2860 -1.6124  0.4027
11529TIP3   OH256001   0.203   4.105  12.685  0.3308  0.2779  0.2554
11529TIP3    H156002   0.298   4.105  12.676  0.2043 -0.7772 -1.3632
11529TIP3    H256003   0.178   4.013  12.672 -0.8607  0.4702  1.1370
11530TIP3   OH256004   6.329   1.973  11.842  0.2869  0.4753  0.4518
11530TIP3    H156005   6.279   2.054  11.855 -0.6451  0.1477 -0.9854
11530TIP3    H256006   6.375   1.987  11.759  1.2215  0.0719  0.8973
11531TIP3   OH256007   3.468   2.285   0.409  0.3537  0.3661 -0.8086
11531TIP3    H156008   3.503   2.244   0.488 -0.4735  2.0805  0.4982
11531TIP3    H256009   3.545   2.307   0.357  1.1088  1.7101  0.8161
11532TIP3   OH256010   3.849   5.720   5.031  0.2711  0.0062 -0.1179
11532TIP3    H156011   3.893   5.795   5.071 -0.2159  1.1223 -1.6199
11532TIP3    H256012   3.824   5.664   5.105  2.8382  0.0955  0.8522
11533TIP3   OH256013   0.658   5.728  14.417  0.1167  0.0133 -0.3555
11533TIP3    H156014   0.621   5.663  14.357  1.9729 -0.9120 -0.5260
11533TIP3    H256015   0.746   5.697  14.436  0.5001  1.6872  0.7787
11534TIP3   OH256016   0.330   5.124   1.696  0.2333 -0.1399 -0.6677
11534TIP3    H156017   0.405   5.180   1.712 -0.2340  0.2985  0.0206
11534TIP3    H256018   0.259   5.164   1.746  0.2928 -2.2279  1.1340
11535TIP3   OH256019   5.926   2.134   5.712 -0.1112  0.3323  0.3723
11535TIP3    H156020   5.864   2.083   5.660  0.3066  1.2960 -1.0981
11535TIP3    H256021   6.007   2.083   5.710 -0.6000 -0.5211  1.6113
11536TIP3   OH256022   2.211   4.335  16.557  0.5043  0.2758  0.6080
11536TIP3    H156023   2.193   4.297  16.643  1.0426 -1.2940  0.0334
11536TIP3    H256024   2.245   4.263  16.505 -0.0038  1.1675 -1.0040
11537TIP3   OH256025   4.277   2.177  14.279  0.1971  0.4477  0.6318
11537TIP3    H156026   4.358   2.203  14.324  0.2738 -0.0501  0.7846
11537TIP3    H256027   4.208   2.192  14.344  0.2854 -0.0869  0.8477
11538TIP3   OH256028   1.954   3.139   1.206 -0.9153 -0.0213  0.7465
11538TIP3    H156029   1.872   3.090   1.197 -1.4426  1.0978 -0.6807
11538TIP3    H256030   1.940   3.195   1.282 -2.1907  1.4964 -0.5721
11539TIP3   OH256031   2.939   5.587   0.631 -0.4719  0.1303  0.2533
11539TIP3    H156032   2.851   5.573   0.595 -0.6204  0.5244  0.4640
11539TIP3    H256033   2.926   5.648   0.703 -0.2048 -0.7996  1.1028
11540TIP3   OH256034   3.041   0.651   5.648 -0.0550 -0.4266  0.3291
11540TIP3    H156035   3.075   0.586   5.709  1.1590  1.0037  1.1892
11540TIP3    H256036   3.096   0.642   5.570 -0.3599 -0.9313  0.1723
11541TIP3   OH256037   5.185   4.393  15.420 -1.3724 -0.1682  0.2110
11541TIP3    H156038   5.112   4.448  15.392 -2.0650 -1.2838 -0.1937
11541TIP3    H256039   5.250   4.403  15.351 -2.0133 -0.8479 -0.5012
11542TIP3   OH256040   5.964   4.326   4.703 -0.0967  0.2738 -0.0326
11542TIP3    H156041   5.887   4.273   4.725  0.1710  0.1814  0.6838
11542TIP3    H256042   6.029   4.263   4.673 -0.9669  0.5384 -2.5563
11543TIP3   OH256043   2.751   5.910  14.775 -0.6676  0.3280 -0.2603
11543TIP3    H156044   2.802   5.895  14.854 -1.2108  1.8196  0.3835
11543TIP3    H256045   2.796   5.860  14.707 -0.5333 -1.4482  1.1105
11544TIP3   OH256046   5.323   0.431   0.590 -0.8093 -0.2934 -0.1587
11544TIP3    H156047   5.302   0.459   0.679  0.1578  0.0504 -0.0244
11544TIP3    H256048   5.366   0.346   0.601 -0.2383 -0.0229 -0.2469
11545TIP3   OH256049   5.021   1.183  12.776  0.0198  0.1736 -0.2728
11545TIP3    H156050   5.074   1.106  12.755 -0.8593 -0.4182 -0.3348
11545TIP3    H256051   4.956   1.151  12.838 -0.5250  0.8100 -0.5114
11546TIP3   OH256052   4.445   0.956   1.855 -0.7154  0.4065  0.2297
11546TIP3    H156053   4.511   1.009   1.810  1.8278 -0.9204  2.2720
11546TIP3    H256054   4.474   0.866   1.843 -2.8235 -0.2870  0.1938
11547TIP3   OH256055   1.209   0.015   3.156  0.0315  0.2315  0.3175
11547TIP3    H156056   1.126   0.046   3.193  0.4666  1.5261  0.2236
11547TIP3    H256057   1.242   0.089   3.106  0.8794 -0.5387 -0.2838
11548TIP3   OH256058   3.618   3.259  13.341 -0.5518 -0.1682  0.0303
11548TIP3    H156059   3.542   3.235  13.395  0.1303  1.1882  1.6569
11548TIP3    H256060   3.594   3.344  13.304  0.9406  1.2423  2.1805
11549TIP3   OH256061   0.407   1.475   5.496  0.2071 -0.5343 -0.0706
11549TIP3    H156062   0.335   1.536   5.481  0.2448 -0.2591  0.8005
11549TIP3    H256063   0.470   1.495   5.426 -0.8175 -1.1868 -1.1787
11550TIP3   OH256064   2.662   3.239   6.479 -0.7824  0.1416 -0.4216
11550TIP3    H156065   2.694   3.222   6.568  0.6508  1.7741 -0.6029
11550TIP3    H256066   2.685   3.160   6.430 -2.5268 -1.2215  0.8694
11551TIP3   OH256067   2.197   6.027   0.550  0.0752  0.2600 -0.0810
11551TIP3    H156068   2.170   6.029   0.641  0.1852  0.1901 -0.0465
11551TIP3    H256069   2.117   6.046   0.500 -0.2905 -1.1061 -0.0303
11552TIP3   OH256070   4.990   4.811  13.680 -0.4277 -0.0259 -0.2013
11552TIP3    H156071   5.070   4.765  13.654 -1.5086 -0.8597 -2.1965
11552TIP3    H256072   4.994   4.814  13.775  1.7346 -0.4894 -0.2466
11553TIP3   OH256073   0.027   5.568  12.816 -0.2721  0.0341 -0.3339
11553TIP3    H156074   0.012   5.651  12.771 -0.3951 -0.5464 -1.3797
11553TIP3    H256075   0.044   5.505  12.746 -0.9105 -0.9845  0.4046
11554TIP3   OH256076   2.435   0.447  12.512  0.0140 -0.2571  0.5744
11554TIP3    H156077   2.412   0.444  12.419 -0.5113  0.6486  0.6610
11554TIP3    H256078   2.429   0.540  12.534  0.8410 -0.3884  1.3407
11555TIP3   OH256079   2.184   0.360   0.851  0.2321  0.2752  0.1883
11555TIP3    H156080   2.152   0.287   0.797  1.4696 -1.6354  1.9658
11555TIP3    H256081   2.135   0.436   0.820 -2.0241 -1.5442 -0.8527
11556TIP3   OH256082   0.008   3.279  17.064 -0.3288  0.2470 -0.0621
11556TIP3    H156083  -0.012   3.369  17.039  0.4576  1.7511  4.2834
11556TIP3    H256084   0.099   3.283  17.095 -0.7837 -1.7275  1.5974
11557TIP3   OH256085   4.895   3.588   0.614  0.0246  0.3761  0.4743
11557TIP3    H156086   4.950   3.516   0.583  0.9254  0.1603  2.4819
11557TIP3    H256087   4.954   3.642   0.666 -1.0465  1.6349  0.3907
11558TIP3   OH256088   0.639   4.605  16.177 -0.4766 -0.5711 -0.5551
11558TIP3    H156089   0.629   4.516  16.142 -0.7940 -0.1503 -1.5510
11558TIP3    H256090   0.561   4.652  16.146 -1.1827 -0.4104  1.4290
11559TIP3   OH256091   3.688   4.453  10.856 -0.3318  0.0517  0.4533
11559TIP3    H156092   3.659   4.428  10.768 -0.7290 -0.2047  0.6554
11559TIP3    H256093   3.756   4.388  10.877  1.5709  1.6001 -0.6573
11560TIP3   OH256094   1.014   1.929   3.043 -0.2729 -0.4489 -0.4827
11560TIP3    H156095   1.053   1.865   2.983 -1.3047 -1.6740  0.1563
11560TIP3    H256096   1.086   1.954   3.101  1.0142  1.5102 -2.8425
11561TIP3   OH256097   2.529   0.655  11.264 -0.0563 -0.1717 -0.1848
11561TIP3    H156098   2.450   0.639  11.315 -0.4885  0.0415 -0.7820
11561TIP3    H256099   2.510   0.618  11.178 -0.4210  2.0106 -1.0734
11562TIP3   OH256100   2.384   2.909   4.431 -0.3683  1.1275 -0.2823
11562TIP3    H156101   2.400   3.001   4.449 -0.4588  0.7735  1.6481
11562TIP3    H256102   2.465   2.865   4.456 -1.1588  0.4147  1.0821
11563TIP3   OH256103   1.321   0.982   3.157 -0.5478 -0.1588  0.6057
11563TIP3    H156104   1.226   0.987   3.150 -0.8498 -0.3180  3.7745
11563TIP3    H256105   1.337   0.913   3.222  1.7094  0.3638  0.6584
11564TIP3   OH256106   0.493   6.275   2.637  0.2277 -0.3102 -0.4404
11564TIP3    H156107   0.403   6.280   2.604 -1.0385  0.1795  2.8385
11564TIP3    H256108   0.514   6.366   2.660  0.8102 -0.7038  0.6051
11565TIP3   OH256109   2.486   3.449  13.756 -0.4055  0.4951 -0.2795
11565TIP3    H156110   2.552   3.383  13.731 -1.1723 -0.0648 -0.8494
11565TIP3    H256111   2.489   3.450  13.852 -1.2211 -1.2479 -0.2163
11566TIP3   OH256112   1.916   4.668  13.067 -0.8551  0.5651 -0.3194
11566TIP3    H156113   1.841   4.726  13.054 -0.5675  1.4025  1.6361
11566TIP3    H256114   1.883   4.600  13.126  0.3799  1.9272  2.0050
11567TIP3   OH256115   6.557   0.829  17.039  0.8160  0.3775 -0.1305
11567TIP3    H156116   6.552   0.790  16.952 -2.5555 -1.4873  0.7822
11567TIP3    H256117   6.597   0.762  17.094  1.5148  0.9557  0.0757
11568TIP3   OH256118   4.754   3.023  15.701 -0.7247  0.1302  0.0065
11568TIP3    H156119   4.802   3.070  15.633  1.1037  0.2572  1.3544
11568TIP3    H256120   4.757   2.931  15.673 -0.4183  0.2516 -0.3669
11569TIP3   OH256121   4.726   4.486  15.680  0.2089  0.0084 -0.3152
11569TIP3    H156122   4.795   4.540  15.640 -1.5706  0.8510 -2.3472
11569TIP3    H256123   4.733   4.505  15.774  0.4245  2.8865 -0.8625
11570TIP3   OH256124   4.681   0.597   3.387 -0.0565 -0.1130  0.5763
11570TIP3    H156125   4.602   0.545   3.375  0.0156  0.1835 -1.4542
11570TIP3    H256126   4.653   0.673   3.437 -1.2854  0.4589 -0.9432
11571TIP3   OH256127   0.929   3.355  15.208 -0.1402 -0.0757 -0.2197
11571TIP3    H156128   0.858   3.387  15.153  0.9403 -1.4345 -2.4724
11571TIP3    H256129   0.885   3.303  15.276 -1.5353  2.2713  0.7372
11572TIP3   OH256130   1.649   5.312  13.925  0.3106  0.5854 -0.4294
11572TIP3    H156131   1.586   5.350  13.863 -0.3888  2.1405  1.1905
11572TIP3    H256132   1.735   5.329  13.887 -0.0776  2.3024 -0.5663
11573TIP3   OH256133   2.327   4.938  12.183 -0.2838  0.2686  0.2090
11573TIP3    H156134   2.381   4.878  12.132  1.1451 -1.0879  3.2139
11573TIP3    H256135   2.380   4.958  12.260 -2.8546  1.3112  1.7656
11574TIP3   OH256136   5.241   4.019  12.137  0.5637 -0.4330 -0.6520
11574TIP3    H156137   5.314   4.078  12.123  1.1630 -1.1799 -0.6858
11574TIP3    H256138   5.169   4.076  12.166  1.5652  0.1153  0.7869
11575TIP3   OH256139   2.881   5.483  16.264 -0.0519 -0.2766 -0.9068
11575TIP3    H156140   2.801   5.531  16.244 -0.0561  0.2777  0.4142
11575TIP3    H256141   2.941   5.549  16.300  0.2385 -1.0898  0.1334
11576TIP3   OH256142   4.463   4.152  15.961 -0.1595  0.6429 -0.3518
11576TIP3    H156143   4.522   4.203  16.016  0.2464 -0.3935  0.2059
11576TIP3    H256144   4.499   4.161  15.873  0.5606  0.4147 -0.0906
11577TIP3   OH256145   4.409   5.355  11.597 -0.1931 -0.1411 -0.4569
11577TIP3    H156146   4.434   5.447  11.612  1.1539 -0.6238  0.3777
11577TIP3    H256147   4.336   5.340  11.656  0.1141  0.1604  0.0017
11578TIP3   OH256148   5.754   2.047   5.490  0.6499  0.0707  0.1026
11578TIP3    H156149   5.784   2.138   5.484 -1.8327  1.1484  2.8664
11578TIP3    H256150   5.659   2.054   5.497  0.5088 -2.6577  1.5659
11579TIP3   OH256151   0.411   4.595   4.017 -0.4219 -0.5216 -0.2414
11579TIP3    H156152   0.434   4.506   4.043 -2.4689 -1.2325 -0.7231
11579TIP3    H256153   0.492   4.645   4.025  0.9332 -2.6060 -0.7379
11580TIP3   OH256154   2.721   4.580   5.230  0.1900 -0.3630 -0.3907
11580TIP3    H156155   2.721   4.533   5.313  1.0640  2.3680  1.2334
11580TIP3    H256156   2.637   4.626   5.229  1.5837  2.3045  0.6424
11581TIP3   OH256157   3.802   2.590   1.993  0.4592 -0.1478  0.0611
11581TIP3    H156158   3.794   2.506   2.038 -0.1396  0.6337  1.4610
11581TIP3    H256159   3.729   2.643   2.026  0.5811  0.7856 -1.1124
11582TIP3   OH256160   0.043   5.026  14.397 -0.3041 -0.5956  0.2128
11582TIP3    H156161  -0.035   5.063  14.437 -0.6723 -1.6302  0.4902
11582TIP3    H256162   0.116   5.071  14.439 -0.7651  1.9779 -1.6511
11583TIP3   OH256163   3.656   1.871  14.726  0.2604  0.3438 -0.3027
11583TIP3    H156164   3.633   1.883  14.818 -0.0899 -0.6516 -0.2563
11583TIP3    H256165   3.575   1.838  14.685  0.8945 -0.8332 -0.6279
11584TIP3   OH256166   3.476   2.299   3.608 -0.0334  0.0027 -0.5087
11584TIP3    H156167   3.520   2.254   3.536  1.0957 -0.7754  0.6386
11584TIP3    H256168   3.454   2.229   3.670 -2.3136  0.4704 -0.7460
11585TIP3   OH256169   3.567   5.485   5.383  0.2410  0.0501 -0.5233
11585TIP3    H156170   3.483   5.452   5.415  1.5746 -3.8851 -0.8373
11585TIP3    H256171   3.615   5.510   5.462 -0.2553 -0.1641 -0.1548
11586TIP3   OH256172   5.009   5.626  16.380 -0.0859 -0.2423 -0.6055
11586TIP3    H156173   4.973   5.648  16.293 -0.2637  0.9526 -0.2419
11586TIP3    H256174   4.972   5.692  16.438  1.6156  0.1854  0.0278
11587TIP3   OH256175   1.008   4.174  13.271  0.8541 -0.5435  0.2563
11587TIP3    H156176   1.067   4.200  13.341 -0.9302 -1.2946  2.0923
11587TIP3    H256177   0.926   4.220  13.291  0.1875 -1.1207 -1.0867
11588TIP3   OH256178   1.689   4.481  11.334 -0.2909  0.0531  0.0786
11588TIP3    H156179   1.614   4.462  11.279  0.2421  0.6702 -0.8717
11588TIP3    H256180   1.765   4.459  11.280  0.2069 -0.8361  1.1344
11589TIP3   OH256181   1.306   6.539  16.616 -0.2530  0.1004 -0.4695
11589TIP3    H156182   1.214   6.544  16.642 -0.2782 -0.6098 -0.4208
11589TIP3    H256183   1.323   6.446  16.605  0.5399  0.2102 -0.2002
11590TIP3   OH256184   4.941   2.557  12.306 -0.6880 -0.3578 -0.2222
11590TIP3    H156185   4.948   2.647  12.274  0.1312 -0.4851 -0.4240
11590TIP3    H256186   5.010   2.550  12.372 -1.0358 -0.7114  0.1091
11591TIP3   OH256187   0.411   1.998  13.828 -0.2826 -0.0358 -0.2067
11591TIP3    H156188   0.484   1.985  13.889  0.6994 -0.7930 -1.5096
11591TIP3    H256189   0.449   2.048  13.756 -0.6637 -1.6214 -1.5598
11592TIP3   OH256190   5.108   5.000  11.562 -0.6281 -0.0153  0.0708
11592TIP3    H156191   5.030   5.026  11.514 -2.1905 -0.4411  2.3181
11592TIP3    H256192   5.092   5.028  11.652  2.6414  1.6385  0.2277
11593TIP3   OH256193   5.940   5.070   4.471  0.3484 -0.5823 -0.3152
11593TIP3    H156194   5.992   5.042   4.396  3.6026  0.7490  1.3500
11593TIP3    H256195   5.905   5.155   4.445 -0.2075 -1.0255 -1.0544
11594TIP3   OH256196   5.474   4.001  15.636 -0.7818 -0.0129 -0.8967
11594TIP3    H156197   5.553   4.017  15.687 -0.7329  0.3889 -1.0963
11594TIP3    H256198   5.456   3.908  15.649 -2.0961  0.5814  1.7169
11595TIP3   OH256199   4.298   1.423  14.945  0.4107 -0.1132 -0.2522
11595TIP3    H156200   4.282   1.334  14.978  1.5402 -0.0985  0.3726
11595TIP3    H256201   4.344   1.409  14.862 -0.0327 -0.1232 -0.4940
11596TIP3   OH256202   0.525   6.069  16.470 -0.0325  0.5024  0.4269
11596TIP3    H156203   0.598   6.062  16.409 -1.4768  1.7237 -1.5000
11596TIP3    H256204   0.501   5.979  16.491  1.0074  0.0883 -0.1660
11597TIP3   OH256205   4.894   1.857   6.392 -0.3216 -0.1342 -0.4721
11597TIP3    H156206   4.866   1.946   6.369  0.9263  0.9227  1.8925
11597TIP3    H256207   4.813   1.811   6.412 -0.7872  1.4073  1.3160
11598TIP3   OH256208   6.358   2.503  13.240  0.2117 -0.1467  0.1681
11598TIP3    H156209   6.419   2.577  13.236  0.2829 -0.1622  0.8216
11598TIP3    H256210   6.357   2.479  13.333  1.5240 -2.0695 -0.2882
11599TIP3   OH256211   3.131   2.433  12.114 -0.1872 -0.2407 -0.4264
11599TIP3    H156212   3.094   2.367  12.172 -0.5504  0.6034  0.3137
11599TIP3    H256213   3.218   2.398  12.091 -0.3518 -0.9471 -0.0064
11600TIP3   OH256214   4.068   5.563  13.315 -0.3746 -0.2786  0.0551
11600TIP3    H156215   4.120   5.590  13.391  0.5603 -0.9152 -0.3414
11600TIP3    H256216   3.981   5.544  13.350 -0.2226  0.4086  0.8017
11601TIP3   OH256217   4.548   4.119  14.923  0.2566 -0.7357 -0.3434
11601TIP3    H156218   4.553   4.116  15.019  0.2975 -0.7128 -0.3445
11601TIP3    H256219   4.551   4.212  14.901 -0.1442 -0.7271 -0.3476
11602TIP3   OH256220   4.464   4.875   1.735  0.6494  0.0756  0.1118
11602TIP3    H156221   4.450   4.967   1.713  3.1158  0.2459 -0.9231
11602TIP3    H256222   4.424   4.827   1.663  0.9000  0.4033 -0.2510
11603TIP3   OH256223   6.159   4.697  11.307 -0.3822  0.2632  0.1181
11603TIP3    H156224   6.181   4.727  11.395 -2.0870  2.2599 -0.1065
11603TIP3    H256225   6.087   4.635  11.320 -0.9204  0.8849  0.0922
11604TIP3   OH256226   0.847   6.696  16.831 -0.6518 -0.1908  0.4520
11604TIP3    H156227   0.892   6.689  16.915 -0.7408  1.8192  0.7006
11604TIP3    H256228   0.800   6.779  16.836  1.4076  1.2507 -2.5502
11605TIP3   OH256229   1.011   4.512   0.952 -0.3164 -0.0363  0.3697
11605TIP3    H156230   1.102   4.514   0.923  0.5040 -1.0301  2.7207
11605TIP3    H256231   0.990   4.604   0.969  0.2705  0.1912 -0.1003
11606TIP3   OH256232   6.237   2.612  16.993  0.3454 -0.2686  0.2606
11606TIP3    H156233   6.241   2.547  16.922  0.6592  1.1769 -1.0728
11606TIP3    H256234   6.303   2.582  17.056 -0.2823 -1.8433  0.1922
11607TIP3   OH256235   3.222   1.813  14.996 -0.0275 -0.0952  0.4488
11607TIP3    H156236   3.260   1.742  15.048 -0.7790 -0.8327  0.0075
11607TIP3    H256237   3.132   1.821  15.030 -0.2211  0.0509 -0.0978
11608TIP3   OH256238   1.172   2.243   3.189  0.2781  0.8003  0.2265
11608TIP3    H156239   1.229   2.319   3.202 -1.1808  1.8447  0.5750
11608TIP3    H256240   1.148   2.246   3.096 -0.4429  1.2453  0.4232
11609TIP3   OH256241   4.794   1.339  12.088 -0.5545  0.8161  0.3208
11609TIP3    H156242   4.869   1.293  12.125  0.2010  1.1929 -0.7348
11609TIP3    H256243   4.758   1.388  12.162  0.7296  1.2903  0.6504
11610TIP3   OH256244   5.564   2.879   1.896  0.4152  0.1907  0.4598
11610TIP3    H156245   5.648   2.844   1.927 -0.1680 -0.8876  0.8713
11610TIP3    H256246   5.580   2.903   1.805  0.8171 -1.2621  0.1308
11611TIP3   OH256247   2.549   2.253   6.246 -0.2012  0.8153 -0.2592
11611TIP3    H156248   2.554   2.186   6.315 -0.4758 -2.0056 -2.9062
11611TIP3    H256249   2.641   2.276   6.229 -0.1578  1.9804  1.4293
11612TIP3   OH256250   3.503   1.148   4.949 -0.0834  0.1867 -0.0944
11612TIP3    H156251   3.461   1.188   4.872  0.1398  0.0928 -0.2674
11612TIP3    H256252   3.500   1.217   5.016 -1.0326 -0.0204  0.0847
11613TIP3   OH256253   5.398   2.030   2.604  0.3559 -0.6941  0.0725
11613TIP3    H156254   5.392   1.973   2.527 -0.7806 -1.6626  0.8732
11613TIP3    H256255   5.416   2.117   2.567 -1.2693 -0.9508 -1.3629
11614TIP3   OH256256   4.475   0.564   0.039  0.0395 -0.3107  0.2947
11614TIP3    H156257   4.396   0.544   0.089 -0.4137 -1.9077 -1.0280
11614TIP3    H256258   4.448   0.630  -0.024 -0.4111 -1.2807 -0.5488
11615TIP3   OH256259   3.825   2.452  16.933 -0.1834 -0.1959  0.5310
11615TIP3    H156260   3.771   2.484  17.005 -0.4879 -1.6121  0.9572
11615TIP3    H256261   3.770   2.388  16.888  0.9585 -1.3269  0.7010
11616TIP3   OH256262   5.319   2.651   0.292  0.1774  0.3976  0.1382
11616TIP3    H156263   5.349   2.608   0.372 -2.1519  0.1876  0.9413
11616TIP3    H256264   5.345   2.592   0.221  0.3703 -0.4564  0.9173
11617TIP3   OH256265   5.124   1.640  12.581  0.6575  0.2443  0.4363
11617TIP3    H156266   5.186   1.597  12.523 -1.6032  1.1301 -2.7919
11617TIP3    H256267   5.067   1.569  12.612 -1.0607  0.3615 -2.2929
11618TIP3   OH256268   4.873   3.158   4.480 -0.1209  0.4318  0.4269
11618TIP3    H156269   4.810   3.104   4.528 -0.4780  2.0541  1.8284
11618TIP3    H256270   4.958   3.117   4.498 -0.3931  0.2810  1.3985
11619TIP3   OH256271   0.330   3.335  13.295  0.4466  0.4474 -0.5332
11619TIP3    H156272   0.259   3.318  13.358  0.9272  0.1150 -0.0745
11619TIP3    H256273   0.292   3.397  13.233 -0.5795 -0.5070 -0.8790
11620TIP3   OH256274   3.793   3.082   4.342 -0.4782  0.2371 -0.3907
11620TIP3    H156275   3.825   3.163   4.381 -0.5452  0.0318  0.1002
11620TIP3    H256276   3.789   3.020   4.416 -0.0041 -0.3368 -0.8344
11621TIP3   OH256277   3.851   5.150   6.255 -0.6860 -0.7042  0.5914
11621TIP3    H156278   3.786   5.197   6.306 -0.9071  0.5461 -0.8178
11621TIP3    H256279   3.934   5.195   6.272 -1.0609  0.8112 -1.4982
11622TIP3   OH256280   2.596   1.137   4.275 -0.3519 -0.1082 -0.2819
11622TIP3    H156281   2.611   1.075   4.347  3.0860 -1.5239 -2.0620
11622TIP3    H256282   2.570   1.082   4.201  0.5287  0.7989 -1.2862
11623TIP3   OH256283   6.213   3.512   3.917 -1.2439  0.2818  0.2338
11623TIP3    H156284   6.119   3.496   3.922 -1.1948  0.1826  0.9580
11623TIP3    H256285   6.224   3.600   3.952 -0.9986  0.0289  0.8081
11624TIP3   OH256286   1.767   5.583   1.193 -0.1365  0.3309 -0.0025
11624TIP3    H156287   1.795   5.493   1.204  0.2288  0.3657 -0.6472
11624TIP3    H256288   1.746   5.613   1.282 -0.4769 -0.4518  0.1793
11625TIP3   OH256289   6.714   3.890  14.094  0.3508 -0.2465  0.3464
11625TIP3    H156290   6.740   3.835  14.021  0.0300  2.6710 -2.0540
11625TIP3    H256291   6.643   3.842  14.136  1.0739 -2.3292 -0.7485
11626TIP3   OH256292   4.647   0.708  16.063 -0.3156  0.2504 -0.3447
11626TIP3    H156293   4.713   0.759  16.109  0.3116 -1.3371  0.5810
11626TIP3    H256294   4.660   0.729  15.971  2.0969 -0.6676 -0.2652
11627TIP3   OH256295   1.293   5.224   1.295 -0.0725 -0.8428 -0.2422
11627TIP3    H156296   1.382   5.233   1.330 -0.5195 -0.2379  0.7637
11627TIP3    H256297   1.306   5.204   1.203  1.1061 -0.4075 -0.1854
11628TIP3   OH256298   4.272   3.550   0.700 -0.6177 -0.1792  0.3209
11628TIP3    H156299   4.330   3.615   0.661 -0.2110 -1.1111 -0.6549
11628TIP3    H256300   4.249   3.492   0.628 -2.6360  0.0767  0.7339
11629TIP3   OH256301   0.821   0.144   5.227  0.2327  0.3090 -0.1385
11629TIP3    H156302   0.771   0.223   5.244  1.8702  1.2261  0.5349
11629TIP3    H256303   0.887   0.170   5.164  2.5281  0.2163  2.1523
11630TIP3   OH256304   4.805   3.389   1.816  0.8908 -0.3059  0.0149
11630TIP3    H156305   4.831   3.471   1.774  0.5392 -0.2400 -0.0751
11630TIP3    H256306   4.877   3.328   1.797  1.7458  0.3325  1.1357
11631TIP3   OH256307   5.461   6.650   6.202 -0.2328  0.7228  0.1829
11631TIP3    H156308   5.418   6.728   6.166  1.2619  2.3148  1.7144
11631TIP3    H256309   5.416   6.634   6.285 -0.2376  0.2259  0.0875
11632TIP3   OH256310   6.718   4.012   0.961 -0.1413 -0.1348 -0.0668
11632TIP3    H156311   6.746   4.023   0.870 -0.4328 -0.2398 -0.1703
11632TIP3    H256312   6.799   4.002   1.010  0.1261  1.9692 -0.0373
11633TIP3   OH256313   1.624   1.213  16.992  0.4706  0.4613 -0.0748
11633TIP3    H156314   1.664   1.243  16.911  1.1487  1.3583  0.5773
11633TIP3    H256315   1.686   1.239  17.061 -0.1197 -0.2258  0.7329
11634TIP3   OH256316   6.766   2.147  12.315 -0.4523  0.6408 -0.1567
11634TIP3    H156317   6.853   2.113  12.338 -1.2986 -0.9712  0.7720
11634TIP3    H256318   6.761   2.232  12.359  1.1417  1.3386 -1.2801
11635TIP3   OH256319   2.667   4.131  15.464 -0.1264 -0.1029 -0.0432
11635TIP3    H156320   2.578   4.125  15.428  0.2084 -2.3989 -0.5928
11635TIP3    H256321   2.704   4.210  15.424 -1.6761  0.4904 -0.3508
11636TIP3   OH256322   6.264   4.996   2.026 -0.5440  0.2485  0.4302
11636TIP3    H156323   6.341   4.939   2.034 -0.9727 -0.1694  1.6333
11636TIP3    H256324   6.281   5.046   1.946  0.1841 -1.0414 -0.2576
11637TIP3   OH256325   5.666   5.447  12.930 -0.2493  0.6789 -0.6384
11637TIP3    H156326   5.586   5.499  12.939  0.1020  1.2109 -0.5423
11637TIP3    H256327   5.724   5.481  12.998 -0.3202 -0.4110 -0.0374
11638TIP3   OH256328   4.311   2.376  12.207  0.1712  0.4956  0.0110
11638TIP3    H156329   4.285   2.465  12.231  0.1984  0.3641  0.5348
11638TIP3    H256330   4.284   2.367  12.115  1.9148  1.7076 -0.6405
11639TIP3   OH256331   1.992   1.006  12.126  0.1611  0.4400 -0.0451
11639TIP3    H156332   1.920   0.990  12.186  0.3300  1.8692  0.5733
11639TIP3    H256333   2.021   1.095  12.146  0.8273  0.6087 -1.6170
11640TIP3   OH256334   5.811   0.961   2.846 -0.1981  0.6814 -0.3746
11640TIP3    H156335   5.754   0.903   2.897 -0.6175  0.2435 -1.3261
11640TIP3    H256336   5.898   0.947   2.883 -0.5106  0.4303  0.2785
11641TIP3   OH256337   2.842   1.276   1.257 -0.7976  0.3907  0.2349
11641TIP3    H156338   2.889   1.309   1.334  0.5572 -0.5162 -0.1910
11641TIP3    H256339   2.785   1.349   1.232  1.0399  1.8856  0.2249
11642TIP3   OH256340   6.147   0.872  10.369  0.5081  0.5877  0.9092
11642TIP3    H156341   6.059   0.844  10.343  0.1145  1.3502  1.3704
11642TIP3    H256342   6.169   0.816  10.443  0.6682 -0.0311  0.3904
11643TIP3   OH256343   2.393   5.790   2.827  0.1446 -0.3604  0.9520
11643TIP3    H156344   2.376   5.733   2.902  2.1057 -1.6339  0.4595
11643TIP3    H256345   2.361   5.741   2.751  0.1595 -0.0135  0.7185
11644TIP3   OH256346   3.596   6.192   1.013  0.1369  0.5526  0.2668
11644TIP3    H156347   3.663   6.124   1.024  0.0528  0.7017  1.7663
11644TIP3    H256348   3.630   6.246   0.941  0.0192 -1.2692 -1.2206
11645TIP3   OH256349   6.250   5.409   6.059 -0.4832  0.2929 -0.1257
11645TIP3    H156350   6.272   5.320   6.086 -0.7635  0.8630  2.0367
11645TIP3    H256351   6.223   5.399   5.967  3.5136 -1.1947 -1.2427
11646TIP3   OH256352   1.566   2.006   2.780  0.0523 -0.2218  0.2275
11646TIP3    H156353   1.512   2.046   2.848  1.6527  0.7419  0.9624
11646TIP3    H256354   1.656   2.030   2.803  0.9034 -2.7109 -0.3544
11647TIP3   OH256355   6.025   3.697   3.404 -0.8478  0.1328 -0.6541
11647TIP3    H156356   6.000   3.775   3.454 -2.0209 -0.1289 -0.8296
11647TIP3    H256357   5.970   3.627   3.439  1.2158 -0.9729  0.5256
11648TIP3   OH256358   2.893   5.789   2.380 -0.4063  0.0400  0.8584
11648TIP3    H156359   2.929   5.849   2.315 -1.9622  1.9152  1.6740
11648TIP3    H256360   2.968   5.738   2.410  0.4997 -0.2243 -1.7256
11649TIP3   OH256361   1.243   6.680   5.033  0.0644 -0.1695 -0.2848
11649TIP3    H156362   1.203   6.761   5.063  1.2389  0.9794 -1.7346
11649TIP3    H256363   1.338   6.697   5.037  0.3334 -1.5859 -0.2592
11650TIP3   OH256364   6.421   5.736  16.688 -0.3856 -0.3380 -0.3959
11650TIP3    H156365   6.405   5.642  16.678 -0.6512 -0.1492 -1.7715
11650TIP3    H256366   6.399   5.774  16.603  0.5755  0.8610 -0.1262
11651TIP3   OH256367   2.742   5.282   0.140  0.1241 -0.1159  0.1771
11651TIP3    H156368   2.683   5.274   0.065 -0.4140  2.1881  0.3226
11651TIP3    H256369   2.798   5.204   0.134 -2.1004 -1.7317 -0.6545
11652TIP3   OH256370   5.375   6.443  14.549  0.0131 -0.0122 -0.2354
11652TIP3    H156371   5.291   6.480  14.522  0.3351 -0.2224 -1.5690
11652TIP3    H256372   5.360   6.413  14.639 -1.2270  0.2882 -0.3323
11653TIP3   OH256373   3.804   3.867  12.406 -0.2091  0.1198 -0.6779
11653TIP3    H156374   3.717   3.889  12.440  0.8040  1.1557  1.2730
11653TIP3    H256375   3.824   3.938  12.345 -0.6549 -0.0500 -1.0320
11654TIP3   OH256376   1.596   3.642  14.941  0.5279 -0.3194  0.0630
11654TIP3    H156377   1.642   3.677  15.017 -0.0061 -0.6050  0.5261
11654TIP3    H256378   1.611   3.706  14.872  1.8958 -0.5755  0.1164
11655TIP3   OH256379   2.914   4.945   0.787  0.0321 -0.1451 -0.3051
11655TIP3    H156380   2.865   4.887   0.729  0.4752 -0.3450 -0.4837
11655TIP3    H256381   2.985   4.891   0.820  1.1155  0.6039 -1.3571
11656TIP3   OH256382   1.810   0.001  13.977 -0.0624 -0.0340 -0.3644
11656TIP3    H156383   1.753  -0.075  13.985 -0.8603  0.3786 -1.9353
11656TIP3    H256384   1.767   0.070  14.028  0.0273 -0.2736  0.0353
11657TIP3   OH256385   4.346   0.004   1.930  0.0948 -0.0036  0.3176
11657TIP3    H156386   4.259   0.013   1.970 -0.6249  0.9516 -1.4055
11657TIP3    H256387   4.384   0.091   1.936  0.3114 -0.0516 -0.2929
11658TIP3   OH256388   4.809   5.939   3.488  0.3169  0.1574 -0.0218
11658TIP3    H156389   4.895   5.941   3.444 -0.1490  1.7673 -0.8854
11658TIP3    H256390   4.754   5.890   3.427  0.5580 -0.6838  0.4299
11659TIP3   OH256391   5.839   2.563  16.027 -0.1177 -0.0135  0.1545
11659TIP3    H156392   5.790   2.482  16.046 -1.3476  0.8325  0.6923
11659TIP3    H256393   5.875   2.589  16.112  0.9187 -0.3934 -0.1619
11660TIP3   OH256394   2.582   0.882   5.299  0.6045  0.3408 -0.2687
11660TIP3    H156395   2.608   0.884   5.391 -0.4797  0.0154  0.0512
11660TIP3    H256396   2.496   0.842   5.299  0.0771  1.4255 -1.3045
11661TIP3   OH256397   5.018   6.215   0.036 -0.2911 -0.0639 -0.1528
11661TIP3    H156398   5.070   6.223   0.117 -1.0270  1.3119  0.1889
11661TIP3    H256399   4.950   6.281   0.045 -0.0131  0.5154 -2.1953
11662TIP3   OH256400   2.167   5.349   5.858 -0.0208 -0.1823 -0.5097
11662TIP3    H156401   2.207   5.433   5.880  0.3910 -0.3323 -0.6732
11662TIP3    H256402   2.073   5.363   5.868 -0.1472  1.0533 -3.0467
11663TIP3   OH256403   6.540   6.398  14.619  0.6455  0.2581  0.1588
11663TIP3    H156404   6.518   6.491  14.631  0.5234  0.2346  0.1139
11663TIP3    H256405   6.561   6.390  14.526  1.3128  0.3773  0.2919
11664TIP3   OH256406   0.440   6.545  11.936  0.3470  0.4504  0.2454
11664TIP3    H156407   0.493   6.614  11.977  0.8487  0.3362 -0.2195
11664TIP3    H256408   0.444   6.564  11.842 -0.4501  0.4546  0.2083
11665TIP3   OH256409   4.450   3.923   0.196 -0.7329  0.5598  0.0245
11665TIP3    H156410   4.382   3.982   0.229  0.2769  2.8425 -1.8282
11665TIP3    H256411   4.411   3.883   0.118 -0.7446  0.2003  0.2148
11666TIP3   OH256412   1.491   5.495  13.549 -0.4436  0.1576  0.3642
11666TIP3    H156413   1.429   5.563  13.522  0.2824  0.0904 -1.5546
11666TIP3    H256414   1.462   5.417  13.503  0.9756  0.0998 -0.4625
11667TIP3   OH256415   1.471   1.731   2.466  0.2396  0.2270 -0.7037
11667TIP3    H156416   1.411   1.757   2.397 -0.3223 -0.4737 -0.4792
11667TIP3    H256417   1.500   1.643   2.442  0.9208  0.4248 -0.6381
11668TIP3   OH256418   5.749   2.836   5.763 -0.3665 -0.0035 -0.1964
11668TIP3    H156419   5.730   2.896   5.835  1.0831 -0.5423  0.6754
11668TIP3    H256420   5.803   2.768   5.803  0.6488 -0.1954 -1.8439
11669TIP3   OH256421   3.137   1.834   5.915  0.3509  0.0156  0.6039
11669TIP3    H156422   3.155   1.761   5.975 -2.9431 -0.2495  1.3965
11669TIP3    H256423   3.199   1.902   5.941  0.7562 -1.0606  2.5833
11670TIP3   OH256424   5.523   1.791   1.581 -0.2689 -0.0223  0.8392
11670TIP3    H156425   5.443   1.808   1.632 -0.0526  2.8673  0.3067
11670TIP3    H256426   5.491   1.772   1.492 -0.4708 -1.6033  1.2345
11671TIP3   OH256427   4.753   2.380  16.805 -0.4525  0.2666 -0.0807
11671TIP3    H156428   4.767   2.351  16.895  0.0261 -0.7912 -0.4930
11671TIP3    H256429   4.833   2.354  16.758 -0.7112  0.7769 -0.8246
11672TIP3   OH256430   4.399   6.257   1.246  0.0525 -0.5259 -0.1436
11672TIP3    H156431   4.344   6.334   1.231  2.3220  1.1090 -0.2622
11672TIP3    H256432   4.411   6.254   1.341  0.7893 -0.1455 -0.2243
11673TIP3   OH256433   1.660   6.326  13.518 -0.2404 -0.5977  0.2830
11673TIP3    H156434   1.722   6.280  13.575 -0.3714 -0.0618  0.8627
11673TIP3    H256435   1.606   6.256  13.480  0.0413 -0.9822  0.5813
11674TIP3   OH256436   4.626   1.666  12.888  0.4875  0.3431 -0.4465
11674TIP3    H156437   4.566   1.725  12.933 -3.3546 -1.0299 -3.4365
11674TIP3    H256438   4.650   1.712  12.808  0.3814 -0.6701 -1.0668
11675TIP3   OH256439   4.091   1.413   0.883  0.0318  0.4585  0.0833
11675TIP3    H156440   4.021   1.389   0.823 -1.3222  0.6187  1.5842
11675TIP3    H256441   4.084   1.508   0.892 -0.2179  0.3583  1.0226
11676TIP3   OH256442   1.080   5.931  15.665 -0.2502 -0.4700  0.1365
11676TIP3    H156443   1.040   5.998  15.609 -1.2326  0.9595  2.4474
11676TIP3    H256444   1.048   5.952  15.753  2.8290 -1.4270  1.5497
11677TIP3   OH256445   0.923   5.276   5.380 -0.0772 -1.0333 -0.3200
11677TIP3    H156446   0.839   5.235   5.400 -1.3108 -0.2200 -3.4808
11677TIP3    H256447   0.970   5.211   5.328 -0.3117 -0.1192 -1.7208
11678TIP3   OH256448   1.419   6.743  16.472  0.1588  0.2534  0.2096
11678TIP3    H156449   1.470   6.788  16.539 -0.9172 -0.1020  1.2894
11678TIP3    H256450   1.387   6.663  16.515  0.2915 -0.4836 -1.0336
11679TIP3   OH256451   2.957   6.507  16.628  0.3150 -0.3571 -0.4682
11679TIP3    H156452   2.922   6.446  16.563  0.0788 -0.8742  0.1485
11679TIP3    H256453   2.929   6.472  16.712  0.2842  0.5328 -0.1046
11680TIP3   OH256454   2.008   2.354   3.513  0.2542  0.2065 -0.1961
11680TIP3    H156455   2.026   2.374   3.604  1.1795  0.8292 -0.5039
11680TIP3    H256456   1.945   2.421   3.485 -0.1237 -0.0600  0.0193
11681TIP3   OH256457   1.795   4.980   4.552  0.0420  0.0367  0.1375
11681TIP3    H156458   1.791   4.951   4.461 -1.9037  0.0642  0.1986
11681TIP3    H256459   1.824   5.072   4.546 -0.1788  0.0708 -0.4585
11682TIP3   OH256460   3.426   1.852   1.923 -0.3795 -0.0516  0.0650
11682TIP3    H156461   3.393   1.816   1.841 -0.6010 -0.6866  0.4252
11682TIP3    H256462   3.351   1.899   1.960 -0.1408  0.6408 -0.3225
11683TIP3   OH256463   2.599   3.368  16.615 -0.0511  0.6388  0.1357
11683TIP3    H156464   2.521   3.420  16.628  0.0505  1.0151 -0.6982
11683TIP3    H256465   2.670   3.419  16.654  0.1218  1.3612 -1.0898
11684TIP3   OH256466   0.036   2.063  12.786 -0.0013  0.8091  0.8619
11684TIP3    H156467   0.065   1.978  12.819 -1.6454  0.7439  2.2369
11684TIP3    H256468  -0.010   2.042  12.704  2.0808  0.7079 -0.2992
11685TIP3   OH256469   2.157   5.968  14.767  0.2948  0.4315  0.1822
11685TIP3    H156470   2.120   6.004  14.686 -1.1858 -1.0132  0.1994
11685TIP3    H256471   2.175   6.045  14.821 -0.0451  1.3205 -0.9365
11686TIP3   OH256472   3.057   4.089   0.156  0.1861 -0.0196  0.8865
11686TIP3    H156473   3.052   4.182   0.132  1.0258 -0.5245 -1.3673
11686TIP3    H256474   3.149   4.066   0.140 -0.1808 -1.4056  0.7575
11687TIP3   OH256475   5.433   1.509   3.920 -0.0585  0.5469  0.3322
11687TIP3    H156476   5.350   1.515   3.966  0.1073  0.4410  0.6504
11687TIP3    H256477   5.421   1.562   3.841 -0.5854  0.1309  0.1284
11688TIP3   OH256478   3.889   6.667  15.498  0.3230  0.5090  0.0620
11688TIP3    H156479   3.909   6.577  15.522 -0.4376  0.3615  0.1692
11688TIP3    H256480   3.958   6.692  15.437  0.1280 -0.3878 -0.5270
11689TIP3   OH256481   6.364   4.509  14.465  0.3010 -0.4279 -0.0188
11689TIP3    H156482   6.351   4.601  14.442 -0.1437 -0.4103  0.2933
11689TIP3    H256483   6.371   4.509  14.561 -0.9287 -0.8661  0.0711
11690TIP3   OH256484   3.160   4.175  14.366  0.6022  0.0586 -0.2213
11690TIP3    H156485   3.206   4.254  14.395 -1.1097  1.2682 -0.6937
11690TIP3    H256486   3.093   4.208  14.305  0.7396 -1.9020 -1.4630
11691TIP3   OH256487   2.977   5.563   5.058  0.1427 -0.5529 -0.3715
11691TIP3    H156488   2.902   5.622   5.059  1.6411  1.4224  0.1799
11691TIP3    H256489   2.940   5.475   5.062 -2.0518  0.4405  2.0719
11692TIP3   OH256490   4.170   4.383  12.413 -0.1457 -0.3057  0.0302
11692TIP3    H156491   4.261   4.354  12.407 -0.3848 -1.5593  2.0465
11692TIP3    H256492   4.166   4.430  12.496 -1.7714 -1.8736  0.8521
11693TIP3   OH256493   6.338   1.204   5.459 -0.0091 -0.3804  0.7469
11693TIP3    H156494   6.281   1.270   5.499 -0.3260 -0.3047  0.1697
11693TIP3    H256495   6.343   1.134   5.525  1.6022  0.9097  2.0218
11694TIP3   OH256496   4.282   2.687  13.540 -0.1064 -0.0709 -0.1059
11694TIP3    H156497   4.329   2.683  13.457  0.2246  1.1835  0.0099
11694TIP3    H256498   4.192   2.662  13.518 -0.1632  0.8446 -0.9605
11695TIP3   OH256499   0.111   1.707  16.329  0.8679 -0.2330 -0.0043
11695TIP3    H156500   0.058   1.638  16.367  0.8661 -0.2501 -0.0382
11695TIP3    H256501   0.051   1.780  16.317  0.7242 -0.4400 -0.5594
11696TIP3   OH256502   5.466   3.819   0.962  0.2460 -0.2157 -0.4163
11696TIP3    H156503   5.415   3.751   0.918  1.2547 -1.1753 -0.1093
11696TIP3    H256504   5.548   3.823   0.913  0.2814  0.6390 -0.2982
11697TIP3   OH256505   3.387   5.657  12.469 -0.3243  0.6516 -0.1342
11697TIP3    H156506   3.401   5.729  12.407  0.7164  0.6241  0.0603
11697TIP3    H256507   3.295   5.632  12.456 -0.7569  2.1429 -0.0696
11698TIP3   OH256508   2.170   3.987   2.272  0.6492  0.3045  0.1618
11698TIP3    H156509   2.213   4.049   2.331  0.2258  2.0783 -1.3409
11698TIP3    H256510   2.224   3.986   2.193  0.6421 -1.2459  0.1641
11699TIP3   OH256511   1.053   6.467   0.201  0.6314 -0.2820 -0.0284
11699TIP3    H156512   1.049   6.552   0.159 -0.7405  0.9374  2.4505
11699TIP3    H256513   1.078   6.485   0.292  3.4814 -2.8217 -0.2082
11700TIP3   OH256514   0.171   5.804  16.376  0.7067  0.0025 -0.1729
11700TIP3    H156515   0.198   5.820  16.466 -1.2269 -1.6821  0.7458
11700TIP3    H256516   0.192   5.712  16.360 -0.6082 -0.2008 -0.8195
11701TIP3   OH256517   4.785   6.069  12.636  0.4727  0.5636  0.2545
11701TIP3    H156518   4.794   6.028  12.550 -1.6033 -0.6479  0.5617
11701TIP3    H256519   4.835   6.012  12.694 -1.7335 -1.1484  0.5415
11702TIP3   OH256520   5.390   3.669  14.946 -0.3023  0.9232  0.0377
11702TIP3    H156521   5.308   3.624  14.925 -0.6439  1.5640 -0.0070
11702TIP3    H256522   5.409   3.721  14.868 -0.2089  1.2943  0.3074
11703TIP3   OH256523   0.666   5.105  15.257  0.0953 -1.0317 -0.0989
11703TIP3    H156524   0.631   5.060  15.334 -1.5461  0.9787  0.3720
11703TIP3    H256525   0.757   5.126  15.282 -1.2328  2.1571  2.5585
11704TIP3   OH256526   3.364   3.378   3.318  0.0170 -0.1795  0.6409
11704TIP3    H156527   3.378   3.284   3.333  1.0340  0.1159  1.6475
11704TIP3    H256528   3.378   3.417   3.404 -2.1241  0.7110  0.5988
11705TIP3   OH256529   2.384   3.142  16.884 -0.1420  0.2350  0.2719
11705TIP3    H156530   2.370   3.053  16.918  0.2074  0.0461 -0.0777
11705TIP3    H256531   2.479   3.149  16.872 -0.3047  0.0358 -1.3440
11706TIP3   OH256532   2.135   5.135  15.438 -0.1558  0.0531 -0.3093
11706TIP3    H156533   2.067   5.099  15.495 -0.5859 -1.9254 -2.0481
11706TIP3    H256534   2.088   5.173  15.364  0.4613  1.6545  0.0954
11707TIP3   OH256535   5.685   6.672   0.604 -0.0030 -0.5065  0.0303
11707TIP3    H156536   5.645   6.720   0.532 -0.1542 -1.7271 -0.7093
11707TIP3    H256537   5.759   6.625   0.564  1.4038  0.7226  1.1347
11708TIP3   OH256538   0.653   6.274  14.843  0.0535  0.3721  0.0636
11708TIP3    H156539   0.701   6.203  14.802 -0.2782  0.0130  0.2988
11708TIP3    H256540   0.710   6.350  14.833  1.0054 -0.2057  0.9987
11709TIP3   OH256541   4.147   1.362  13.091 -0.4634  0.0229 -0.2639
11709TIP3    H156542   4.214   1.331  13.152 -1.4365  0.9752  1.3155
11709TIP3    H256543   4.195   1.380  13.010  1.0420 -0.1475  0.5687
11710TIP3   OH256544   6.414   0.012  12.798  0.1701 -0.4584 -0.4357
11710TIP3    H156545   6.479   0.013  12.868  0.4557  1.6714 -0.6929
11710TIP3    H256546   6.465   0.010  12.717 -0.0290  1.5958 -0.6456
11711TIP3   OH256547   1.849   5.043   3.493  0.1287 -0.1361  0.3871
11711TIP3    H156548   1.764   5.009   3.468  1.0633 -1.6244 -0.8582
11711TIP3    H256549   1.830   5.124   3.541 -1.9176  0.2041 -0.9406
11712TIP3   OH256550   6.625   5.157  14.554 -0.4273  0.3864  0.5047
11712TIP3    H156551   6.541   5.170  14.509 -1.0551  0.0145  1.5362
11712TIP3    H256552   6.610   5.193  14.642 -0.0995 -1.3056  1.2774
11713TIP3   OH256553   6.294   4.049   3.335 -0.2120  0.4480  0.0500
11713TIP3    H156554   6.361   4.116   3.340 -0.9475  1.1808  0.1851
11713TIP3    H256555   6.339   3.967   3.357  0.2796  1.1588  1.7442
11714TIP3   OH256556   5.471   1.504  16.363 -0.0716  0.1123 -0.2913
11714TIP3    H156557   5.457   1.598  16.348 -0.5042  0.0893 -0.0386
11714TIP3    H256558   5.505   1.499  16.452  1.9037  0.1941 -1.0133
11715TIP3   OH256559   2.394   2.857   1.000 -0.1003 -0.4241  0.0307
11715TIP3    H156560   2.374   2.936   0.951 -0.4761 -0.3244  0.3440
11715TIP3    H256561   2.372   2.785   0.940 -0.5010 -0.3036  0.0340
11716TIP3   OH256562   0.946   2.258  15.914  0.0479  0.3471  0.0602
11716TIP3    H156563   0.968   2.250  16.006  3.0974 -2.3698 -0.8057
11716TIP3    H256564   0.919   2.169  15.888  2.1755  0.3364 -2.3018
11717TIP3   OH256565   1.106   0.879   6.368  0.1915 -0.5455  1.3343
11717TIP3    H156566   1.146   0.793   6.355  0.5465 -0.3656  1.2139
11717TIP3    H256567   1.160   0.921   6.434 -0.7990 -0.9302  2.4078
11718TIP3   OH256568   5.681   5.171   4.130  0.1951  0.5186 -0.2462
11718TIP3    H156569   5.656   5.171   4.038 -0.6555  2.0275 -0.0342
11718TIP3    H256570   5.600   5.192   4.176  1.3165  2.9821  0.6348
11719TIP3   OH256571   5.903   2.247   5.096  0.6625 -0.3140  0.3639
11719TIP3    H156572   5.887   2.153   5.094  1.3846 -0.4162 -0.4976
11719TIP3    H256573   5.815   2.286   5.095  0.3634 -0.9680  0.8111
11720TIP3   OH256574   3.053   4.343  15.975 -0.0371 -0.3111  0.1119
11720TIP3    H156575   3.087   4.313  15.890 -0.7601  0.7835 -0.5769
11720TIP3    H256576   3.021   4.431  15.958 -1.6371 -0.6734  1.1554
11721TIP3   OH256577   0.112   1.882  16.018  0.1304 -0.0640  0.3011
11721TIP3    H156578   0.077   1.793  16.020  1.0457 -0.4192  1.0451
11721TIP3    H256579   0.089   1.915  15.931 -2.0951 -0.2402  0.8009
11722TIP3   OH256580   3.910   3.390  14.066  0.1952 -0.1671  0.5116
11722TIP3    H156581   3.864   3.315  14.027  0.6338  0.3472 -1.0159
11722TIP3    H256582   3.847   3.426  14.129 -0.5076 -1.0381  0.3215
11723TIP3   OH256583   6.208   4.799  11.570 -0.1508  0.3252  0.6832
11723TIP3    H156584   6.125   4.803  11.619 -2.5443 -0.7900 -3.0713
11723TIP3    H256585   6.237   4.890  11.565 -0.9571  0.7033  2.2973
11724TIP3   OH256586   3.949   2.603  14.900 -0.4526 -0.4377  0.1870
11724TIP3    H156587   3.868   2.629  14.944 -0.1438 -2.7249  2.2206
11724TIP3    H256588   3.973   2.520  14.941  1.5470 -1.1022 -2.1977
11725TIP3   OH256589   6.497   6.325   6.818 -0.4527  0.1946  0.2845
11725TIP3    H156590   6.499   6.274   6.737  0.5220  0.4142  0.1643
11725TIP3    H256591   6.476   6.414   6.790 -2.5149 -0.1838  0.5309
11726TIP3   OH256592   3.733   4.283   2.275 -0.1878  0.0702 -0.0188
11726TIP3    H156593   3.794   4.213   2.296  1.9026  1.1198 -2.3181
11726TIP3    H256594   3.733   4.340   2.351  1.0795 -0.3853  0.3280
11727TIP3   OH256595   3.938   4.236  13.077 -0.4792  0.0143  0.1166
11727TIP3    H156596   4.025   4.197  13.067 -1.4576 -2.6133  1.4168
11727TIP3    H256597   3.944   4.288  13.157  0.1572  0.5959 -0.3043
11728TIP3   OH256598   3.797   3.973  16.852  0.0103  0.7172  0.7611
11728TIP3    H156599   3.888   3.954  16.875  0.2471  1.4459  0.4508
11728TIP3    H256600   3.777   3.910  16.782  0.1728  0.3468  1.0435
11729TIP3   OH256601   6.435   1.199   3.193 -0.3357  0.1187  0.3404
11729TIP3    H156602   6.513   1.219   3.246 -0.2887  1.3140 -0.1798
11729TIP3    H256603   6.363   1.238   3.242 -0.3505  0.8154 -0.2386
11730TIP3   OH256604   3.006   3.617   5.423 -0.4004 -0.1173  0.7853
11730TIP3    H156605   3.091   3.620   5.469 -1.4310 -0.2549  2.7673
11730TIP3    H256606   3.007   3.532   5.379  0.6525  0.0477  0.4629
11731TIP3   OH256607   0.753   5.464  15.259 -0.0466  0.2184 -0.1053
11731TIP3    H156608   0.669   5.428  15.231 -0.0216 -1.0969  1.4647
11731TIP3    H256609   0.748   5.557  15.237 -1.1748 -0.2058 -1.7170
11732TIP3   OH256610   3.882   4.475  15.955  0.5026 -0.1954 -0.2014
11732TIP3    H156611   3.817   4.463  16.025 -0.8835  1.3233 -1.1842
11732TIP3    H256612   3.945   4.537  15.991  0.7186 -0.7052  0.3047
11733TIP3   OH256613   5.363   5.367   3.192 -0.2088 -0.4856 -0.0059
11733TIP3    H156614   5.428   5.435   3.172 -1.1077  0.1354 -0.8717
11733TIP3    H256615   5.391   5.331   3.276  0.5129  0.6889  0.2701
11734TIP3   OH256616   4.035   3.342  11.918 -0.2294 -0.0333 -0.0536
11734TIP3    H156617   4.128   3.348  11.897 -0.4838  0.9107 -0.9924
11734TIP3    H256618   4.007   3.434  11.927 -0.8911 -0.3322  1.0474
11735TIP3   OH256619   0.422   2.460  14.458  0.1905  0.2691 -0.5769
11735TIP3    H156620   0.481   2.429  14.389  2.0779  0.3139  0.9806
11735TIP3    H256621   0.470   2.530  14.502 -0.5639 -0.3923  1.3784
11736TIP3   OH256622   0.624   4.720   3.291 -0.0917 -0.0835  0.7592
11736TIP3    H156623   0.670   4.760   3.365  1.1443  1.1914 -0.6821
11736TIP3    H256624   0.555   4.783   3.269  1.3883  0.9434 -1.0355
11737TIP3   OH256625   4.007   2.513   2.449 -0.2042  0.2405 -0.0852
11737TIP3    H156626   3.975   2.602   2.439  0.4408  0.4692 -0.1429
11737TIP3    H256627   3.928   2.460   2.461 -0.6992  0.6300 -1.4491
11738TIP3   OH256628   2.159   0.037  14.621 -0.0614  0.5010  0.3345
11738TIP3    H156629   2.211  -0.043  14.609 -1.5654 -0.1127 -2.6538
11738TIP3    H256630   2.071   0.005  14.644 -0.8502  1.2350 -1.5676
11739TIP3   OH256631   0.595   0.305  15.815  0.0904  0.2500  0.0392
11739TIP3    H156632   0.526   0.355  15.856  0.0006  0.0840  0.0918
11739TIP3    H256633   0.554   0.221  15.793 -0.3898  1.0081 -2.0951
11740TIP3   OH256634   6.184   1.564   2.876  1.1461 -0.6103 -0.1543
11740TIP3    H156635   6.114   1.500   2.862  0.3163  0.2074  0.1905
11740TIP3    H256636   6.207   1.594   2.788 -0.3664  0.6107 -0.1568
11741TIP3   OH256637   2.218   3.529  12.239 -0.4018 -0.6854  0.5802
11741TIP3    H156638   2.181   3.492  12.158 -2.2015 -0.8654  1.4709
11741TIP3    H256639   2.202   3.623  12.231  0.0505 -0.6217  0.4135
11742TIP3   OH256640   3.525   2.269   4.283  0.4531 -0.2811 -0.4469
11742TIP3    H156641   3.527   2.359   4.316 -0.4654 -0.3102 -0.2818
11742TIP3    H256642   3.588   2.267   4.211 -0.6945  0.9081 -1.4970
11743TIP3   OH256643   4.747   6.093   2.279  0.4390 -0.0847 -0.0670
11743TIP3    H156644   4.671   6.151   2.285 -0.5890 -1.3048 -1.0493
11743TIP3    H256645   4.729   6.024   2.343  0.6844 -0.4092 -0.3476
11744TIP3   OH256646   1.877   0.012   3.821 -0.0471  0.2365 -0.1588
11744TIP3    H156647   1.824   0.068   3.877 -0.2909  0.2013 -0.3480
11744TIP3    H256648   1.946  -0.021   3.877 -1.3601 -1.2778  0.6194
11745TIP3   OH256649   2.802   6.782   1.918  0.4093  0.6062 -0.0954
11745TIP3    H156650   2.753   6.717   1.969 -1.3044  1.6864 -0.3437
11745TIP3    H256651   2.735   6.829   1.868  1.9465  0.4241 -2.3843
11746TIP3   OH256652   4.098   5.253  12.350 -0.0782  0.5029 -0.1871
11746TIP3    H156653   4.153   5.311  12.402 -1.6697  0.9273  1.0494
11746TIP3    H256654   4.153   5.175  12.337  1.2377  1.3651  0.0384
11747TIP3   OH256655   5.033   3.576  11.991  0.1992 -0.1980 -0.5059
11747TIP3    H156656   5.095   3.648  11.978 -0.4986  0.3819 -0.6865
11747TIP3    H256657   5.041   3.522  11.912  0.1682  0.1062 -0.7167
11748TIP3   OH256658   5.539   3.939   5.550  0.3932 -0.1665  0.0886
11748TIP3    H156659   5.589   3.996   5.493  1.0190 -1.1166 -0.3279
11748TIP3    H256660   5.459   3.988   5.570  1.2682  1.1469  0.3621
11749TIP3   OH256661   6.693   1.487   0.144 -0.2021  0.0372 -0.0848
11749TIP3    H156662   6.726   1.556   0.086 -0.8114  1.0638  0.7709
11749TIP3    H256663   6.770   1.457   0.192 -0.2808  1.6480  1.0976
11750TIP3   OH256664   5.559   1.216   6.142  0.6876 -0.0908  0.8177
11750TIP3    H156665   5.627   1.274   6.108  0.9359 -0.2616  1.0173
11750TIP3    H256666   5.568   1.223   6.237 -0.8439  1.3824  0.8759
11751TIP3   OH256667   4.621   1.290   0.287 -0.2964  0.4616  0.0255
11751TIP3    H156668   4.597   1.204   0.322  2.2328 -1.1367 -2.0108
11751TIP3    H256669   4.567   1.299   0.209  0.5975 -0.0316 -0.6626
11752TIP3   OH256670   0.053   1.632   4.879  0.0298  0.0078 -0.4720
11752TIP3    H156671  -0.039   1.618   4.857 -0.8823  0.8914  2.6182
11752TIP3    H256672   0.077   1.713   4.835  0.1743 -1.5952 -3.5189
11753TIP3   OH256673   6.556   3.901  15.946 -0.2919  0.7289 -0.1769
11753TIP3    H156674   6.574   3.930  15.856  0.1179  0.4229 -0.1903
11753TIP3    H256675   6.468   3.936  15.964 -0.7321  0.0759 -0.9930
11754TIP3   OH256676   5.189   0.122  16.732  0.5022 -0.3671  0.3182
11754TIP3    H156677   5.185   0.186  16.803  0.4626  0.1046 -0.1120
11754TIP3    H256678   5.116   0.144  16.674  1.9616  0.7611 -1.1329
11755TIP3   OH256679   4.124   1.321   2.418 -0.6149 -0.0763 -0.2753
11755TIP3    H156680   4.171   1.395   2.380  0.4079 -0.5702  0.0008
11755TIP3    H256681   4.038   1.322   2.376 -0.6013  1.2449 -0.2940
11756TIP3   OH256682   3.213   2.868   1.579  0.6687  0.4394 -0.6136
11756TIP3    H156683   3.246   2.900   1.495 -0.5848  0.4703 -1.0950
11756TIP3    H256684   3.159   2.939   1.613  0.1573 -0.0594 -0.3701
11757TIP3   OH256685   2.023   5.862   2.015  0.4067 -0.8372  0.1970
11757TIP3    H156686   1.983   5.876   2.101  0.1861  0.3440 -0.0816
11757TIP3    H256687   2.107   5.909   2.020  0.7926 -1.5025  0.0572
11758TIP3   OH256688   3.012   1.266   0.507  1.0381 -0.0172 -0.1706
11758TIP3    H156689   3.083   1.208   0.481  0.5928 -1.1412  1.0582
11758TIP3    H256690   3.033   1.350   0.467  1.9410 -0.8965 -1.5912
11759TIP3   OH256691   0.517   3.477  15.879 -0.1050 -0.0721  0.0061
11759TIP3    H156692   0.585   3.417  15.846 -1.5354 -1.9707  0.4105
11759TIP3    H256693   0.440   3.421  15.891 -1.5832  1.9321  0.1024
11760TIP3   OH256694   2.034   5.991   3.559  0.5586 -0.2986  0.4750
11760TIP3    H156695   1.974   5.940   3.614  1.4540 -0.9005  0.9103
11760TIP3    H256696   2.011   6.082   3.575 -0.4437 -0.5375  0.4015
11761TIP3   OH256697   5.461   6.698  15.012 -0.0795  0.0285 -0.3815
11761TIP3    H156698   5.376   6.690  15.055  0.3482 -1.2842  0.2743
11761TIP3    H256699   5.525   6.676  15.081  0.5907 -2.4483 -1.7329
11762TIP3   OH256700   3.214   1.938  12.303 -0.3307  0.0483  0.8929
11762TIP3    H156701   3.164   1.976  12.231  1.2392  1.1674  0.3456
11762TIP3    H256702   3.222   2.010  12.366  2.1398  0.4849  0.1336
11763TIP3   OH256703   4.796   1.374  16.473 -0.0125 -0.2618  0.5145
11763TIP3    H156704   4.717   1.388  16.420  0.9916 -1.7790 -1.4639
11763TIP3    H256705   4.767   1.317  16.544 -0.3805 -2.2828 -1.1900
11764TIP3   OH256706   2.726   2.224  14.684  0.5146  0.5162 -0.2581
11764TIP3    H156707   2.757   2.139  14.714  0.2374  0.5034  0.0039
11764TIP3    H256708   2.788   2.287  14.720  0.3633  0.4734  0.0792
11765TIP3   OH256709   6.516   4.526  13.396  0.4159 -0.0706 -0.2813
11765TIP3    H156710   6.599   4.482  13.378  0.0117 -0.1064 -2.1946
11765TIP3    H256711   6.456   4.455  13.418  0.3781 -0.2568 -0.9649
11766TIP3   OH256712   1.822   4.558   4.580  0.0590  0.8656 -0.1407
11766TIP3    H156713   1.858   4.644   4.556  2.1295 -0.2470 -1.2093
11766TIP3    H256714   1.759   4.538   4.510 -0.5491  1.5698  0.1976
11767TIP3   OH256715   3.702   1.922   3.738 -0.4425 -0.2847 -0.3811
11767TIP3    H156716   3.661   1.854   3.685  2.3960  0.1747 -3.3321
11767TIP3    H256717   3.719   1.880   3.822 -3.4035 -1.5717 -0.3566
11768TIP3   OH256718   3.886   5.178   0.259  0.2079 -0.5740  0.5446
11768TIP3    H156719   3.898   5.087   0.233  1.2173  0.3882 -2.5718
11768TIP3    H256720   3.966   5.222   0.230 -1.2567  1.7398 -0.1283
11769TIP3   OH256721   2.140   3.196   0.581 -0.1957 -0.1632  0.4745
11769TIP3    H156722   2.074   3.209   0.514 -0.0237 -1.4533  0.0517
11769TIP3    H256723   2.159   3.285   0.613 -0.0121  0.5041 -1.4098
11770TIP3   OH256724   6.780   5.429   4.656  0.0858 -0.3441  0.1225
11770TIP3    H156725   6.699   5.477   4.638 -0.7653 -1.5650  0.5945
11770TIP3    H256726   6.815   5.470   4.735 -1.6515 -1.6961  1.6562
11771TIP3   OH256727   0.500   6.584  11.668  0.6783 -0.4940 -0.6178
11771TIP3    H156728   0.480   6.530  11.591  0.2638  0.7149 -1.3769
11771TIP3    H256729   0.580   6.630  11.645  0.8857 -0.5773 -0.0751
11772TIP3   OH256730   0.542   2.709  16.540 -0.2523 -0.5151  0.1662
11772TIP3    H156731   0.631   2.695  16.509  0.0620  0.7523  0.5013
11772TIP3    H256732   0.530   2.643  16.609 -0.3573 -2.1813 -1.3934
11773TIP3   OH256733   4.227   6.755   0.517  0.1303  0.2750  1.1117
11773TIP3    H156734   4.233   6.680   0.576  0.6623 -1.1965 -0.7493
11773TIP3    H256735   4.143   6.795   0.537 -1.1253 -2.0684  0.7113
11774TIP3   OH256736   2.532   2.517   2.717  0.1337 -0.1956 -0.6311
11774TIP3    H156737   2.579   2.434   2.706  1.0897  0.2179  0.2895
11774TIP3    H256738   2.585   2.581   2.669 -0.0410  0.0806 -0.4559
11775TIP3   OH256739   2.137   3.152   3.042 -0.9241  0.1457 -0.2074
11775TIP3    H156740   2.061   3.101   3.070 -1.0038 -0.0032 -0.7016
11775TIP3    H256741   2.148   3.218   3.111 -1.7650  0.4429 -0.3502
11776TIP3   OH256742   0.945   1.107  14.724  0.5433  0.5252  0.4370
11776TIP3    H156743   0.996   1.072  14.651  2.2265  0.5337  1.5738
11776TIP3    H256744   0.949   1.039  14.791 -0.5467  0.7348  0.7219
11777TIP3   OH256745   0.970   6.449   5.454  0.4005 -0.1285 -0.3063
11777TIP3    H156746   0.915   6.438   5.376 -0.1943  1.1900 -0.0957
11777TIP3    H256747   0.910   6.482   5.521  0.8581 -1.4913  0.7927
11778TIP3   OH256748   0.017   0.093   2.842 -0.0462 -0.2645 -0.5729
11778TIP3    H156749  -0.010   0.011   2.884 -0.3730  0.4597  0.6637
11778TIP3    H256750   0.079   0.132   2.903 -0.4541  0.7642 -0.7979
11779TIP3   OH256751   0.824   6.044  12.040  0.1497 -0.4637 -0.3454
11779TIP3    H156752   0.735   6.058  12.009  0.3170  1.7955  0.1429
11779TIP3    H256753   0.862   6.132  12.048  2.2554 -1.3506 -0.0613
11780TIP3   OH256754   1.785   1.075   1.797 -0.5183  0.0114  0.7208
11780TIP3    H156755   1.726   1.104   1.867 -0.5151 -1.4288  1.3477
11780TIP3    H256756   1.850   1.020   1.842 -1.5030 -2.3325 -0.6071
11781TIP3   OH256757   3.274   2.804  15.014 -0.1578 -0.4863  0.0814
11781TIP3    H156758   3.314   2.729  15.059 -1.0162 -0.2160  1.3328
11781TIP3    H256759   3.343   2.869  15.009  0.1497 -0.7899  0.3718
11782TIP3   OH256760   1.522   1.119  14.594 -0.5388 -0.1514 -0.3645
11782TIP3    H156761   1.504   1.117  14.688  0.8056  5.1794  0.1572
11782TIP3    H256762   1.618   1.114  14.589 -0.5460  0.7276 -1.3846
11783TIP3   OH256763   1.406   5.399   2.617  0.5634 -0.0512 -0.2846
11783TIP3    H156764   1.342   5.425   2.551 -0.2896 -0.2041  0.4705
11783TIP3    H256765   1.456   5.479   2.635 -0.5722  0.5195  0.3927
11784TIP3   OH256766   4.792   5.691  12.947  0.1182 -0.2643  0.3822
11784TIP3    H156767   4.773   5.686  13.040  1.1793 -0.1210  0.6205
11784TIP3    H256768   4.742   5.620  12.907 -0.7156 -0.0222  0.9906
11785TIP3   OH256769   0.016   1.803   3.705 -0.8074 -0.0589  1.1786
11785TIP3    H156770   0.046   1.848   3.626 -2.1414  0.5869  1.0091
11785TIP3    H256771  -0.080   1.808   3.700 -0.9319 -1.2735  2.1212
11786TIP3   OH256772   2.936   2.398   2.357 -0.2309 -0.0754  0.3181
11786TIP3    H156773   2.956   2.446   2.438 -1.5484  1.8234 -0.4400
11786TIP3    H256774   3.002   2.429   2.295  0.9613 -1.7535  0.7165
11787TIP3   OH256775   6.650   4.876   4.590 -0.7129  0.2960  0.2804
11787TIP3    H156776   6.691   4.851   4.672 -1.3154 -0.1917  0.4362
11787TIP3    H256777   6.654   4.972   4.589  0.4366  0.2596  0.2786
11788TIP3   OH256778   1.934   1.463  10.353 -0.3748 -0.1671 -0.5047
11788TIP3    H156779   1.872   1.535  10.341 -1.1218 -0.5172  1.0519
11788TIP3    H256780   1.891   1.406  10.418  0.5474 -1.6063 -1.1383
11789TIP3   OH256781   1.901   6.254  11.776  0.4104  0.1337 -0.4579
11789TIP3    H156782   1.989   6.288  11.767  0.5541  0.5649  2.1804
11789TIP3    H256783   1.844   6.324  11.744  0.9398  0.5537 -0.4771
11790TIP3   OH256784   1.903   2.633   2.508  0.0834 -0.3287  0.0624
11790TIP3    H156785   1.973   2.663   2.450  0.2578 -0.2133  0.3272
11790TIP3    H256786   1.836   2.700   2.503 -0.8363 -1.3564 -1.6376
11791TIP3   OH256787   5.043   4.908   2.248 -0.0971 -0.0221 -0.4262
11791TIP3    H156788   5.075   4.988   2.290 -0.8899  0.5357 -0.8812
11791TIP3    H256789   5.010   4.936   2.163  0.1363 -0.9228 -0.8223
11792TIP3   OH256790   0.998   1.066   5.075 -0.3716  0.3509  0.2886
11792TIP3    H156791   1.089   1.069   5.047 -0.0448  1.0631  1.3880
11792TIP3    H256792   0.994   0.993   5.137  0.1659  2.1949  2.5874
11793TIP3   OH256793   0.621   4.380  15.971 -0.1139 -0.1757 -0.2787
11793TIP3    H156794   0.643   4.340  15.886 -0.8971 -0.1914 -0.4760
11793TIP3    H256795   0.677   4.335  16.034 -0.0130 -0.6388 -0.6989
11794TIP3   OH256796   0.390   1.127   6.445  0.3668  0.3468 -0.0061
11794TIP3    H156797   0.473   1.086   6.421 -0.0625  0.1307 -1.1765
11794TIP3    H256798   0.357   1.074   6.518  1.4430  0.6803  0.7278
11795TIP3   OH256799   1.493   0.933   2.927 -0.1187 -0.1451  0.1091
11795TIP3    H156800   1.410   0.962   2.963  0.2093 -0.4011  1.0980
11795TIP3    H256801   1.507   0.846   2.967  0.4339 -0.2630 -0.3351
11796TIP3   OH256802   6.766   1.143   6.468  0.1873 -0.0373 -0.3282
11796TIP3    H156803   6.802   1.216   6.519  1.1374 -0.6229 -0.1446
11796TIP3    H256804   6.703   1.184   6.409  0.8671  0.9729 -0.3788
11797TIP3   OH256805   5.308   1.556  13.053  0.0491  0.1023 -0.0858
11797TIP3    H156806   5.368   1.518  12.988  0.6535 -1.4452  1.3301
11797TIP3    H256807   5.263   1.626  13.006  2.1008  0.5036 -1.5410
11798TIP3   OH256808   1.659   3.576  15.613  0.0184  0.1926  0.0772
11798TIP3    H156809   1.688   3.505  15.555 -0.6445  0.1926 -0.2482
11798TIP3    H256810   1.713   3.651  15.587 -0.2952  0.1992 -0.5490
11799TIP3   OH256811   1.535   5.889  11.606 -0.1342 -0.7321 -0.1792
11799TIP3    H156812   1.595   5.943  11.657 -1.0512  0.2221 -0.1110
11799TIP3    H256813   1.578   5.803  11.602  1.4228  0.0462 -0.4607
11800TIP3   OH256814   6.780   2.230  15.896  0.0146 -0.2897  0.1512
11800TIP3    H156815   6.791   2.231  15.801 -0.5802  1.9144  0.0986
11800TIP3    H256816   6.686   2.239  15.911  0.1730  0.1608  0.9536
11801TIP3   OH256817   5.150   6.045  16.829 -0.0652 -0.0919 -0.1550
11801TIP3    H156818   5.162   6.059  16.735 -1.0811 -1.4826 -0.5081
11801TIP3    H256819   5.055   6.043  16.841  0.0513 -1.7423  0.6055
11802TIP3   OH256820   1.885   0.232  13.191  0.7592  0.4486  0.1116
11802TIP3    H156821   1.964   0.277  13.221  0.4691  1.1156 -0.1163
11802TIP3    H256822   1.904   0.139  13.204  1.1494  0.6573  1.1119
11803TIP3   OH256823   3.296   0.499  16.460  0.6886  0.0689 -0.7982
11803TIP3    H156824   3.206   0.528  16.451  0.5466 -0.4098 -0.9418
11803TIP3    H256825   3.335   0.559  16.524  0.2306  0.1810 -0.6296
11804TIP3   OH256826   4.052   5.947   2.535  0.3675 -0.0127  0.2679
11804TIP3    H156827   4.012   5.886   2.596 -1.2306 -1.2542 -1.9301
11804TIP3    H256828   4.017   6.033   2.559 -2.1955 -0.8274 -0.4083
11805TIP3   OH256829   2.395   1.452  11.314 -0.2392 -0.0573  0.2800
11805TIP3    H156830   2.385   1.521  11.380 -0.0582 -1.0527  1.3606
11805TIP3    H256831   2.328   1.472  11.248  0.0116  1.3170  0.4253
11806TIP3   OH256832   3.523   2.623   4.295 -0.1266 -0.7462  0.1679
11806TIP3    H156833   3.526   2.689   4.365 -0.7924  0.1079 -0.5978
11806TIP3    H256834   3.614   2.616   4.265 -0.2947  0.9652 -0.7855
11807TIP3   OH256835   4.847   4.840   2.590  0.1107 -0.2372 -0.3942
11807TIP3    H156836   4.896   4.772   2.544 -0.2489 -2.0587  1.8438
11807TIP3    H256837   4.759   4.834   2.554  0.5929  0.4980 -1.7239
11808TIP3   OH256838   6.615   5.759   2.758  0.2504  0.4368 -0.1419
11808TIP3    H156839   6.684   5.776   2.694  1.0609 -0.8061  0.3777
11808TIP3    H256840   6.544   5.720   2.706  1.0472 -0.9181 -0.2459
11809TIP3   OH256841   4.333   2.377  11.915 -0.0649  0.4617  0.1815
11809TIP3    H156842   4.396   2.364  11.844  0.6340  1.4618  0.6064
11809TIP3    H256843   4.256   2.414  11.873  0.3404  1.0413 -0.0489
11810TIP3   OH256844   6.181   6.194  12.187 -0.1032  0.3260  0.0877
11810TIP3    H156845   6.227   6.128  12.135  0.1433 -0.6568  1.5428
11810TIP3    H256846   6.131   6.243  12.122  1.2430 -0.0178 -1.2491
11811TIP3   OH256847   0.961   4.839  15.406  0.9366  0.2576  0.4765
11811TIP3    H156848   0.943   4.916  15.460  0.7365 -0.0819  0.9016
11811TIP3    H256849   1.012   4.872  15.332  1.0642  0.7596  0.7873
11812TIP3   OH256850   6.287   2.584  15.829  0.1658 -0.1541  0.4398
11812TIP3    H156851   6.285   2.540  15.744 -0.3493  0.9218 -0.1067
11812TIP3    H256852   6.372   2.561  15.866  0.2940 -0.8233 -0.2515
11813TIP3   OH256853   6.007   2.069   0.203 -0.1666 -0.2517 -0.4997
11813TIP3    H156854   5.952   2.016   0.145  1.6062  0.0187 -2.4730
11813TIP3    H256855   6.050   2.131   0.145  1.8120 -0.1127  1.0773
11814TIP3   OH256856   1.763   4.752  12.491  0.2724  0.4331  0.4624
11814TIP3    H156857   1.772   4.703  12.409  0.9552  2.2747 -0.5667
11814TIP3    H256858   1.768   4.684  12.559  0.4626 -1.0224 -0.9662
11815TIP3   OH256859   0.268   4.610   2.811 -0.1630 -0.4296 -0.3296
11815TIP3    H156860   0.332   4.554   2.856  0.8346  0.3188 -0.7899
11815TIP3    H256861   0.319   4.654   2.743 -1.4803 -0.9528 -1.6952
11816TIP3   OH256862   4.464   5.269   0.881 -0.1771  0.1720  0.2138
11816TIP3    H156863   4.433   5.353   0.848  0.7781  1.0579  1.5105
11816TIP3    H256864   4.449   5.274   0.975 -0.6474 -1.3521  0.2252
11817TIP3   OH256865   3.869   3.050   0.789  0.4833  0.4170  0.1059
11817TIP3    H156866   3.917   2.971   0.817  1.0956  0.6408 -0.2840
11817TIP3    H256867   3.777   3.025   0.793  0.7396 -0.8584 -1.5825
11818TIP3   OH256868   1.424   6.732   0.160 -0.5844 -0.1504 -0.6344
11818TIP3    H156869   1.471   6.662   0.113 -0.6032 -0.0756 -0.7635
11818TIP3    H256870   1.397   6.793   0.092 -2.1562 -0.9284 -0.7369
11819TIP3   OH256871   4.847   1.441   5.009  0.4982  0.0612  0.3817
11819TIP3    H156872   4.771   1.452   4.952  0.7664 -0.1716 -0.0244
11819TIP3    H256873   4.834   1.505   5.079  0.7058  1.1120 -0.5165
11820TIP3   OH256874   1.342   5.085  14.115 -0.2065 -0.7077 -0.4519
11820TIP3    H156875   1.403   5.061  14.046  2.1145 -1.6268  1.8419
11820TIP3    H256876   1.342   5.010  14.175 -1.0428  0.6547  1.3147
11821TIP3   OH256877   5.448   5.673   1.670  0.2005 -0.2528  0.0060
11821TIP3    H156878   5.459   5.716   1.755  1.1934 -0.9473  0.2350
11821TIP3    H256879   5.446   5.744   1.606 -1.3657  0.3216  0.6884
11822TIP3   OH256880   3.594   5.761   2.704 -0.3810  0.4073 -0.5308
11822TIP3    H156881   3.636   5.695   2.758 -0.7262 -0.0387 -0.7964
11822TIP3    H256882   3.520   5.715   2.664 -1.1925  1.2071  0.0283
11823TIP3   OH256883   1.031   6.239  12.591 -0.1435  0.1882  0.1936
11823TIP3    H156884   0.971   6.221  12.664  0.5374  0.4093  0.8255
11823TIP3    H256885   0.976   6.243  12.514 -0.8931  0.0205  0.7182
11824TIP3   OH256886   5.557   1.070  12.192 -0.4629 -0.9860 -0.2755
11824TIP3    H156887   5.481   1.125  12.173 -1.7614 -2.9345 -0.8743
11824TIP3    H256888   5.585   1.096  12.280 -1.1365  0.5130 -0.4926
11825TIP3   OH256889   6.524   3.602  11.020  0.2958  0.2796 -0.0235
11825TIP3    H156890   6.453   3.575  10.961 -0.8364  1.7694  0.6359
11825TIP3    H256891   6.581   3.525  11.025 -0.6537 -0.5493 -1.4748
11826TIP3   OH256892   4.861   3.784  12.049 -0.3603  0.0351 -0.3216
11826TIP3    H156893   4.918   3.712  12.021 -1.9280 -1.0267 -0.8251
11826TIP3    H256894   4.877   3.853  11.985 -0.2169 -0.5436 -0.9122
11827TIP3   OH256895   5.751   5.779  12.240 -0.3304  0.5775  0.4139
11827TIP3    H156896   5.839   5.817  12.240  0.4039 -1.0916 -0.2078
11827TIP3    H256897   5.713   5.808  12.157  0.7834 -1.2350 -0.7748
11828TIP3   OH256898   6.555   5.113   4.760 -0.1133 -0.5763 -0.0489
11828TIP3    H156899   6.519   5.117   4.848  1.9217 -0.1644  0.7733
11828TIP3    H256900   6.480   5.089   4.705 -1.6791  0.4022  1.5988
11829TIP3   OH256901   3.054   0.374   2.401  0.3525  0.6632  0.3532
11829TIP3    H156902   3.061   0.393   2.494  0.9433 -2.4307  0.9936
11829TIP3    H256903   3.124   0.310   2.384 -2.2283 -1.8735 -1.2713
11830TIP3   OH256904   2.338   1.008  13.406  0.2747  0.2289 -0.4422
11830TIP3    H156905   2.298   0.972  13.485 -0.0649  2.7063  0.5489
11830TIP3    H256906   2.265   1.048  13.358  0.8846  1.0653 -0.6956
11831TIP3   OH256907   6.606   1.341  12.522 -0.2386 -0.2300  0.5025
11831TIP3    H156908   6.540   1.280  12.554 -0.4851  0.1246  0.6697
11831TIP3    H256909   6.634   1.305  12.438 -1.0432 -0.0773  0.1729
11832TIP3   OH256910   6.282   0.524  10.718 -0.4401 -0.6976  0.3115
11832TIP3    H156911   6.239   0.585  10.659  0.4366 -0.9830 -0.6459
11832TIP3    H256912   6.243   0.541  10.804 -1.0565  0.3634 -0.1733
11833TIP3   OH256913   4.047   3.148   1.434 -0.5159  0.2814 -0.3313
11833TIP3    H156914   4.059   3.099   1.353  0.2330  0.9250 -0.6180
11833TIP3    H256915   3.970   3.203   1.417 -1.3216 -0.7490 -0.0269
11834TIP3   OH256916   6.424   5.190  16.135  0.3945  0.5278  0.0571
11834TIP3    H156917   6.501   5.216  16.084  1.1536 -1.9208 -0.0769
11834TIP3    H256918   6.371   5.139  16.074 -0.1901  0.1989  0.8382
11835TIP3   OH256919   5.342   6.444  17.235 -0.3111 -0.2383 -0.2787
11835TIP3    H156920   5.315   6.516  17.291 -3.3042 -1.4569 -0.0860
11835TIP3    H256921   5.418   6.406  17.281  0.4881  1.9155  0.2632
11836TIP3   OH256922   5.409   5.746  11.724  0.5211  0.1706  0.5353
11836TIP3    H156923   5.435   5.833  11.693 -0.5381  0.1887 -0.3142
11836TIP3    H256924   5.478   5.688  11.692  0.4955  0.4876 -0.0958
11837TIP3   OH256925   3.443   4.118  11.516 -0.9474  0.2267 -0.3987
11837TIP3    H156926   3.502   4.050  11.549 -2.1105 -0.6882 -0.1822
11837TIP3    H256927   3.502   4.190  11.491  0.2416 -0.5780  0.0136
11838TIP3   OH256928   2.995   0.723  13.698  0.2314  0.4654 -0.6247
11838TIP3    H156929   3.009   0.781  13.623  0.9883 -1.2442 -1.8446
11838TIP3    H256930   3.081   0.683  13.713 -0.2952 -0.3731  0.1669
11839TIP3   OH256931   0.546   0.295   5.844 -0.0980 -0.0399  0.2369
11839TIP3    H156932   0.571   0.359   5.911 -0.8473  0.4350  0.0717
11839TIP3    H256933   0.624   0.285   5.789  0.1799  0.3623  0.5565
11840TIP3   OH256934   0.547   0.878   6.017  0.9728 -0.6162  0.3693
11840TIP3    H156935   0.611   0.908   5.952  0.6722 -2.5839 -0.8609
11840TIP3    H256936   0.569   0.787   6.033 -2.7622 -1.9936 -1.6770
11841TIP3   OH256937   0.962   5.792  15.140  0.1642 -0.4107 -0.5216
11841TIP3    H156938   0.998   5.815  15.225 -1.4082 -0.0985  0.0849
11841TIP3    H256939   1.032   5.742  15.096  0.3486 -2.1405  1.6577
11842TIP3   OH256940   0.327   3.127  11.811  0.1623 -0.0387  0.1357
11842TIP3    H156941   0.247   3.171  11.841 -1.4418 -0.3306 -3.5401
11842TIP3    H256942   0.382   3.197  11.777  1.0606  0.0116  1.6062
11843TIP3   OH256943   2.527   0.375  14.751  0.4657 -0.5223  0.0088
11843TIP3    H156944   2.437   0.354  14.725  0.7509 -1.2465 -0.4007
11843TIP3    H256945   2.557   0.437  14.685  0.3451 -0.4606  0.0118
11844TIP3   OH256946   4.907   3.297  16.173 -0.4751 -0.3890 -0.0989
11844TIP3    H156947   4.965   3.233  16.132 -1.8809 -1.0427 -1.1137
11844TIP3    H256948   4.911   3.276  16.266  0.2792 -0.9623 -0.2550
11845TIP3   OH256949   1.079   2.260   1.677 -0.2233  0.0510 -0.2768
11845TIP3    H156950   1.115   2.278   1.590  1.1437  0.6962  0.4010
11845TIP3    H256951   1.134   2.312   1.736 -2.0299  0.7130  0.8384
11846TIP3   OH256952   4.286   2.395   2.788  0.0220 -0.0096  0.1242
11846TIP3    H156953   4.203   2.441   2.784  0.2756  0.6594  1.7915
11846TIP3    H256954   4.274   2.331   2.858  0.4086 -0.9516 -0.6664
11847TIP3   OH256955   5.880   6.097   3.025  0.5615 -0.7836 -0.1183
11847TIP3    H156956   5.911   6.180   2.988  1.6818 -1.1294  0.0507
11847TIP3    H256957   5.795   6.083   2.983 -0.9797  1.8461  1.8887
11848TIP3   OH256958   4.119   2.187   1.077  0.0148  0.0775  0.0651
11848TIP3    H156959   4.064   2.209   1.151 -0.3776  1.3031 -0.5773
11848TIP3    H256960   4.063   2.200   1.000  0.1461 -2.0351 -0.3986
11849TIP3   OH256961   6.277   5.998  12.012 -0.0867 -0.3832  0.0116
11849TIP3    H156962   6.361   5.993  11.965 -1.3461 -2.0523 -2.1329
11849TIP3    H256963   6.260   5.909  12.042 -2.0697 -0.4863 -1.3332
11850TIP3   OH256964   2.279   1.733   4.293 -0.4704 -0.1458 -0.1148
11850TIP3    H156965   2.279   1.703   4.384 -0.3466  2.4307  0.7768
11850TIP3    H256966   2.372   1.737   4.270 -0.4751 -0.0964 -0.1240
11851TIP3   OH256967   6.445   6.100   5.812  0.3905  0.3349  1.0807
11851TIP3    H156968   6.416   6.063   5.729  0.4081  1.4439  0.5735
11851TIP3    H256969   6.365   6.114   5.862  0.2227  1.2939  0.5587
11852TIP3   OH256970   0.633   1.997   1.774  0.0327 -0.1813 -0.0056
11852TIP3    H156971   0.643   2.062   1.845  0.4721  1.7605 -1.7884
11852TIP3    H256972   0.717   2.001   1.728 -0.5024 -0.9519 -1.0333
11853TIP3   OH256973   6.252   5.350   2.625 -0.1581  0.5297 -0.6295
11853TIP3    H156974   6.215   5.366   2.712 -0.5777  0.9183 -0.8775
11853TIP3    H256975   6.247   5.255   2.614 -0.1837  0.4868 -0.2675
11854TIP3   OH256976   1.573   4.620   1.959 -0.1517 -0.2429  0.0148
11854TIP3    H156977   1.633   4.575   1.900 -1.8353 -0.6155 -1.4663
11854TIP3    H256978   1.629   4.655   2.029  1.9018  0.3646 -1.8819
11855TIP3   OH256979   6.047   1.376  16.415 -0.6056  0.0170 -0.0291
11855TIP3    H156980   6.043   1.281  16.424  0.2441 -0.1308 -1.0914
11855TIP3    H256981   6.138   1.394  16.393 -0.7709  1.0729  0.1382
11856TIP3   OH256982   0.761   5.083   2.799 -0.3762 -0.0791 -0.1671
11856TIP3    H156983   0.816   5.107   2.725  0.8344  0.8278  0.9981
11856TIP3    H256984   0.774   5.153   2.862 -0.3046 -1.5227  1.4656
11857TIP3   OH256985   1.406   0.689  12.197 -0.1591 -0.0975  0.0394
11857TIP3    H156986   1.427   0.732  12.114 -1.0601 -0.3694 -0.3325
11857TIP3    H256987   1.432   0.753  12.264  0.5587  0.1281 -0.4391
11858TIP3   OH256988   4.821   4.043   5.590 -0.4145 -0.8209 -0.1977
11858TIP3    H156989   4.735   4.032   5.632 -1.6938  0.9196 -2.2599
11858TIP3    H256990   4.838   3.958   5.549  0.2405 -2.1160  2.6389
11859TIP3   OH256991   4.379   1.298  13.259 -0.1431  0.7009  0.1049
11859TIP3    H156992   4.440   1.371  13.251 -0.3867  0.7306 -1.6704
11859TIP3    H256993   4.430   1.220  13.239 -0.3973  0.5967 -0.1409
11860TIP3   OH256994   0.353   6.261   6.250 -0.5952  0.4884  0.0069
11860TIP3    H156995   0.363   6.218   6.165  0.9020  0.9902 -0.0912
11860TIP3    H256996   0.402   6.205   6.311  0.5881  1.5246  0.0406
11861TIP3   OH256997   6.013   1.957  16.476 -0.3028  0.0484 -0.1311
11861TIP3    H156998   6.104   1.985  16.489 -0.2850  0.0935 -0.3572
11861TIP3    H256999   5.961   2.016  16.531 -0.3007  0.7656 -0.8957
11862TIP3   OH257000   6.263   1.659   6.560 -0.3423  0.2433  0.0530
11862TIP3    H157001   6.355   1.683   6.546 -0.2199 -0.7342 -0.9336
11862TIP3    H257002   6.240   1.699   6.643  0.9175  0.7023  0.1916
11863TIP3   OH257003   4.590   3.638  11.757  0.3729 -0.0144 -0.3908
11863TIP3    H157004   4.631   3.638  11.671 -1.4832 -1.7551 -1.2939
11863TIP3    H257005   4.497   3.651  11.740  0.0581  0.2451  1.4051
11864TIP3   OH257006   0.950   3.760  16.228 -0.2896 -0.3539 -0.5306
11864TIP3    H157007   0.973   3.669  16.241  3.7844  0.4489 -1.5215
11864TIP3    H257008   0.928   3.766  16.135 -3.6774 -0.8561  0.1492
11865TIP3   OH257009   3.152   5.836   4.620  0.3953  0.0309  0.5262
11865TIP3    H157010   3.176   5.743   4.624 -0.9794 -0.4125 -1.2118
11865TIP3    H257011   3.062   5.838   4.654  0.2868  0.6782  0.1883
11866TIP3   OH257012   0.114   4.086  14.865 -0.0118 -0.4681 -0.3579
11866TIP3    H157013   0.100   3.998  14.829  0.6717 -0.4872 -0.6005
11866TIP3    H257014   0.070   4.085  14.950 -0.2590 -0.9508 -0.4887
11867TIP3   OH257015   0.577   6.570   4.511 -0.2765 -0.4429 -0.0272
11867TIP3    H157016   0.516   6.567   4.437 -0.2389 -1.5179 -0.0280
11867TIP3    H257017   0.521   6.579   4.588 -0.3437  0.1647 -0.1444
11868TIP3   OH257018   5.628   1.600   6.020  0.6547 -0.4874 -0.0610
11868TIP3    H157019   5.653   1.680   5.974  0.7212 -0.4925 -0.0336
11868TIP3    H257020   5.699   1.538   6.000  2.6524  0.6422  3.1285
11869TIP3   OH257021   5.010   4.526  11.872 -0.3405  0.1620  0.6004
11869TIP3    H157022   4.966   4.610  11.864 -0.7896  0.0004  1.3304
11869TIP3    H257023   4.947   4.470  11.918  0.2901 -0.3229  0.8894
11870TIP3   OH257024   5.747   0.060  16.993  0.2284 -0.0562 -0.0357
11870TIP3    H157025   5.708   0.056  16.906 -0.3547 -0.4879  0.2424
11870TIP3    H257026   5.801   0.139  16.992 -2.4890  1.8808  0.3213
11871TIP3   OH257027   6.165   2.341   2.584  0.0841 -0.3185  0.1798
11871TIP3    H157028   6.244   2.347   2.531  1.0184 -0.2768  1.5520
11871TIP3    H257029   6.094   2.360   2.523  1.2117  0.7487 -0.8400
11872TIP3   OH257030   0.645   3.701  12.072  0.5670  0.1476  0.4101
11872TIP3    H157031   0.586   3.665  12.139 -0.8639 -2.6712 -2.2110
11872TIP3    H257032   0.723   3.646  12.077 -0.5556 -1.7510 -1.8211
11873TIP3   OH257033   1.138   3.637  14.278 -0.0313 -0.5595 -0.3176
11873TIP3    H157034   1.051   3.598  14.287 -0.2079  0.0543  0.6493
11873TIP3    H257035   1.122   3.718  14.228 -0.2515  0.3959  1.2883
11874TIP3   OH257036   3.474   3.399   4.790 -0.3487  0.5129  0.0370
11874TIP3    H157037   3.488   3.342   4.714  0.1915  1.0643 -0.2776
11874TIP3    H257038   3.441   3.340   4.858  2.1033 -0.5689  0.3484
11875TIP3   OH257039   5.864   0.435  14.492 -0.3369 -0.2544 -0.0203
11875TIP3    H157040   5.835   0.489  14.418  0.9067  1.1599  0.4904
11875TIP3    H257041   5.814   0.468  14.567 -1.4172 -1.5227 -0.1694
11876TIP3   OH257042   4.995   6.198  13.174 -0.5149  0.4203 -0.2210
11876TIP3    H157043   4.917   6.179  13.122 -0.7957  0.1503  0.2916
11876TIP3    H257044   4.982   6.288  13.204 -1.2003 -0.0128  0.8349
11877TIP3   OH257045   4.607   3.975  14.693 -0.3491  0.0773  0.2683
11877TIP3    H157046   4.679   4.028  14.659  0.8342 -0.1592  2.3204
11877TIP3    H257047   4.577   4.023  14.771 -1.9411 -0.1950 -0.1542
11878TIP3   OH257048   5.007   4.013  16.228 -0.5346 -0.7129  0.4385
11878TIP3    H157049   5.033   3.925  16.201 -2.5527 -1.2286  0.0259
11878TIP3    H257050   4.939   4.038  16.164 -1.3121  0.3737  1.6531
11879TIP3   OH257051   0.606   3.780   4.308 -0.9008 -0.3499  0.0757
11879TIP3    H157052   0.610   3.773   4.403 -1.8836  0.6425  0.2008
11879TIP3    H257053   0.631   3.871   4.290  0.9500 -0.9829 -0.7432
11880TIP3   OH257054   6.194   1.485   1.115  0.0825 -0.6069 -0.1635
11880TIP3    H157055   6.264   1.437   1.071 -0.5227 -1.1953 -0.4911
11880TIP3    H257056   6.189   1.568   1.068  0.6280 -0.5136 -0.0679
11881TIP3   OH257057   2.206   0.811   5.721 -0.1691  0.1035  0.0458
11881TIP3    H157058   2.197   0.717   5.738 -0.1360  0.0216 -0.3958
11881TIP3    H257059   2.225   0.817   5.628  1.3552  0.4499  0.3644
11882TIP3   OH257060   6.121   6.013  16.912 -0.1529 -0.5581  0.6339
11882TIP3    H157061   6.209   6.022  16.874  0.3589  1.2353  2.2164
11882TIP3    H257062   6.105   6.096  16.957 -1.5504 -1.9149  2.6966
11883TIP3   OH257063   5.522   4.587   2.906  0.3434 -0.3564 -0.8221
11883TIP3    H157064   5.483   4.650   2.846  0.8615  0.7227 -0.0397
11883TIP3    H257065   5.594   4.635   2.948  0.5095 -1.3524  0.0475
11884TIP3   OH257066   1.205   3.454   5.485 -0.1509  0.0462  0.0965
11884TIP3    H157067   1.211   3.500   5.568  1.2648  1.7309 -0.9091
11884TIP3    H257068   1.242   3.367   5.502 -1.1395 -0.1022  1.5453
11885TIP3   OH257069   1.494   3.486   0.114  0.0724 -0.4219  0.0333
11885TIP3    H157070   1.559   3.427   0.076 -0.8340 -0.7561 -1.0380
11885TIP3    H257071   1.457   3.532   0.039  0.2413  0.9916  0.7859
11886TIP3   OH257072   2.162   4.618   3.185  0.4773  0.0088 -0.1001
11886TIP3    H157073   2.071   4.640   3.165  0.0958 -1.7337 -0.3896
11886TIP3    H257074   2.211   4.698   3.167 -1.0024  0.9625  0.0752
11887TIP3   OH257075   3.820   3.031   0.291  0.4669 -0.2801  0.1581
11887TIP3    H157076   3.874   3.001   0.217  1.4269 -0.8909  1.0885
11887TIP3    H257077   3.732   3.035   0.256  1.0147  0.0771 -1.2170
11888TIP3   OH257078   2.185   3.144   0.893  0.1008  0.1080  0.4338
11888TIP3    H157079   2.123   3.174   0.826 -0.4687 -0.7915  0.5492
11888TIP3    H257080   2.247   3.216   0.902  0.1675  0.2509 -1.0535
11889TIP3   OH257081   1.694   5.677  11.681  0.0232 -0.4876 -0.3975
11889TIP3    H157082   1.691   5.646  11.771  0.2275  1.0302  0.1550
11889TIP3    H257083   1.781   5.652  11.649 -0.0219 -0.9604 -0.1437
11890TIP3   OH257084   2.540   0.046   3.365 -0.1287  0.1409  0.1275
11890TIP3    H157085   2.551  -0.018   3.294  2.4069  0.7047 -0.0302
11890TIP3    H257086   2.533   0.130   3.320 -1.2007  0.2300  0.4473
11891TIP3   OH257087   1.415   5.539  15.547 -0.3974  0.0182  0.3615
11891TIP3    H157088   1.351   5.472  15.522  1.8498 -2.3944  0.7731
11891TIP3    H257089   1.374   5.586  15.620 -2.0994 -0.7857 -0.0466
11892TIP3   OH257090   5.939   3.368  13.198  0.1043  0.2663  0.0762
11892TIP3    H157091   5.905   3.314  13.126  0.2759 -0.1948  0.3343
11892TIP3    H257092   6.012   3.316  13.233  0.7769  1.0344 -0.1780
11893TIP3   OH257093   2.138   5.090   4.257 -0.0758  0.4152  0.1833
11893TIP3    H157094   2.155   5.179   4.285 -1.6233  2.0728 -3.7963
11893TIP3    H257095   2.079   5.099   4.182 -0.1172 -3.9277 -0.4479
11894TIP3   OH257096   6.251   0.944   3.870  0.3058  0.1158  0.2081
11894TIP3    H157097   6.221   0.878   3.809  0.4971  0.6360 -0.4502
11894TIP3    H257098   6.247   1.027   3.822  1.3176  0.4030  0.5974
11895TIP3   OH257099   3.771   1.528  14.973 -0.4952 -0.3935 -0.8094
11895TIP3    H157100   3.819   1.604  14.943 -0.7096  0.0202 -0.1280
11895TIP3    H257101   3.769   1.469  14.898 -1.4302  0.8156 -1.7516
11896TIP3   OH257102   1.439   4.225  15.740  0.6751  0.4021  0.3684
11896TIP3    H157103   1.450   4.320  15.749 -0.2682  0.5568 -0.0306
11896TIP3    H257104   1.396   4.214  15.655  2.7276 -0.5369 -0.5934
11897TIP3   OH257105   4.566   5.381  11.258 -0.2461  0.1775 -0.4233
11897TIP3    H157106   4.623   5.454  11.281 -0.9669  1.1642 -1.6784
11897TIP3    H257107   4.623   5.304  11.259  0.9067  1.0230 -0.8394
11898TIP3   OH257108   5.750   0.166  11.960 -0.3791 -0.0882 -0.1162
11898TIP3    H157109   5.692   0.162  11.884  0.1904 -0.7237 -0.5213
11898TIP3    H257110   5.807   0.241  11.943  0.0881 -0.5415 -0.5644
11899TIP3   OH257111   4.224   1.313   4.595 -0.4777 -0.0794  0.2868
11899TIP3    H157112   4.316   1.291   4.577 -0.2860  0.9064  0.0249
11899TIP3    H257113   4.175   1.237   4.564  0.0826  0.3338 -1.6463
11900TIP3   OH257114   0.380   4.077   2.810  0.5517  0.0282 -0.3081
11900TIP3    H157115   0.469   4.093   2.843  0.7161 -1.9847  0.2735
11900TIP3    H257116   0.382   3.987   2.777 -1.6879 -0.5577  1.0770
11901TIP3   OH257117   4.362   5.392   4.409  0.5922 -0.3874  0.0683
11901TIP3    H157118   4.358   5.344   4.492  0.2015 -1.2167 -0.4181
11901TIP3    H257119   4.285   5.362   4.361  0.0935  1.0754 -0.0713
11902TIP3   OH257120   5.185   2.943   2.260 -0.3526  0.2471 -0.1851
11902TIP3    H157121   5.233   2.938   2.178 -0.8672 -2.6291 -0.3721
11902TIP3    H257122   5.117   3.009   2.244 -1.0180 -0.9302 -2.3815
11903TIP3   OH257123   6.289   6.617   4.016 -0.7966  0.5366 -0.7484
11903TIP3    H157124   6.329   6.565   3.945  0.0992  0.7975 -0.4402
11903TIP3    H257125   6.284   6.557   4.090  0.0715  0.8243 -0.4474
11904TIP3   OH257126   2.603   0.848  11.587  0.1611 -0.1089  0.5847
11904TIP3    H157127   2.677   0.789  11.599  0.8520  0.7340  0.6078
11904TIP3    H257128   2.612   0.879  11.497  0.5274  0.8984  0.9560
11905TIP3   OH257129   1.106   6.668   4.726  0.7026 -0.2070  0.6391
11905TIP3    H157130   1.017   6.634   4.731 -0.1435  1.3857 -2.4371
11905TIP3    H257131   1.097   6.761   4.747  1.6918 -0.1028  0.6232
11906TIP3   OH257132   5.579   1.999   1.797 -0.2258  0.3970 -0.1882
11906TIP3    H157133   5.561   2.086   1.763 -0.6704  1.1967  2.0362
11906TIP3    H257134   5.547   2.001   1.887  0.0146 -1.9757 -0.0219
11907TIP3   OH257135   6.158   3.500   1.844  0.2248 -0.0913 -0.0283
11907TIP3    H157136   6.161   3.596   1.835  0.7484  0.0266  1.1938
11907TIP3    H257137   6.096   3.471   1.778 -0.3062  1.1501 -0.0854
11908TIP3   OH257138   1.167   4.294  13.461 -0.3560 -0.1134 -0.3730
11908TIP3    H157139   1.126   4.377  13.484 -0.4927 -0.5959  1.1602
11908TIP3    H257140   1.260   4.315  13.450 -0.4625  0.3205 -0.4489
11909TIP3   OH257141   6.758   5.658   0.912 -0.0663  0.6372 -0.0694
11909TIP3    H157142   6.836   5.608   0.888 -0.2162  0.6464 -0.5867
11909TIP3    H257143   6.789   5.723   0.975  0.2086  0.1672  0.2867
11910TIP3   OH257144   5.183   1.126  16.833 -0.3833 -0.0346  0.3679
11910TIP3    H157145   5.193   1.091  16.922 -1.1009 -1.5445 -0.1356
11910TIP3    H257146   5.089   1.128  16.818 -0.2623  0.1482 -0.3939
11911TIP3   OH257147   5.341   0.888  16.792 -0.3867 -0.2198 -0.0161
11911TIP3    H157148   5.380   0.965  16.833 -1.0911  0.4226 -0.5333
11911TIP3    H257149   5.254   0.917  16.763 -0.3208 -0.9520 -1.0050
11912TIP3   OH257150   0.994   3.516   4.473 -0.5031 -0.5166  0.5428
11912TIP3    H157151   0.951   3.432   4.486 -1.1772 -0.0017  1.7343
11912TIP3    H257152   0.953   3.553   4.395 -0.8344 -0.8907  0.5420
11913TIP3   OH257153   3.744   3.437  12.549  0.5797  0.4820  1.0167
11913TIP3    H157154   3.831   3.404  12.571  1.3400  1.1464 -0.9095
11913TIP3    H257155   3.757   3.531  12.537 -0.2507  0.4665 -0.0574
11914TIP3   OH257156   1.375   6.710  15.852 -0.2554  0.3538 -0.2234
11914TIP3    H157157   1.422   6.646  15.798 -1.5416  0.0582 -1.0062
11914TIP3    H257158   1.368   6.669  15.938  1.6822  0.7688  0.1669
11915TIP3   OH257159   2.393   6.672  17.233 -0.2331 -0.0185  0.1165
11915TIP3    H157160   2.458   6.665  17.303  0.0895  0.6656 -0.1045
11915TIP3    H257161   2.426   6.743  17.177  0.7176 -2.0850 -2.0108
11916TIP3   OH257162   1.767   0.383  10.957  0.0556  0.2415  0.3094
11916TIP3    H157163   1.826   0.313  10.985  0.2002 -0.0335 -0.6749
11916TIP3    H257164   1.815   0.429  10.889  0.8234  2.6352  2.3966
11917TIP3   OH257165   4.507   2.135  14.069 -0.0320  0.4514  0.1079
11917TIP3    H157166   4.427   2.132  14.122  0.0398  0.6936  0.2280
11917TIP3    H257167   4.512   2.225  14.038 -0.1071  0.2943 -0.3638
11918TIP3   OH257168   4.957   2.832  12.190 -0.3104 -0.2575 -0.2427
11918TIP3    H157169   4.932   2.922  12.170 -3.1453  0.3090  5.0268
11918TIP3    H257170   5.043   2.841  12.233 -0.1631 -0.1689 -0.5540
11919TIP3   OH257171   2.584   1.476   0.135 -0.4501 -0.3489  0.2610
11919TIP3    H157172   2.571   1.388   0.099 -0.8727 -0.2194  0.0995
11919TIP3    H257173   2.538   1.475   0.219 -2.2704  0.3726 -0.6929
11920TIP3   OH257174   1.467   3.594  13.327  0.4513  0.4656  0.2098
11920TIP3    H157175   1.481   3.657  13.256  0.1313 -0.4124 -0.6494
11920TIP3    H257176   1.421   3.644  13.395  1.1316  1.4210 -0.0278
11921TIP3   OH257177   6.207   1.261  16.144 -0.1209  0.8695  0.7930
11921TIP3    H157178   6.281   1.319  16.129  0.1052  0.9504  2.1456
11921TIP3    H257179   6.187   1.224  16.058  1.8040  0.4579  0.5035
11922TIP3   OH257180   6.329   3.340   1.450  0.2242 -0.3571 -0.2036
11922TIP3    H157181   6.321   3.248   1.425  0.0009 -0.5348  0.5222
11922TIP3    H257182   6.407   3.344   1.504 -0.1300 -0.2347  0.3006
11923TIP3   OH257183   6.284   2.850  17.132  0.2231 -0.0768 -0.0042
11923TIP3    H157184   6.236   2.793  17.073 -1.3368  0.1389  1.0222
11923TIP3    H257185   6.367   2.805  17.148 -1.2867 -2.4475  1.3989
11924TIP3   OH257186   3.459   3.788   5.397 -0.2566  0.1590 -0.2301
11924TIP3    H157187   3.533   3.811   5.453 -0.0130  1.9913 -1.2697
11924TIP3    H257188   3.470   3.695   5.379 -0.6466 -0.6287  3.2054
11925TIP3   OH257189   6.376   4.909   3.329  1.1406 -0.0991  0.0953
11925TIP3    H157190   6.328   4.984   3.365  1.2843  0.0415 -0.0082
11925TIP3    H257191   6.365   4.916   3.234  1.4039 -0.0424  0.0692
11926TIP3   OH257192   3.126   6.413   2.906  0.3722  0.3190  0.3306
11926TIP3    H157193   3.200   6.434   2.962 -0.4235  2.1132  0.7323
11926TIP3    H257194   3.106   6.495   2.861  0.3162 -0.8157 -1.7937
11927TIP3   OH257195   0.513   3.300   1.207 -0.6571  0.1652 -0.0093
11927TIP3    H157196   0.586   3.299   1.145  0.1302  2.7712  0.8246
11927TIP3    H257197   0.555   3.296   1.293 -1.4340  2.3652  0.5037
11928TIP3   OH257198   6.552   2.805  12.492 -0.1198 -0.0647 -0.3793
11928TIP3    H157199   6.555   2.714  12.462 -1.0600  0.5597 -2.5197
11928TIP3    H257200   6.461   2.820  12.515  0.5546 -0.4708  2.7852
11929TIP3   OH257201   0.726   6.478  12.276 -0.5270 -0.0301 -0.5646
11929TIP3    H157202   0.690   6.545  12.334  1.9212 -1.6596  3.0143
11929TIP3    H257203   0.784   6.526  12.217 -1.2852  1.3842 -0.1876
11930TIP3   OH257204   4.656   3.561   6.617 -0.5077  0.0228  0.2935
11930TIP3    H157205   4.735   3.615   6.611 -1.6622  1.8949  1.4284
11930TIP3    H257206   4.667   3.495   6.548  1.6066  0.8023 -0.1623
11931TIP3   OH257207   1.830   6.269  12.033  0.1351  0.3944 -0.1077
11931TIP3    H157208   1.864   6.226  11.954  1.7071  1.4410 -0.0174
11931TIP3    H257209   1.905   6.276  12.091 -0.2438  2.7016  0.1220
11932TIP3   OH257210   1.224   1.135   0.043 -0.4132 -0.2141  0.2669
11932TIP3    H157211   1.254   1.181   0.122  1.5816 -0.2345 -0.4793
11932TIP3    H257212   1.299   1.084   0.014 -0.1586  2.0561 -3.3383
11933TIP3   OH257213   5.072   1.393  13.110 -0.2955 -0.3598 -0.8607
11933TIP3    H157214   5.126   1.459  13.067  0.1334 -0.7832 -0.9762
11933TIP3    H257215   4.987   1.398  13.066 -0.0075 -0.4586 -1.4351
11934TIP3   OH257216   0.540   5.353   3.798 -0.2991  0.4893 -0.5698
11934TIP3    H157217   0.485   5.417   3.753 -0.0029  0.8850 -0.3736
11934TIP3    H257218   0.608   5.332   3.734  0.9918  2.1789  0.2024
11935TIP3   OH257219   3.880   3.220   1.710  0.4212 -0.5803  0.2506
11935TIP3    H157220   3.928   3.251   1.633 -1.0275  1.9099  0.2633
11935TIP3    H257221   3.836   3.141   1.680 -0.0093  0.2809 -1.4808
11936TIP3   OH257222   1.619   6.352  15.475  0.0620  0.2512 -0.7813
11936TIP3    H157223   1.581   6.285  15.418 -0.2981  1.1051 -1.5587
11936TIP3    H257224   1.712   6.331  15.478 -0.2452 -1.0706  0.0632
11937TIP3   OH257225   5.038   3.558   4.971  0.1405 -0.0196  0.3890
11937TIP3    H157226   4.989   3.492   4.921 -0.8259  1.0913 -0.1428
11937TIP3    H257227   4.970   3.607   5.018  0.8175  0.9369  0.3717
11938TIP3   OH257228   0.297   5.289   4.817  0.1818  0.2420 -0.1350
11938TIP3    H157229   0.309   5.312   4.725 -2.2956 -1.2372 -0.8879
11938TIP3    H257230   0.341   5.358   4.865  3.4553 -0.1359 -2.4389
11939TIP3   OH257231   0.140   3.406  12.317  0.2866  0.2794 -0.1645
11939TIP3    H157232   0.143   3.441  12.228 -1.5948 -0.2500 -0.4530
11939TIP3    H257233   0.229   3.417  12.350  0.7242  1.5322 -1.7075
11940TIP3   OH257234   4.381   4.582  14.568  0.1722 -0.2121 -0.0484
11940TIP3    H157235   4.290   4.593  14.595 -0.0096  1.7463 -1.3387
11940TIP3    H257236   4.432   4.625  14.636  0.1739 -1.7366  0.9264
11941TIP3   OH257237   3.002   3.381   6.142 -0.1275 -0.1440 -0.1968
11941TIP3    H157238   3.063   3.350   6.074  1.9060  2.4500  0.3650
11941TIP3    H257239   2.948   3.446   6.098  0.0075  0.2630  0.2368
11942TIP3   OH257240   3.342   1.468   2.713 -0.0350  0.0341 -0.4155
11942TIP3    H157241   3.427   1.429   2.735 -0.4254  0.3064  1.6337
11942TIP3    H257242   3.317   1.517   2.791 -1.8069  0.4721 -1.2346
11943TIP3   OH257243   3.380   5.982   6.310  0.0979 -0.3033 -0.5889
11943TIP3    H157244   3.408   5.891   6.320  1.7510 -0.0197 -2.2769
11943TIP3    H257245   3.290   5.976   6.278 -0.8413 -1.2726  2.1326
11944TIP3   OH257246   0.687   3.100   1.560 -0.5164 -0.0514  0.2325
11944TIP3    H157247   0.756   3.146   1.609  1.0266 -1.6169 -0.4108
11944TIP3    H257248   0.644   3.169   1.509  0.8857  0.8882  0.2834
11945TIP3   OH257249   6.376   3.236  16.196 -0.3573  0.4071 -0.2793
11945TIP3    H157250   6.391   3.323  16.161 -0.0479 -0.1945 -1.6663
11945TIP3    H257251   6.346   3.184  16.122  0.7156 -0.9883  0.2237
11946TIP3   OH257252   0.510   4.955   3.216 -0.3920  0.6087 -0.0489
11946TIP3    H157253   0.522   5.036   3.166 -0.0177  0.1205 -0.7613
11946TIP3    H257254   0.422   4.962   3.252 -0.9072  0.7092 -1.2908
11947TIP3   OH257255   3.685   1.015   0.559 -0.6587 -0.0722  0.4062
11947TIP3    H157256   3.738   0.941   0.529 -0.2782  0.8016 -1.0729
11947TIP3    H257257   3.739   1.092   0.543 -2.5958  0.8903 -1.6648
11948TIP3   OH257258   0.522   4.827  15.582 -0.0542 -0.2358 -0.2086
11948TIP3    H157259   0.583   4.895  15.555  0.1727 -0.7094 -0.8910
11948TIP3    H257260   0.502   4.848  15.673 -0.0862  0.8136 -0.4579
11949TIP3   OH257261   5.245   6.305   5.858  0.4166 -0.2071 -0.0778
11949TIP3    H157262   5.234   6.264   5.944  2.0582 -0.4544  0.0181
11949TIP3    H257263   5.336   6.335   5.857  0.4014 -0.1973 -1.7235
11950TIP3   OH257264   4.647   5.560   0.760  0.3199  0.6043  0.7114
11950TIP3    H157265   4.640   5.489   0.696  1.2996  0.6905  0.5094
11950TIP3    H257266   4.738   5.557   0.790  0.0375  0.9812  1.6243
11951TIP3   OH257267   6.382   0.292   2.234  0.0951  0.2283 -0.6624
11951TIP3    H157268   6.426   0.377   2.225  2.6072 -0.9386  0.1920
11951TIP3    H257269   6.436   0.231   2.183  0.6753 -1.6460  2.0889
11952TIP3   OH257270   4.498   0.266   4.250  0.1767 -0.3914 -0.3985
11952TIP3    H157271   4.456   0.278   4.165  0.0710 -2.8177 -0.7091
11952TIP3    H257272   4.428   0.277   4.314 -0.0258  0.0365 -0.6931
11953TIP3   OH257273   0.669   5.482   5.131 -0.1072  0.4918 -0.1238
11953TIP3    H157274   0.730   5.550   5.102 -0.3246  0.5568 -0.4234
11953TIP3    H257275   0.679   5.480   5.227  0.0398  0.8079 -0.1341
11954TIP3   OH257276   4.179   0.108   1.161 -0.1125 -0.3741  0.0941
11954TIP3    H157277   4.240   0.035   1.156  0.3288 -0.1344  1.5999
11954TIP3    H257278   4.102   0.072   1.204  0.4524  0.2481  1.6628
11955TIP3   OH257279   6.249   1.104  12.937 -0.2531 -0.0931  0.5154
11955TIP3    H157280   6.202   1.058  12.868 -1.4923 -2.0667  2.6122
11955TIP3    H257281   6.252   1.195  12.908 -2.0422 -0.6282 -1.4375
11956TIP3   OH257282   2.372   1.091   0.599 -0.4791  0.1328 -0.5412
11956TIP3    H157283   2.419   1.151   0.542  1.3716  1.4435  2.2685
11956TIP3    H257284   2.286   1.081   0.559 -0.1675  3.1944 -2.0547
11957TIP3   OH257285   1.527   3.977   4.265 -0.3085  0.4587  0.2081
11957TIP3    H157286   1.593   3.986   4.334 -0.0369  1.2150 -0.1512
11957TIP3    H257287   1.453   3.935   4.309 -0.2016  1.0932  1.0023
11958TIP3   OH257288   3.079   1.521  13.973 -0.5007 -0.4970  0.1011
11958TIP3    H157289   3.108   1.493  14.060 -0.2682  1.0048  0.5160
11958TIP3    H257290   3.108   1.612  13.966 -0.0655 -0.7587 -1.7578
11959TIP3   OH257291   3.781   2.615   4.548  0.1397  0.0162  0.2585
11959TIP3    H157292   3.835   2.548   4.589 -1.7641 -1.2983  0.6889
11959TIP3    H257293   3.693   2.601   4.585 -0.6254  1.7165 -0.8505
11960TIP3   OH257294   6.636   5.974  16.796  0.4577  0.2897 -0.0215
11960TIP3    H157295   6.728   5.985  16.819  0.6170  2.2459 -1.4679
11960TIP3    H257296   6.635   5.973  16.701 -0.9143 -0.7833 -0.0168
11961TIP3   OH257297   1.958   4.418  14.731  0.0988  0.0154  0.3834
11961TIP3    H157298   1.961   4.350  14.664  0.4077 -0.2103  0.6257
11961TIP3    H257299   1.871   4.457  14.721  0.6012  0.8400 -0.9945
11962TIP3   OH257300   0.735   1.975  12.697  0.0374 -0.1215 -0.0732
11962TIP3    H157301   0.670   2.034  12.734 -0.8438 -0.2445 -1.3649
11962TIP3    H257302   0.722   1.982  12.602  0.4726 -1.7516 -0.2715
11963TIP3   OH257303   3.951   5.926  17.038  0.1531  0.1111  0.6266
11963TIP3    H157304   4.014   5.855  17.049 -0.7538 -0.5447  1.5979
11963TIP3    H257305   4.001   5.995  16.993  0.8308 -1.3866 -0.9660
11964TIP3   OH257306   3.419   4.072   2.797  0.0534 -0.1722 -0.7526
11964TIP3    H157307   3.342   4.075   2.740 -1.8267 -2.7122  1.5632
11964TIP3    H257308   3.406   4.143   2.859 -0.4011 -0.5867 -0.3760
11965TIP3   OH257309   1.958   1.888   2.085  0.0944 -0.6982 -0.1496
11965TIP3    H157310   1.920   1.866   2.000 -0.1871 -0.2877 -0.1300
11965TIP3    H257311   1.905   1.839   2.148 -1.2898  0.9426 -0.0079
11966TIP3   OH257312   6.177   0.695  11.181  0.3128 -0.5484 -0.0954
11966TIP3    H157313   6.142   0.724  11.097  1.0941  0.5968 -0.0258
11966TIP3    H257314   6.110   0.635  11.215 -1.1936  0.9614 -0.3393
11967TIP3   OH257315   5.854   5.114  17.021 -0.3068 -0.1629  0.3978
11967TIP3    H157316   5.839   5.202  16.984  2.3796  0.6737  1.1775
11967TIP3    H257317   5.947   5.114  17.045 -1.5302 -1.1803  5.8119
11968TIP3   OH257318   5.001   1.635   2.202  0.1238 -0.3925 -0.0598
11968TIP3    H157319   5.002   1.565   2.137  1.6220 -0.2220 -0.2277
11968TIP3    H257320   5.009   1.715   2.150 -0.8098 -0.1345  0.1891
11969TIP3   OH257321   4.005   0.538   3.307 -0.2223  0.3348 -0.1882
11969TIP3    H157322   4.009   0.452   3.349  0.3904  1.3360  1.8599
11969TIP3    H257323   4.073   0.535   3.240  1.9814  0.2828  1.9827
11970TIP3   OH257324   0.101   5.977  13.478 -0.5043  0.6313  0.0585
11970TIP3    H157325   0.076   5.885  13.479 -0.7763  0.7036  0.9917
11970TIP3    H257326   0.082   6.007  13.389  1.3881 -0.6923 -0.8338
11971TIP3   OH257327   0.514   4.220  14.414  0.9214 -0.2859  0.3359
11971TIP3    H157328   0.525   4.263  14.499  0.7680  1.5401 -0.5459
11971TIP3    H257329   0.445   4.154  14.429 -0.6011  1.4536  1.1306
11972TIP3   OH257330   2.406   4.194   1.951  0.2239 -0.5700  0.2685
11972TIP3    H157331   2.338   4.128   1.936 -0.1433 -0.1469  0.0713
11972TIP3    H257332   2.467   4.151   2.011 -1.7633  0.1122  2.8762
11973TIP3   OH257333   5.289   5.058  15.825 -0.5560  0.2719 -0.1766
11973TIP3    H157334   5.311   5.018  15.741 -1.9966 -0.2913 -0.3019
11973TIP3    H257335   5.373   5.079  15.865  0.1340  0.3782 -1.6847
11974TIP3   OH257336   5.407   0.603   4.803 -0.1794  0.0614 -0.2891
11974TIP3    H157337   5.330   0.633   4.850  0.0955  2.3421 -1.2582
11974TIP3    H257338   5.395   0.635   4.713  0.8480 -1.4630 -1.0041
11975TIP3   OH257339   0.788   5.306   2.951 -0.0754  0.2561  0.1119
11975TIP3    H157340   0.782   5.359   2.871 -1.4909  0.7823  0.5660
11975TIP3    H257341   0.838   5.360   3.012  0.4012  0.1426 -0.1746
11976TIP3   OH257342   6.026   2.899  15.642  0.0934 -0.0145 -0.4852
11976TIP3    H157343   6.010   2.828  15.579 -0.1437  1.0976 -1.6973
11976TIP3    H257344   6.108   2.875  15.685  0.1624 -0.8801 -1.0900
11977TIP3   OH257345   2.426   4.616  14.332  0.7614 -0.2958  0.2934
11977TIP3    H157346   2.404   4.578  14.246  1.7920  0.0713 -0.1394
11977TIP3    H257347   2.522   4.620  14.332  0.6720  1.9382  0.4974
11978TIP3   OH257348   5.990   2.433  14.595 -0.3142 -0.5860 -0.1681
11978TIP3    H157349   5.999   2.524  14.623 -1.5840  0.4127 -2.8442
11978TIP3    H257350   5.943   2.390  14.667 -0.9818  1.2094  0.4975
11979TIP3   OH257351   6.147   1.264  15.420  0.2242 -0.5654  0.8274
11979TIP3    H157352   6.093   1.337  15.388  0.9147 -0.3747  0.0986
11979TIP3    H257353   6.085   1.208  15.467 -0.9200 -1.1327 -1.3184
11980TIP3   OH257354   2.999   3.825  13.689  0.5078 -0.0325  0.5743
11980TIP3    H157355   3.073   3.885  13.703  2.3722 -2.0585 -0.2712
11980TIP3    H257356   2.999   3.768  13.766  0.7291 -0.9439 -0.0928
11981TIP3   OH257357   3.253   1.547  15.130  0.2742  0.5741 -0.3201
11981TIP3    H157358   3.301   1.468  15.157  1.6044  1.5588  0.2327
11981TIP3    H257359   3.208   1.576  15.210 -2.1267 -0.9327 -1.0789
11982TIP3   OH257360   5.135   3.412   3.231 -0.4329 -1.1155 -0.0965
11982TIP3    H157361   5.218   3.386   3.190 -0.2745 -2.3279  0.9332
11982TIP3    H257362   5.072   3.347   3.201 -1.5451  1.0690 -2.6308
11983TIP3   OH257363   1.176   3.262   4.512  0.0415  0.0242  0.1598
11983TIP3    H157364   1.157   3.317   4.436  0.1803  1.2716  0.9985
11983TIP3    H257365   1.091   3.236   4.545 -0.1140  1.9760  1.3369
11984TIP3   OH257366   5.504   4.724  13.165  0.1229 -0.0892 -0.1944
11984TIP3    H157367   5.573   4.691  13.223 -0.6670 -0.1879  0.7032
11984TIP3    H257368   5.430   4.741  13.223  0.0465  1.9230 -0.8529
11985TIP3   OH257369   6.434   2.501  17.158  0.5897  0.3826 -0.1368
11985TIP3    H157370   6.467   2.587  17.183  1.1941 -0.5438  2.3343
11985TIP3    H257371   6.453   2.444  17.233  0.2867 -1.9374 -1.7411
11986TIP3   OH257372   6.297   3.570  16.909  1.0067  0.2537  0.1796
11986TIP3    H157373   6.265   3.580  16.819 -0.1416 -2.8745  0.1801
11986TIP3    H257374   6.387   3.604  16.906  0.5062  1.4999 -1.8003
11987TIP3   OH257375   2.328   5.240   1.587 -0.0375  0.1081  0.6411
11987TIP3    H157376   2.346   5.200   1.502 -0.1415  3.0274 -0.8277
11987TIP3    H257377   2.401   5.214   1.642  1.7981  0.9364 -1.3492
11988TIP3   OH257378   5.962   0.028   3.092 -0.2459  0.2185 -0.1882
11988TIP3    H157379   6.054   0.031   3.063 -0.5748 -2.0697 -1.6408
11988TIP3    H257380   5.952   0.104   3.148  2.1169  1.4135 -1.3007
11989TIP3   OH257381   4.047   4.493  16.918  0.2960  0.4524 -0.4323
11989TIP3    H157382   4.074   4.585  16.921  1.2099  0.1445  2.5722
11989TIP3    H257383   3.970   4.489  16.975  2.3081 -1.2414  2.2629
11990TIP3   OH257384   5.917   2.428  11.657 -0.3943  0.1218 -0.3864
11990TIP3    H157385   5.891   2.367  11.588  2.5910  0.3788 -1.7816
11990TIP3    H257386   5.936   2.371  11.732  0.9839 -0.5791 -1.2490
11991TIP3   OH257387   1.406   2.771  15.822 -0.2128 -0.1333 -0.4906
11991TIP3    H157388   1.465   2.699  15.844 -0.8564 -0.4170  0.3060
11991TIP3    H257389   1.456   2.824  15.760  0.7906 -0.5008 -0.0050
11992TIP3   OH257390   0.435   3.131  14.233 -0.3173 -0.0402 -0.1375
11992TIP3    H157391   0.518   3.084  14.231 -0.8127 -0.8851 -1.2224
11992TIP3    H257392   0.405   3.124  14.323  0.5808 -0.1118  0.1523
11993TIP3   OH257393   0.187   0.939   0.788  0.7464  0.4481 -0.3045
11993TIP3    H157394   0.202   0.845   0.780  1.3357  0.5687 -0.6460
11993TIP3    H257395   0.098   0.946   0.822  0.2702 -0.2128 -1.3599
11994TIP3   OH257396   6.771   5.223  11.272  0.9205 -0.0906  0.0080
11994TIP3    H157397   6.802   5.281  11.202 -0.0156  0.3617 -0.0342
11994TIP3    H257398   6.738   5.146  11.226  0.5027  0.1156 -0.0407
11995TIP3   OH257399   0.492   2.022   1.261  0.5141 -0.1968  0.6440
11995TIP3    H157400   0.439   1.991   1.335  1.1573 -0.9791  0.7870
11995TIP3    H257401   0.514   2.112   1.284 -1.3282  0.3686  0.2536
11996TIP3   OH257402   3.035   1.416   2.987 -0.1921 -0.3535  0.6792
11996TIP3    H157403   2.992   1.458   3.061  0.2514  0.7282  0.3356
11996TIP3    H257404   2.990   1.451   2.910 -0.3219 -1.0924  0.4145
11997TIP3   OH257405   0.585   0.891   3.612 -0.2344  0.6229 -0.2057
11997TIP3    H157406   0.638   0.902   3.533  0.5534  0.1907  0.2516
11997TIP3    H257407   0.504   0.937   3.593  0.0222  0.6874 -1.1961
11998TIP3   OH257408   2.782   6.385  15.981 -0.5728  0.0772  0.1673
11998TIP3    H157409   2.806   6.310  16.036  0.1247 -0.0331 -0.2771
11998TIP3    H257410   2.687   6.379  15.971 -0.3782 -1.4295 -0.8642
11999TIP3   OH257411   2.581   3.493   3.048  0.2678  0.1186 -0.2073
11999TIP3    H157412   2.676   3.489   3.051  0.3164 -1.2576 -2.2584
11999TIP3    H257413   2.553   3.488   3.139  2.0790 -2.0708  0.2682
12000TIP3   OH257414   2.948   2.285   3.620  0.1447  0.5861 -0.1678
12000TIP3    H157415   2.915   2.371   3.593  0.2987  0.3463 -1.1390
12000TIP3    H257416   3.041   2.300   3.637 -0.3823  1.2119  2.3547
12001TIP3   OH257417   0.266   1.184   1.137  0.2962  0.3444 -0.1120
12001TIP3    H157418   0.326   1.201   1.209  0.0871  1.2379 -0.1424
12001TIP3    H257419   0.294   1.245   1.068 -1.0508  1.2301  0.1149
12002TIP3   OH257420   4.990   5.856  15.035 -0.2676  0.0985 -0.0092
12002TIP3    H157421   4.974   5.881  14.944  2.5071  1.4895 -0.1646
12002TIP3    H257422   5.075   5.811  15.033  0.6943  1.7262  2.1195
12003TIP3   OH257423   6.629   6.603   5.935  0.7691 -0.4495  0.2195
12003TIP3    H157424   6.656   6.575   6.022  1.1956  0.6810  0.4515
12003TIP3    H257425   6.558   6.543   5.912 -1.3177  1.0429  2.5301
12004TIP3   OH257426   0.940   1.549  17.074  0.0964 -0.1627  0.4528
12004TIP3    H157427   0.901   1.501  17.000  0.0807  0.9805 -0.2937
12004TIP3    H257428   1.002   1.486  17.112  0.9764 -0.3823 -1.2759
12005TIP3   OH257429   6.138   1.954   0.848  0.2270  0.3461 -0.2806
12005TIP3    H157430   6.227   1.984   0.865  0.6563 -1.1047  0.1620
12005TIP3    H257431   6.085   1.998   0.915  1.1526 -1.3915  1.6774
12006TIP3   OH257432   3.640   0.175  13.857  0.3356  0.5043 -0.2869
12006TIP3    H157433   3.554   0.146  13.886 -0.2240  0.6725 -1.7555
12006TIP3    H257434   3.698   0.101  13.874 -0.7694 -0.9091 -2.5288
12007TIP3   OH257435   5.358   0.758   4.563  0.2579 -0.4321 -0.2607
12007TIP3    H157436   5.376   0.836   4.510 -0.8657  1.0930  1.5320
12007TIP3    H257437   5.289   0.713   4.515  0.6444 -0.1358 -1.1188
12008TIP3   OH257438   2.509   2.954   1.828  0.0544 -0.3956  0.2152
12008TIP3    H157439   2.432   3.007   1.809  0.6394  0.0751 -0.8485
12008TIP3    H257440   2.503   2.880   1.767  0.1883 -0.6161  0.4689
12009TIP3   OH257441   5.163   6.482  11.063  0.5208 -0.1668 -0.0133
12009TIP3    H157442   5.227   6.411  11.054  0.6028 -0.0747 -0.1637
12009TIP3    H257443   5.100   6.466  10.993 -1.0217 -1.6955  1.6949
12010TIP3   OH257444   4.288   2.374   0.358  0.3834  0.8237 -0.3738
12010TIP3    H157445   4.198   2.365   0.390 -0.7507 -2.8008 -4.0161
12010TIP3    H257446   4.283   2.445   0.294  0.1094  0.7223 -0.4694
12011TIP3   OH257447   4.851   4.486  16.611 -0.0227  0.2136 -0.4693
12011TIP3    H157448   4.825   4.577  16.593 -0.5101 -0.0168 -0.9493
12011TIP3    H257449   4.774   4.447  16.654  0.0098 -0.1056 -0.6970
12012TIP3   OH257450   4.209   6.607  15.818  0.7311  0.2445  0.5397
12012TIP3    H157451   4.170   6.545  15.878 -1.3375 -1.0028 -1.9890
12012TIP3    H257452   4.244   6.554  15.747  0.5727  1.8144 -0.7596
12013TIP3   OH257453   0.411   3.762   4.970 -0.1517 -0.1556 -0.2519
12013TIP3    H157454   0.408   3.774   4.875  0.8262 -1.4022 -0.4491
12013TIP3    H257455   0.349   3.692   4.989 -0.1055 -0.1341 -0.0130
12014TIP3   OH257456   1.361   4.484  14.034 -0.4450  0.3077  0.6788
12014TIP3    H157457   1.419   4.493  13.958  0.2487 -0.3487  1.1123
12014TIP3    H257458   1.284   4.535  14.012 -0.8964 -1.1014 -1.1111
12015TIP3   OH257459   4.530   4.965  14.280 -0.5033  0.1501 -0.4143
12015TIP3    H157460   4.494   5.045  14.242 -1.6177 -0.2264 -0.1650
12015TIP3    H257461   4.608   4.947  14.229 -0.4495  1.1979 -0.7107
12016TIP3   OH257462   4.324   2.502  15.781  0.0103 -0.4834 -0.4961
12016TIP3    H157463   4.308   2.490  15.687 -0.7113  0.8128 -0.5630
12016TIP3    H257464   4.412   2.540  15.785 -0.1372 -0.1179 -0.6837
12017TIP3   OH257465   3.177   1.791   4.975  0.0030 -0.4132  0.0426
12017TIP3    H157466   3.151   1.876   5.010 -0.5634 -0.3155 -0.6053
12017TIP3    H257467   3.181   1.805   4.880 -1.5319 -1.4909 -0.2006
12018TIP3   OH257468   5.683   6.226   3.886 -0.2735 -0.5605  0.2210
12018TIP3    H157469   5.600   6.272   3.902 -0.3662 -1.1367  1.5270
12018TIP3    H257470   5.730   6.234   3.969  1.7262  1.2464 -1.0649
12019TIP3   OH257471   5.217   0.527  13.133 -0.2714 -0.6157  0.2259
12019TIP3    H157472   5.179   0.445  13.099 -0.1513 -0.6062  0.0718
12019TIP3    H257473   5.306   0.503  13.158 -0.6425 -0.8498  1.3943
12020TIP3   OH257474   1.121   4.139   5.112  0.0578 -0.0870 -0.1094
12020TIP3    H157475   1.169   4.154   5.193 -5.2078 -1.7774  3.6342
12020TIP3    H257476   1.092   4.225   5.084 -1.7653  0.1741  2.3921
12021TIP3   OH257477   5.219   6.632  12.692 -0.3003  0.8766 -0.4159
12021TIP3    H157478   5.176   6.580  12.760  1.5407 -0.3672 -0.1689
12021TIP3    H257479   5.195   6.723  12.712  1.1602  0.6403  2.5708
12022TIP3   OH257480   1.928   3.289   3.929 -0.4067  0.2440 -0.3096
12022TIP3    H157481   1.943   3.329   3.844 -0.0035 -0.5821 -0.6309
12022TIP3    H257482   1.848   3.330   3.962 -0.5080  0.6279 -1.0449
12023TIP3   OH257483   4.106   5.277   2.386  0.0973 -0.7676  0.3745
12023TIP3    H157484   4.064   5.260   2.301 -0.6442  0.9130  0.3849
12023TIP3    H257485   4.194   5.308   2.362  0.6102 -2.2362  0.2944
12024TIP3   OH257486   4.313   5.778  12.014 -0.4049  0.3733 -0.1855
12024TIP3    H157487   4.309   5.769  12.109  1.2027 -1.1197 -0.2287
12024TIP3    H257488   4.345   5.867  11.999 -0.0952  0.4064  0.6615
12025TIP3   OH257489   3.952   5.287   4.864  0.1246 -0.1975 -0.0946
12025TIP3    H157490   3.917   5.198   4.864  1.2884 -0.6778 -0.1943
12025TIP3    H257491   4.043   5.277   4.895  0.0200  1.0616  0.6939
12026TIP3   OH257492   4.690   0.278  13.825 -0.0058 -0.7577 -0.1178
12026TIP3    H157493   4.729   0.204  13.872  1.2209  0.7191  1.2593
12026TIP3    H257494   4.716   0.264  13.733  3.1240 -0.3012  0.6155
12027TIP3   OH257495   6.034   1.108  14.286 -0.8172 -0.0557  0.2756
12027TIP3    H157496   6.039   1.190  14.334  1.3477 -0.0873  0.1695
12027TIP3    H257497   6.021   1.134  14.195 -1.1873  0.1344  0.3819
12028TIP3   OH257498   4.501   2.905   4.082  0.6156  0.0278 -0.7318
12028TIP3    H157499   4.580   2.906   4.136  0.0216 -0.6464  0.1733
12028TIP3    H257500   4.533   2.901   3.992  1.6389  1.8273 -0.4756
12029TIP3   OH257501   6.013   2.629   0.718  0.3905  0.3550 -0.3203
12029TIP3    H157502   5.950   2.652   0.787 -0.2820 -1.4147 -0.3285
12029TIP3    H257503   5.975   2.553   0.675  3.8544 -2.5748  1.5309
12030TIP3   OH257504   1.154   2.463   2.083  0.0885  0.0767 -0.0297
12030TIP3    H157505   1.225   2.525   2.102 -0.6090  1.3632 -1.5046
12030TIP3    H257506   1.179   2.383   2.129  3.2022  0.0651 -1.5990
12031TIP3   OH257507   4.031   5.639   0.871  0.2049 -0.1413 -0.7446
12031TIP3    H157508   4.067   5.555   0.842  0.0776 -0.1740 -0.8074
12031TIP3    H257509   4.101   5.703   0.854  1.3342 -0.6621  1.7964
12032TIP3   OH257510   3.455   0.496   0.718 -0.7975 -0.5803 -0.1784
12032TIP3    H157511   3.546   0.465   0.725 -0.3508  0.6414 -0.3925
12032TIP3    H257512   3.462   0.579   0.670 -1.8411  0.3806  1.2883
12033TIP3   OH257513   5.905   5.619   3.281 -0.1282 -0.7268 -0.4439
12033TIP3    H157514   5.823   5.617   3.332  0.7417 -0.5604  0.9942
12033TIP3    H257515   5.945   5.703   3.303  1.8978 -2.0823  1.2516
12034TIP3   OH257516   0.025   3.127  13.314  0.6052  0.1574  0.4171
12034TIP3    H157517  -0.055   3.094  13.354 -0.1412  0.1353 -1.0764
12034TIP3    H257518   0.023   3.093  13.224  2.3800 -0.0053  0.4153
12035TIP3   OH257519   6.048   2.823  13.751  1.3506 -0.0426  0.0436
12035TIP3    H157520   6.027   2.730  13.744  0.2687  0.3197 -1.6731
12035TIP3    H257521   5.979   2.859  13.807 -1.4120  0.6919 -3.6390
12036TIP3   OH257522   0.210   3.284  13.875  0.2983  0.0421  0.5388
12036TIP3    H157523   0.125   3.296  13.833 -0.4305  1.0676  2.2558
12036TIP3    H257524   0.266   3.250  13.806 -1.3457 -0.0653 -0.7780
12037TIP3   OH257525   2.686   3.759   5.218  0.0420 -0.4777 -0.0057
12037TIP3    H157526   2.686   3.849   5.185  0.8549 -1.1622 -1.9870
12037TIP3    H257527   2.730   3.764   5.303 -0.6872  1.1215  0.2957
12038TIP3   OH257528   5.537   2.555  17.094 -0.1986  0.1478 -0.1341
12038TIP3    H157529   5.520   2.647  17.075  1.5615  0.3666 -0.7327
12038TIP3    H257530   5.609   2.556  17.156  0.2966 -0.8459 -0.6820
12039TIP3   OH257531   4.976   1.796   4.101 -0.1051  0.4881  0.4342
12039TIP3    H157532   5.045   1.740   4.137  1.1212  0.2406 -2.2388
12039TIP3    H257533   4.909   1.735   4.071 -1.3746  0.7150  2.6389
12040TIP3   OH257534   5.978   4.663   3.454  0.4838 -0.4259  0.4141
12040TIP3    H157535   6.052   4.717   3.484  1.0853 -0.9200 -0.1612
12040TIP3    H257536   5.993   4.578   3.497 -0.2887 -0.2391  1.0699
12041TIP3   OH257537   3.927   5.861  12.061  1.2145  0.2963 -0.3641
12041TIP3    H157538   3.847   5.890  12.104  1.6080  0.7260  0.0931
12041TIP3    H257539   3.914   5.882  11.969  1.4055  1.7388 -0.0699
12042TIP3   OH257540   4.100   0.337   4.135 -0.1015 -0.7392 -0.3901
12042TIP3    H157541   4.047   0.272   4.181  0.0292 -1.2496 -0.9564
12042TIP3    H257542   4.186   0.296   4.124  1.2291  1.0108  2.7254
12043TIP3   OH257543   0.612   5.886   1.212  0.0091  0.0284  0.5295
12043TIP3    H157544   0.650   5.974   1.216 -0.3925  0.2812 -0.8013
12043TIP3    H257545   0.675   5.835   1.160  0.2375 -0.4756  1.2884
12044TIP3   OH257546   6.241   5.368   0.503  0.0948 -0.5486 -0.0217
12044TIP3    H157547   6.281   5.320   0.430  1.5090 -2.0437  1.6974
12044TIP3    H257548   6.186   5.434   0.461 -0.9115 -2.8432 -2.4775
12045TIP3   OH257549   1.041   2.815  13.914  0.2924 -0.7788  0.3192
12045TIP3    H157550   0.950   2.844  13.914  0.3005 -0.7232  1.3714
12045TIP3    H257551   1.040   2.730  13.870 -0.0052 -0.0101 -1.1876
12046TIP3   OH257552   1.115   0.375   2.667 -0.0284 -0.5079  0.2285
12046TIP3    H157553   1.041   0.325   2.633  0.0078 -0.5017  0.1398
12046TIP3    H257554   1.192   0.326   2.640 -0.0752 -2.2269  3.0476
12047TIP3   OH257555   5.937   3.103  15.075 -0.2813 -0.3421  0.5743
12047TIP3    H157556   6.019   3.135  15.112  1.2308 -2.4772 -0.8536
12047TIP3    H257557   5.885   3.182  15.058  1.3898  1.0054  1.6490
12048TIP3   OH257558   3.538   5.059  16.506 -0.0094 -0.6227 -0.3107
12048TIP3    H157559   3.447   5.044  16.530  0.1395 -0.7584  0.1920
12048TIP3    H257560   3.544   5.034  16.414 -0.6608  0.1660 -0.5652
12049TIP3   OH257561   1.635   1.761   4.486 -0.0566 -0.1132  0.0166
12049TIP3    H157562   1.577   1.695   4.449  1.7042 -1.4283 -0.4906
12049TIP3    H257563   1.622   1.754   4.581 -0.0998 -0.9945 -0.0515
12050TIP3   OH257564   4.034   1.748  11.503  0.3864  0.5651  0.3903
12050TIP3    H157565   4.126   1.761  11.478  0.5284  0.3612  0.7974
12050TIP3    H257566   4.005   1.835  11.532  0.7800  0.4019  1.3127
12051TIP3   OH257567   0.762   2.662   0.362 -0.2728 -0.0736  0.5845
12051TIP3    H157568   0.691   2.656   0.299 -0.3889 -1.0178  0.7932
12051TIP3    H257569   0.788   2.571   0.377  1.4301  0.2908  0.0006
12052TIP3   OH257570   5.813   6.562  15.382  0.6421  0.0782 -0.2174
12052TIP3    H157571   5.879   6.494  15.392  0.3759  0.0589  1.4498
12052TIP3    H257572   5.855   6.642  15.414 -0.1955  0.0268  1.0572
12053TIP3   OH257573   0.610   4.574   5.728  0.0165 -0.5048 -0.1340
12053TIP3    H157574   0.606   4.666   5.703  0.9956  0.2005  2.1951
12053TIP3    H257575   0.580   4.527   5.650 -1.6375  1.8142 -0.9537
12054TIP3   OH257576   2.741   1.744   1.339  0.0544 -0.1083 -0.5884
12054TIP3    H157577   2.762   1.779   1.425 -0.5960  0.1672 -0.5383
12054TIP3    H257578   2.645   1.740   1.337  0.0151  0.9496 -1.7041
12055TIP3   OH257579   1.313   0.149   0.505 -0.1458  0.2564  0.1381
12055TIP3    H157580   1.312   0.191   0.419 -2.0327  1.8996  0.9268
12055TIP3    H257581   1.230   0.174   0.545 -0.8174 -3.2987  1.1234
12056TIP3   OH257582   1.441   3.293  11.195  0.0310  0.5759 -0.1280
12056TIP3    H157583   1.386   3.216  11.210 -0.9880  1.5407  1.2815
12056TIP3    H257584   1.480   3.312  11.281  2.5521 -0.0416 -1.0783
12057TIP3   OH257585   2.806   1.568  10.424  0.1732 -0.3880  0.1610
12057TIP3    H157586   2.889   1.527  10.400  0.8106  1.3526 -0.6227
12057TIP3    H257587   2.828   1.657  10.448 -1.2220 -0.4613  1.8556
12058TIP3   OH257588   1.144   6.349  14.989  0.0882  0.0940 -0.4270
12058TIP3    H157589   1.210   6.283  15.010 -1.3665 -1.3774 -0.2982
12058TIP3    H257590   1.060   6.302  14.998 -0.8551  1.0774 -3.4561
12059TIP3   OH257591   2.165   5.996   1.025 -0.1366  0.0700 -0.7534
12059TIP3    H157592   2.128   5.944   1.096  0.4354 -2.3563 -2.1826
12059TIP3    H257593   2.108   5.979   0.950  1.6762 -0.7639 -1.9792
12060TIP3   OH257594   5.013   2.130  16.243  0.2706  0.3113 -0.2772
12060TIP3    H157595   4.921   2.105  16.255  0.8028 -1.2118  0.8178
12060TIP3    H257596   5.013   2.181  16.162 -1.4004 -0.4508 -0.7893
12061TIP3   OH257597   0.355   4.784   6.167 -0.0081 -0.0511  0.3023
12061TIP3    H157598   0.302   4.747   6.096 -1.2207  0.5603  0.8771
12061TIP3    H257599   0.308   4.863   6.194 -0.5022 -1.1769  2.9357
12062TIP3   OH257600   3.551   3.589  13.636  0.0205  0.3374 -0.4245
12062TIP3    H157601   3.573   3.502  13.670  1.0617  0.3706 -0.9863
12062TIP3    H257602   3.635   3.625  13.607 -0.2025  2.0368  0.9319
12063TIP3   OH257603   4.950   1.321   3.842 -0.1319  0.0907 -0.1389
12063TIP3    H157604   4.872   1.269   3.819  0.9997 -1.3732 -0.7532
12063TIP3    H257605   4.976   1.363   3.760  0.3323 -0.2476 -0.1638
12064TIP3   OH257606   4.654   3.074   5.778 -0.4261 -0.1353  0.3436
12064TIP3    H157607   4.653   3.134   5.704  0.8526 -1.6756 -0.9462
12064TIP3    H257608   4.723   3.107   5.835 -1.1605  0.8301  0.7022
12065TIP3   OH257609   4.351   4.556   1.770  0.1294  0.0093 -0.2770
12065TIP3    H157610   4.315   4.535   1.857  0.6863 -2.4863 -0.6014
12065TIP3    H257611   4.303   4.634   1.743 -0.4722  0.4872  2.0281
12066TIP3   OH257612   5.336   4.976   1.579  0.2583  0.2944  0.4038
12066TIP3    H157613   5.358   4.927   1.658  3.8346  0.8972 -0.1357
12066TIP3    H257614   5.366   4.920   1.507  0.4810  1.3895 -0.3704
12067TIP3   OH257615   6.696   1.779   1.716 -0.5383 -0.3291  0.0193
12067TIP3    H157616   6.779   1.731   1.719 -0.3789 -0.0127  0.7234
12067TIP3    H257617   6.659   1.757   1.630 -0.3658 -1.5444  0.2460
12068TIP3   OH257618   0.285   0.297  11.276  0.2167 -0.2271 -0.4911
12068TIP3    H157619   0.283   0.254  11.361  0.5175  0.9414  0.1108
12068TIP3    H257620   0.367   0.347  11.276  0.0031  0.1335 -1.2953
12069TIP3   OH257621   5.874   6.233  13.783  0.2133  0.1176 -0.2680
12069TIP3    H157622   5.908   6.144  13.772  0.4282  0.2046 -0.3043
12069TIP3    H257623   5.936   6.288  13.735  0.6651  0.4062  0.6432
12070TIP3   OH257624   1.981   5.582  14.931 -0.9395 -0.1157 -0.1490
12070TIP3    H157625   1.949   5.546  14.848  0.0224 -1.2140 -0.0653
12070TIP3    H257626   1.943   5.670  14.935 -3.2340 -1.0434 -0.4513
12071TIP3   OH257627   3.891   2.479  13.708 -0.5113 -1.3009 -0.3360
12071TIP3    H157628   3.971   2.490  13.761 -0.1392  2.1496 -1.4885
12071TIP3    H257629   3.919   2.425  13.634  0.4651 -1.0498 -0.1600
12072TIP3   OH257630   3.560   5.248  13.481  0.0471 -0.3826  0.2432
12072TIP3    H157631   3.556   5.155  13.501  1.5955 -0.4121  0.4689
12072TIP3    H257632   3.630   5.256  13.416 -0.2140  0.5995  0.0718
12073TIP3   OH257633   2.925   4.098  12.811  0.5872  0.1447  0.5548
12073TIP3    H157634   2.897   4.133  12.726  0.9836  0.7528  0.6706
12073TIP3    H257635   3.003   4.150  12.833  0.1372  0.3890  1.5728
12074TIP3   OH257636   6.197   3.491   4.589 -0.4981 -0.1897  0.4116
12074TIP3    H157637   6.229   3.424   4.528  0.9469 -0.3962  1.3906
12074TIP3    H257638   6.202   3.450   4.675  0.0139  1.0470  0.9741
12075TIP3   OH257639   4.789   2.566   4.355  0.2899 -0.0465 -0.0230
12075TIP3    H157640   4.820   2.476   4.345 -0.0297  0.0559 -2.0795
12075TIP3    H257641   4.693   2.558   4.355  0.2628  0.1906  0.9401
12076TIP3   OH257642   3.906   5.745  11.059  0.4169 -0.2876  0.0007
12076TIP3    H157643   4.000   5.756  11.044  0.3724  0.2190  0.0851
12076TIP3    H257644   3.891   5.651  11.052  1.2279 -0.5495  1.6661
12077TIP3   OH257645   4.943   0.737   6.547  0.0603 -0.0421 -0.1950
12077TIP3    H157646   4.975   0.666   6.491 -0.5736  0.4105 -1.1388
12077TIP3    H257647   4.862   0.766   6.505  0.8290  1.8904 -0.3736
12078TIP3   OH257648   0.153   2.008  13.926 -0.1136 -0.1740  0.1268
12078TIP3    H157649   0.184   2.054  14.004  0.3894 -0.1304 -0.1016
12078TIP3    H257650   0.231   1.996  13.872 -0.5180  0.1214 -0.5336
12079TIP3   OH257651   2.250   4.748   2.711  0.2199  0.1865 -0.3258
12079TIP3    H157652   2.216   4.685   2.646 -1.7496 -0.1271  0.9745
12079TIP3    H257653   2.308   4.805   2.660  0.4666 -1.4447 -1.9267
12080TIP3   OH257654   2.110   2.970  11.293  0.0937  0.0176 -0.2592
12080TIP3    H157655   2.032   3.007  11.335 -0.7983 -0.8526 -1.1000
12080TIP3    H257656   2.113   2.880  11.324  1.5722  0.4418  0.8509
12081TIP3   OH257657   4.043   3.144  14.320 -0.3673  0.4868 -0.2813
12081TIP3    H157658   4.100   3.210  14.281 -0.6697  0.8180 -0.1719
12081TIP3    H257659   4.090   3.062  14.309  1.0436  0.9995  1.5932
12082TIP3   OH257660   3.081   5.122  13.763  0.6543 -0.2584  0.0458
12082TIP3    H157661   3.068   5.117  13.857  0.9415  0.5444  0.1292
12082TIP3    H257662   3.117   5.036  13.739  3.9148  0.7274  1.2106
12083TIP3   OH257663   5.676   3.846   1.996 -0.6345  0.6404  0.0105
12083TIP3    H157664   5.763   3.867   2.029 -0.2491 -1.9623  0.7995
12083TIP3    H257665   5.683   3.859   1.901  0.0910  2.0760  0.2448
12084TIP3   OH257666   2.135   3.893  14.725 -0.1072 -0.4188 -0.2645
12084TIP3    H157667   2.215   3.879  14.675 -0.9635 -0.5562 -1.6421
12084TIP3    H257668   2.123   3.988  14.726  0.3785 -0.3685  0.4280
12085TIP3   OH257669   5.492   1.976  12.925  0.7488  0.3451 -0.1956
12085TIP3    H157670   5.415   2.001  12.873  0.9872 -1.6132 -1.5483
12085TIP3    H257671   5.462   1.983  13.016 -0.6193  0.8749 -0.6627
12086TIP3   OH257672   1.241   4.124  13.106  0.1094  0.0244  0.0742
12086TIP3    H157673   1.245   4.046  13.050 -1.3722 -0.4961  0.6684
12086TIP3    H257674   1.159   4.114  13.155  1.1308  0.7216  1.9644
12087TIP3   OH257675   2.488   0.653  13.859  0.5299  0.1507 -0.1249
12087TIP3    H157676   2.459   0.563  13.855 -1.3046  0.4772  3.8867
12087TIP3    H257677   2.583   0.648  13.847  0.3599 -2.2045 -0.6701
12088TIP3   OH257678   0.077   1.128  16.077  0.1562  0.5259 -0.2484
12088TIP3    H157679   0.143   1.073  16.034  0.4370  1.8141 -1.4998
12088TIP3    H257680   0.123   1.209  16.097 -0.7372  0.9951 -0.0778
12089TIP3   OH257681   1.119   0.775  10.767 -0.3690 -0.0797 -0.2412
12089TIP3    H157682   1.196   0.724  10.793  0.8903  1.3376 -1.1198
12089TIP3    H257683   1.106   0.752  10.675 -1.2505 -0.6296  0.0191
12090TIP3   OH257684   0.374   4.172  14.869 -0.6376 -0.1367 -0.1713
12090TIP3    H157685   0.281   4.153  14.862 -0.8597  1.5356 -2.1342
12090TIP3    H257686   0.417   4.086  14.870 -2.1152 -0.8815 -0.4633
12091TIP3   OH257687   6.605   6.491   3.122  0.2068 -0.0111 -0.0011
12091TIP3    H157688   6.510   6.498   3.111  0.2828 -2.0487 -2.5246
12091TIP3    H257689   6.621   6.398   3.135  1.7998  0.4398  1.4300
12092TIP3   OH257690   2.625   6.632  15.310  0.1372 -0.0071 -0.4580
12092TIP3    H157691   2.558   6.565  15.320 -0.9206  0.9335 -1.0898
12092TIP3    H257692   2.586   6.696  15.250 -0.3362  2.9999  2.8730
12093TIP3   OH257693   4.385   5.256  15.438 -0.1119 -0.2024 -0.4009
12093TIP3    H157694   4.369   5.246  15.531 -2.3239  1.4332 -0.5608
12093TIP3    H257695   4.477   5.234  15.426 -0.0263 -1.2174  2.0261
12094TIP3   OH257696   2.755   6.779  13.625 -0.3765  0.5805  0.0618
12094TIP3    H157697   2.664   6.751  13.632  0.2521 -1.3079  1.0896
12094TIP3    H257698   2.781   6.755  13.536 -0.5722  0.1534  0.1207
12095TIP3   OH257699   3.430   6.601   5.131 -0.1818  0.1044 -1.0512
12095TIP3    H157700   3.395   6.669   5.189  1.5220  0.8831 -0.8855
12095TIP3    H257701   3.419   6.519   5.179  0.9173  0.7057  0.2692
12096TIP3   OH257702   3.134   6.376  13.884 -0.5300  0.5109  0.2611
12096TIP3    H157703   3.050   6.388  13.840  0.1911 -0.5752 -1.4784
12096TIP3    H257704   3.161   6.288  13.859  0.2533  0.1394  2.3327
12097TIP3   OH257705   2.328   2.143  12.748 -0.4292  0.7613 -0.3082
12097TIP3    H157706   2.256   2.151  12.686 -1.4441  2.1136  1.0254
12097TIP3    H257707   2.401   2.189  12.705 -0.5498 -0.0077 -1.3520
12098TIP3   OH257708   5.527   3.629  15.371  0.5020 -0.5238 -0.5654
12098TIP3    H157709   5.433   3.633  15.355  0.2308 -0.1893  0.9600
12098TIP3    H257710   5.544   3.704  15.430  1.6427 -0.8206 -0.5039
12099TIP3   OH257711   5.958   1.568  13.181  0.5257  0.7441  0.6472
12099TIP3    H157712   6.051   1.580  13.197  0.7314  3.0127 -1.8123
12099TIP3    H257713   5.952   1.487  13.130  1.1796  0.6230  0.7641
12100TIP3   OH257714   3.994   2.720   3.723 -0.3242 -0.8825 -0.4674
12100TIP3    H157715   4.041   2.717   3.640 -1.2647  0.3190 -1.0412
12100TIP3    H257716   4.013   2.807   3.758 -2.3076 -0.3004 -0.8121
12101TIP3   OH257717   2.663   2.299   0.600 -0.4129 -0.2745  0.1434
12101TIP3    H157718   2.731   2.238   0.570  2.3488  2.2603  1.0696
12101TIP3    H257719   2.587   2.279   0.544  1.2784 -2.6827 -1.4014
12102TIP3   OH257720   5.384   4.026  16.370 -0.3887 -0.3067 -0.1379
12102TIP3    H157721   5.469   4.022  16.415 -1.3378 -5.1419  1.5209
12102TIP3    H257722   5.405   4.064  16.285  3.3581 -0.6236  0.5293
12103TIP3   OH257723   5.225   3.908  16.890  0.0854  0.2628 -0.0138
12103TIP3    H157724   5.283   3.905  16.814 -0.2031 -1.0984 -0.1829
12103TIP3    H257725   5.138   3.923  16.854 -0.0890 -0.6410  0.0284
12104TIP3   OH257726   1.507   0.541   0.418 -0.2905 -0.0869 -0.0898
12104TIP3    H157727   1.549   0.623   0.392 -0.4272 -0.1673 -0.5658
12104TIP3    H257728   1.465   0.509   0.338 -0.7108 -0.3351  0.2300
12105TIP3   OH257729   5.404   4.079   1.023 -0.1756 -0.4678 -0.0929
12105TIP3    H157730   5.413   3.985   1.007  2.5840 -0.3787  0.7833
12105TIP3    H257731   5.353   4.085   1.104  2.5486 -1.3163  1.7349
12106TIP3   OH257732   0.048   4.612  13.216 -0.2851 -0.3926 -0.5248
12106TIP3    H157733  -0.019   4.680  13.227 -1.9166 -1.8337 -1.3488
12106TIP3    H257734   0.030   4.550  13.286  0.9247 -0.2165 -0.0542
12107TIP3   OH257735   3.233   6.232  17.082 -0.4070  0.5075  0.0138
12107TIP3    H157736   3.192   6.157  17.040 -1.6221  0.6612  0.8834
12107TIP3    H257737   3.226   6.302  17.018 -2.2357  0.7377  0.4077
12108TIP3   OH257738   4.800   4.739  11.335 -0.1876  0.0824  0.4188
12108TIP3    H157739   4.735   4.795  11.294 -1.0156 -1.8874 -1.0290
12108TIP3    H257740   4.878   4.747  11.280 -0.2797 -0.1457  0.2572
12109TIP3   OH257741   4.141   3.363   6.504  0.4685 -0.5673 -0.9053
12109TIP3    H157742   4.182   3.351   6.590 -0.8447  1.5355  0.0575
12109TIP3    H257743   4.073   3.297   6.500 -2.8722  2.4699  1.8971
12110TIP3   OH257744   6.147   1.599  16.785 -0.6124 -0.3656  0.5849
12110TIP3    H157745   6.122   1.692  16.787 -2.1973 -0.7232 -1.0053
12110TIP3    H257746   6.100   1.564  16.709  2.6841 -1.7143 -0.9115
12111TIP3   OH257747   3.968   2.252   5.124 -0.3743 -0.7139  0.6712
12111TIP3    H157748   4.039   2.214   5.177 -1.1531  0.3718  2.5686
12111TIP3    H257749   3.895   2.259   5.185 -1.6950 -0.5447 -0.9080
12112TIP3   OH257750   0.038   0.470  15.083  0.5273  0.2939  0.1634
12112TIP3    H157751  -0.050   0.459  15.120 -0.1499 -2.5273 -2.1359
12112TIP3    H257752   0.028   0.536  15.015  0.0595 -0.5094 -0.5411
12113TIP3   OH257753   3.610   0.747  15.411 -0.4232 -0.0481 -0.4873
12113TIP3    H157754   3.543   0.679  15.402  1.4591 -2.3613  2.1884
12113TIP3    H257755   3.563   0.823  15.445 -2.0397 -0.9757 -0.6048
12114TIP3   OH257756   5.778   4.858   4.525  0.0226  0.0211 -0.1306
12114TIP3    H157757   5.813   4.943   4.497  0.2080  0.1804  0.5664
12114TIP3    H257758   5.855   4.803   4.537 -0.1642 -0.6420 -1.7928
12115TIP3   OH257759   2.745   1.303   5.053  0.5711 -0.1801  0.3356
12115TIP3    H157760   2.784   1.223   5.089  2.8567  0.8379  0.2117
12115TIP3    H257761   2.745   1.288   4.958  3.2650  0.8939  0.1167
12116TIP3   OH257762   2.401   5.072  15.783 -0.5174  0.1134 -0.2834
12116TIP3    H157763   2.345   5.004  15.745 -0.1755 -0.1848 -0.2590
12116TIP3    H257764   2.390   5.147  15.725  1.6298 -0.9992 -2.2070
12117TIP3   OH257765   3.406   2.668  11.071 -0.2012 -0.4181  0.2298
12117TIP3    H157766   3.409   2.578  11.036  0.8031 -1.0346  1.8802
12117TIP3    H257767   3.485   2.676  11.124  0.6235  2.0377 -1.2641
12118TIP3   OH257768   3.918   4.396   3.974 -0.1079 -0.0015  0.4027
12118TIP3    H157769   3.847   4.374   3.913  1.2056 -1.4715 -0.6554
12118TIP3    H257770   3.874   4.411   4.057 -1.8676  1.2616 -0.7227
12119TIP3   OH257771   2.531   0.601  13.266 -0.7395 -0.4855 -0.2868
12119TIP3    H157772   2.624   0.577  13.259  0.0455  1.3610  2.9287
12119TIP3    H257773   2.531   0.696  13.264 -2.2488 -0.3694  2.6762
12120TIP3   OH257774   2.093   1.930  16.651 -0.1406 -0.3886 -0.5777
12120TIP3    H157775   2.122   1.996  16.589  1.1891  0.6231  1.0620
12120TIP3    H257776   2.077   1.978  16.732  0.5108 -2.0178  0.5551
12121TIP3   OH257777   0.198   2.065   3.072 -0.4838 -0.2281 -0.2198
12121TIP3    H157778   0.110   2.053   3.036 -0.0488 -1.7876 -0.8097
12121TIP3    H257779   0.219   1.980   3.112  0.8744  0.0426 -0.3381
12122TIP3   OH257780   1.733   2.220   0.821  0.1952  0.1845 -0.4056
12122TIP3    H157781   1.826   2.244   0.815  0.0312  1.4387  1.4716
12122TIP3    H257782   1.728   2.167   0.901 -0.7433  0.2671 -0.4086
12123TIP3   OH257783   3.774   3.185   2.326 -0.2624  0.2457  0.1252
12123TIP3    H157784   3.763   3.266   2.377  0.1175  2.2961 -2.8846
12123TIP3    H257785   3.864   3.190   2.293 -0.7237 -0.6718 -1.3105
12124TIP3   OH257786   5.709   4.204  14.995 -0.1146 -0.1080 -0.0808
12124TIP3    H157787   5.701   4.297  15.015 -0.6313 -0.2955  0.6094
12124TIP3    H257788   5.797   4.194  14.961 -0.4059  0.8170 -1.1345
12125TIP3   OH257789   3.569   0.886  14.441 -0.1368  0.1137 -0.1120
12125TIP3    H157790   3.619   0.876  14.360 -0.5483 -0.3753 -0.3118
12125TIP3    H257791   3.511   0.810  14.443 -0.2338  0.1970  0.5708
12126TIP3   OH257792   1.821   3.033  10.735  0.0394 -0.3251  0.6084
12126TIP3    H157793   1.740   3.010  10.690 -0.5114 -0.0496  1.4402
12126TIP3    H257794   1.804   3.121  10.770  1.3720  0.5142 -0.7876
12127TIP3   OH257795   0.895   3.161  10.590 -1.2639 -0.4090  0.7429
12127TIP3    H157796   0.844   3.084  10.565 -2.6899  0.1397  1.8383
12127TIP3    H257797   0.829   3.225  10.617 -0.0291  0.6695  1.2449
12128TIP3   OH257798   2.647   4.459   6.501  0.7337  0.0492  0.0349
12128TIP3    H157799   2.642   4.513   6.579 -2.0299 -0.2467  0.0807
12128TIP3    H257800   2.717   4.499   6.449  0.9845  1.6529  1.5674
12129TIP3   OH257801   6.656   1.870  16.630 -0.3966 -0.1106 -0.5923
12129TIP3    H157802   6.575   1.908  16.664 -0.9051 -0.5183 -1.3395
12129TIP3    H257803   6.629   1.821  16.553  0.7532  0.8448 -1.6209
12130TIP3   OH257804   3.465   4.818   2.607 -0.0776 -0.6187 -0.4306
12130TIP3    H157805   3.427   4.763   2.538  1.5764  1.7915 -3.4308
12130TIP3    H257806   3.408   4.895   2.608  1.3811  0.4878 -0.9578
12131TIP3   OH257807   6.030   1.204  16.864  0.5913 -0.0761  0.0743
12131TIP3    H157808   6.125   1.192  16.864  0.9587  2.5057 -1.2834
12131TIP3    H257809   6.003   1.184  16.774 -0.0953 -0.3014  0.3244
12132TIP3   OH257810   0.807   6.697   1.191 -0.0394  0.3081  0.6818
12132TIP3    H157811   0.740   6.631   1.207  1.2654 -1.5397 -1.0837
12132TIP3    H257812   0.883   6.667   1.242  0.3314  0.8250  0.4370
12133TIP3   OH257813   0.550   0.390  14.717  0.3859 -0.1344  0.1197
12133TIP3    H157814   0.577   0.326  14.783  0.8725 -0.7551 -0.6651
12133TIP3    H257815   0.630   0.408  14.668  0.1797  0.8443  0.1264
12134TIP3   OH257816   4.531   6.229   2.708 -0.0651  0.0890 -0.3465
12134TIP3    H157817   4.444   6.231   2.667 -0.1493 -1.8073 -0.2865
12134TIP3    H257818   4.523   6.165   2.779  1.4302 -0.2221 -0.4411
12135TIP3   OH257819   6.090   4.461  14.681  0.1100 -0.0349  0.5797
12135TIP3    H157820   6.182   4.463  14.655  0.3101 -0.6225  1.2411
12135TIP3    H257821   6.043   4.444  14.599  0.5430  0.8232  0.1410
12136TIP3   OH257822   2.769   6.253  13.764  0.5959  0.0727  0.4651
12136TIP3    H157823   2.688   6.304  13.768  0.8487  0.4752  0.5248
12136TIP3    H257824   2.768   6.215  13.676  0.4107  0.1886  0.4151
12137TIP3   OH257825   2.453   0.334   5.342 -0.6491  0.0917  0.2552
12137TIP3    H157826   2.491   0.396   5.404  2.0035  0.1349 -1.3158
12137TIP3    H257827   2.440   0.386   5.262 -0.8218 -0.7551 -0.2721
12138TIP3   OH257828   0.739   4.756  14.025 -0.0930 -0.4102  0.4901
12138TIP3    H157829   0.816   4.760  14.083  0.6972  1.2494 -0.6359
12138TIP3    H257830   0.670   4.799  14.074 -0.4168 -2.1343  1.6175
12139TIP3   OH257831   4.556   0.103  14.957  0.0394  0.7168 -0.1797
12139TIP3    H157832   4.513   0.045  14.895 -0.2270  0.3856  0.3059
12139TIP3    H257833   4.529   0.191  14.930  1.3925  0.7006 -1.6312
12140TIP3   OH257834   1.187   4.306   3.920  0.2364  0.4846 -0.1822
12140TIP3    H157835   1.186   4.373   3.852 -1.0496  1.5642  0.8676
12140TIP3    H257836   1.276   4.308   3.956  0.7444  0.3146 -1.4178
12141TIP3   OH257837   2.663   2.459  13.164  0.2258  0.1051 -0.5749
12141TIP3    H157838   2.668   2.370  13.128 -0.4687 -0.3289  0.3827
12141TIP3    H257839   2.620   2.510  13.096 -0.9928 -0.6847 -0.4128
12142TIP3   OH257840   5.508   6.632   1.328 -0.3356  0.7068  0.0611
12142TIP3    H157841   5.582   6.629   1.388  1.2742  2.2812 -1.8020
12142TIP3    H257842   5.501   6.543   1.293 -0.2950  0.1861  1.3479
12143TIP3   OH257843   1.829   3.862  15.524 -0.1256 -0.3239  0.2621
12143TIP3    H157844   1.893   3.832  15.458 -0.0639 -0.6796  0.4812
12143TIP3    H257845   1.797   3.945  15.489 -0.5034 -0.7794 -0.5001
12144TIP3   OH257846   4.282   5.642   2.307  0.4007  0.1559 -0.1861
12144TIP3    H157847   4.198   5.686   2.320 -0.5837 -1.0319 -2.2308
12144TIP3    H257848   4.314   5.676   2.223  2.1771  0.9085  0.7706
12145TIP3   OH257849   1.539   1.039   0.293 -0.2794  0.4775 -0.1653
12145TIP3    H157850   1.626   1.077   0.283 -0.7316  1.0008 -2.4009
12145TIP3    H257851   1.518   1.004   0.206 -3.7175  3.4144 -0.6262
12146TIP3   OH257852   6.315   1.395  12.887 -0.0685 -0.1847 -0.1059
12146TIP3    H157853   6.350   1.482  12.904 -0.8702 -0.3386  2.3994
12146TIP3    H257854   6.384   1.352  12.836 -0.3635  2.4158 -2.8583
12147TIP3   OH257855   6.241   2.136  14.876 -0.0916  0.1121 -0.0371
12147TIP3    H157856   6.233   2.231  14.884  2.1521  0.2870  0.5011
12147TIP3    H257857   6.240   2.104  14.966  2.5653 -0.0226 -0.0089
12148TIP3   OH257858   2.646   0.912  12.078 -0.2189 -0.2448 -0.4800
12148TIP3    H157859   2.647   0.936  11.985 -0.5600  0.4524 -0.3097
12148TIP3    H257860   2.698   0.980  12.121  2.3543 -2.1328 -0.5078
12149TIP3   OH257861   3.383   3.626  16.775 -0.0479  0.3015 -0.0849
12149TIP3    H157862   3.365   3.653  16.866 -3.5208  1.9635 -1.1544
12149TIP3    H257863   3.351   3.536  16.770  2.2303 -0.5875  0.8867
12150TIP3   OH257864   5.465   3.052   1.569  0.0832 -0.1420 -0.1280
12150TIP3    H157865   5.467   3.131   1.623 -0.8986  0.2860 -0.7030
12150TIP3    H257866   5.543   3.003   1.595  1.3906  1.6187 -0.7006
12151TIP3   OH257867   4.410   4.239  12.359 -0.3298  0.4702 -0.4663
12151TIP3    H157868   4.437   4.285  12.280 -0.8283 -1.0764 -1.5652
12151TIP3    H257869   4.478   4.173  12.372 -0.1287  0.8726  0.5353
12152TIP3   OH257870   0.902   6.393   4.031 -0.4108 -0.2411  0.1822
12152TIP3    H157871   0.994   6.417   4.016 -0.6700 -0.5494 -2.0462
12152TIP3    H257872   0.903   6.298   4.036 -0.7280 -0.2927 -0.7284
12153TIP3   OH257873   6.355   0.585  12.554  0.4295  0.0115  0.0104
12153TIP3    H157874   6.277   0.628  12.590 -1.0382 -2.1285 -0.5202
12153TIP3    H257875   6.346   0.494  12.580  1.7987 -0.6324 -1.7056
12154TIP3   OH257876   2.253   0.805  11.099  0.2993 -0.1807 -0.1234
12154TIP3    H157877   2.322   0.752  11.059 -0.1739 -1.1697  0.3616
12154TIP3    H257878   2.179   0.745  11.109  0.2788  0.1435  1.8829
12155TIP3   OH257879   5.256   6.302  12.447 -0.0032  0.3793 -0.0906
12155TIP3    H157880   5.220   6.227  12.400  0.3422 -0.0707  0.3654
12155TIP3    H257881   5.201   6.310  12.525  1.6242 -1.0533  1.2295
12156TIP3   OH257882   1.216   2.060  15.905 -0.3233  0.4737  0.4019
12156TIP3    H157883   1.131   2.018  15.918 -0.3449 -0.1043 -1.4367
12156TIP3    H257884   1.253   2.016  15.828  0.8538  1.9336  0.1046
12157TIP3   OH257885   2.380   2.211   1.893 -0.0097 -0.0470 -0.0488
12157TIP3    H157886   2.375   2.260   1.976 -0.8167  0.2643 -0.2751
12157TIP3    H257887   2.363   2.121   1.918  0.6144 -0.0907  0.2464
12158TIP3   OH257888   5.101   4.248   5.856  0.2882 -0.0737  0.2722
12158TIP3    H157889   5.179   4.294   5.828 -0.7825  0.4487 -1.9729
12158TIP3    H257890   5.129   4.157   5.865  0.6441 -0.3164 -2.8288
12159TIP3   OH257891   2.580   5.211   2.354 -0.4938  0.1903 -0.3516
12159TIP3    H157892   2.597   5.121   2.325  0.4838  0.0266  0.7087
12159TIP3    H257893   2.665   5.245   2.381 -1.0336  1.0708  0.2863
12160TIP3   OH257894   1.652   6.387   4.571 -0.2582 -0.1184 -0.5280
12160TIP3    H157895   1.701   6.465   4.547 -0.6634 -0.2504 -1.8187
12160TIP3    H257896   1.692   6.357   4.653  1.1408  0.3611 -1.0318
12161TIP3   OH257897   5.088   4.127  15.491 -0.0726 -0.4882  0.0028
12161TIP3    H157898   5.010   4.094  15.446  0.3753 -0.9750 -0.4211
12161TIP3    H257899   5.095   4.218  15.460  0.7478 -1.0878 -1.6391
12162TIP3   OH257900   2.234   2.210   0.728 -0.5504  0.7875  0.1485
12162TIP3    H157901   2.150   2.188   0.768 -0.0896  2.1174  1.9136
12162TIP3    H257902   2.294   2.141   0.758 -1.1197 -0.4782 -1.5706
12163TIP3   OH257903   6.725   3.653   1.777  0.7270 -0.0652  0.1161
12163TIP3    H157904   6.672   3.695   1.710 -0.1667 -1.1558  0.1229
12163TIP3    H257905   6.662   3.627   1.845  1.5027  0.2517  0.9778
12164TIP3   OH257906   0.382   3.687  10.864  0.0218  0.6194  0.4017
12164TIP3    H157907   0.450   3.754  10.861  1.6417 -1.0074 -1.7902
12164TIP3    H257908   0.321   3.716  10.932  1.3885  3.5741  0.4211
12165TIP3   OH257909   1.934   0.363   1.599  0.5299 -0.3375  0.0398
12165TIP3    H157910   2.019   0.365   1.556  0.4679 -0.9462 -0.1147
12165TIP3    H257911   1.871   0.374   1.528  0.3629 -2.7453 -0.2585
12166TIP3   OH257912   2.100   3.312   4.237 -0.0003 -0.1085  0.2262
12166TIP3    H157913   2.133   3.323   4.326 -0.7990  1.6408  0.3205
12166TIP3    H257914   2.089   3.401   4.204 -2.4462 -0.6750 -0.6038
12167TIP3   OH257915   6.483   3.104  14.607 -0.2650  0.8862  0.3338
12167TIP3    H157916   6.444   3.191  14.597  1.4559  1.6315  0.0509
12167TIP3    H257917   6.536   3.092  14.529  1.8412  0.8107  1.7283
12168TIP3   OH257918   3.989   6.015  10.336  0.6318 -0.3097 -0.7479
12168TIP3    H157919   4.072   6.039  10.377  0.8196 -1.1826 -0.6142
12168TIP3    H257920   4.013   5.961  10.261  0.1618 -1.3908 -0.1479
12169TIP3   OH257921   1.511   6.260  15.911 -0.6113 -0.4574 -0.1737
12169TIP3    H157922   1.486   6.169  15.925  0.2542 -0.5922  0.5966
12169TIP3    H257923   1.607   6.257  15.906 -0.6360  0.2891 -1.0418
12170TIP3   OH257924   5.066   4.774   5.530  0.5288 -0.0558  0.7105
12170TIP3    H157925   5.059   4.678   5.528 -1.1561  0.0756 -0.4382
12170TIP3    H257926   5.052   4.801   5.440 -1.2663  1.4244  1.4092
12171TIP3   OH257927   0.719   4.846   5.920 -0.4388  0.4268 -0.1748
12171TIP3    H157928   0.641   4.812   5.876 -0.9378  1.6440 -0.2679
12171TIP3    H257929   0.700   4.939   5.932  0.2678  0.3798  1.3925
12172TIP3   OH257930   2.621   1.155  14.638  0.6655 -0.1236  0.1377
12172TIP3    H157931   2.698   1.098  14.641  1.2708  0.6918  0.0687
12172TIP3    H257932   2.656   1.243  14.649 -0.1583  0.3323 -0.8726
12173TIP3   OH257933   5.627   2.768   3.996 -0.1917  0.1827 -0.4136
12173TIP3    H157934   5.713   2.761   3.954 -0.1506 -1.3977 -0.1139
12173TIP3    H257935   5.583   2.685   3.974 -0.7470 -0.0137  1.3423
12174TIP3   OH257936   1.083   3.486  15.902  0.3144  0.5767 -0.1161
12174TIP3    H157937   1.062   3.395  15.920 -0.7482  0.6791 -0.7575
12174TIP3    H257938   1.154   3.508  15.963 -1.7696  0.3279  2.5016
12175TIP3   OH257939   6.090   0.996  16.587  0.6670  0.1964 -0.1189
12175TIP3    H157940   6.025   1.067  16.585  1.8613  1.3048 -0.3790
12175TIP3    H257941   6.155   1.021  16.521  2.2907  0.0332  1.3904
12176TIP3   OH257942   2.772   3.836  13.189  0.1640 -0.1264  0.2163
12176TIP3    H157943   2.773   3.809  13.280  0.2424 -0.0929  0.2268
12176TIP3    H257944   2.697   3.895  13.181 -0.7362 -1.2846 -0.0721
12177TIP3   OH257945   2.217   4.322   2.178 -0.5666  0.7838  0.2140
12177TIP3    H157946   2.250   4.239   2.143  0.6588  1.0849  0.6235
12177TIP3    H257947   2.170   4.362   2.105  0.0904  0.3992 -0.4263
12178TIP3   OH257948   2.795   6.152   1.515 -0.3552 -0.1111 -0.5727
12178TIP3    H157949   2.825   6.078   1.463 -0.1810  0.0056 -0.6355
12178TIP3    H257950   2.701   6.135   1.528 -0.5954  0.3113 -1.6779
12179TIP3   OH257951   1.800   6.523  15.217  0.4181 -0.1745  0.2134
12179TIP3    H157952   1.830   6.490  15.302  0.1151  0.2224  0.4758
12179TIP3    H257953   1.795   6.618  15.229  3.2890  0.2268 -1.1584
12180TIP3   OH257954   3.356   1.670  15.448 -0.1384  0.3884  0.0117
12180TIP3    H157955   3.311   1.604  15.500 -0.5512 -0.1798 -1.0551
12180TIP3    H257956   3.412   1.620  15.388 -0.1330  1.0148 -0.5108
12181TIP3   OH257957   4.644   4.842  13.612  0.8057 -0.3310 -0.0296
12181TIP3    H157958   4.626   4.785  13.537 -0.5954 -0.0387  0.0733
12181TIP3    H257959   4.587   4.810  13.682 -0.1660  1.3009 -0.0334
12182TIP3   OH257960   6.406   6.285  13.193  0.1236 -0.6524  0.1941
12182TIP3    H157961   6.454   6.211  13.230  0.8293 -0.7379 -0.8607
12182TIP3    H257962   6.462   6.315  13.120 -0.4337  0.5423  0.2554
12183TIP3   OH257963   1.280   3.788  10.513 -0.2878  0.4890  0.5019
12183TIP3    H157964   1.365   3.757  10.547  1.1481  2.6598 -1.0089
12183TIP3    H257965   1.256   3.724  10.447  0.3269  0.0133  0.7324
12184TIP3   OH257966   1.461   6.057  12.981 -0.0909 -0.5686  0.2981
12184TIP3    H157967   1.440   6.007  13.060  2.4175 -0.9521  0.7495
12184TIP3    H257968   1.546   6.024  12.953 -0.0596  0.9272 -1.4786
12185TIP3   OH257969   2.533   6.323   1.792 -0.4000 -0.0793  0.4240
12185TIP3    H157970   2.622   6.342   1.820 -0.4467 -0.4342  0.8246
12185TIP3    H257971   2.478   6.362   1.860 -0.5895  1.1692 -0.4230
12186TIP3   OH257972   1.743   1.041   4.793 -0.1996 -0.0390  0.3953
12186TIP3    H157973   1.767   1.001   4.877 -1.1028 -2.4942 -0.4507
12186TIP3    H257974   1.761   0.973   4.728 -2.4385  0.6639 -1.0484
12187TIP3   OH257975   2.678   0.503  12.694  0.4179  0.1313  0.6870
12187TIP3    H157976   2.624   0.571  12.653 -2.4339 -0.9726  2.4647
12187TIP3    H257977   2.765   0.542  12.700 -0.0090  1.7981 -2.6996
12188TIP3   OH257978   5.582   1.129   4.016 -0.3204 -0.0004  0.1781
12188TIP3    H157979   5.493   1.165   4.027 -0.3698 -0.0615 -0.0102
12188TIP3    H257980   5.572   1.036   4.033 -0.3174 -0.0269  0.0373
12189TIP3   OH257981   5.976   5.170   4.734 -0.4503  0.6786  0.3002
12189TIP3    H157982   5.927   5.136   4.659  1.3223  1.0211 -1.0673
12189TIP3    H257983   5.980   5.265   4.719  1.6479  0.5341 -0.3047
12190TIP3   OH257984   0.781   2.290  13.399  0.0824 -0.4180 -0.0063
12190TIP3    H157985   0.776   2.285  13.303 -1.8291  0.1541  0.0377
12190TIP3    H257986   0.760   2.202  13.429  1.3357 -0.7643 -0.1177
12191TIP3   OH257987   0.895   6.028   3.402  0.7512  0.1388 -0.1392
12191TIP3    H157988   0.969   6.010   3.344 -0.0850 -0.9727 -0.8566
12191TIP3    H257989   0.823   6.050   3.344  0.5342  1.3332  0.5699
12192TIP3   OH257990   0.751   0.814   0.946 -0.2830 -0.4673  0.1505
12192TIP3    H157991   0.845   0.819   0.964  0.2749 -0.3537 -2.6294
12192TIP3    H257992   0.742   0.739   0.888 -1.6920  0.4677 -0.8601
12193TIP3   OH257993   1.129   3.453   2.164  0.0509  0.4910  0.3629
12193TIP3    H157994   1.061   3.520   2.170 -0.0872  0.2284  2.1807
12193TIP3    H257995   1.207   3.500   2.136 -0.2597  1.2519  0.7554
12194TIP3   OH257996   5.232   2.953   3.627 -0.3255  1.0592  0.0279
12194TIP3    H157997   5.155   2.943   3.684  0.3412  1.1450  0.9471
12194TIP3    H257998   5.276   3.031   3.661 -0.0743  1.2787 -0.7946
12195TIP3   OH257999   3.764   2.109   5.317  0.3022  0.2420 -0.5038
12195TIP3    H158000   3.727   2.046   5.378  0.6316 -0.5505 -1.1186
12195TIP3    H258001   3.772   2.190   5.368  1.8744 -0.7710  0.8856
12196TIP3   OH258002   6.638   3.559   3.419 -0.1208 -0.6294  0.1531
12196TIP3    H158003   6.646   3.536   3.327  2.0614 -2.1361  0.6817
12196TIP3    H258004   6.690   3.639   3.429 -1.7749  0.5251 -0.2338
12197TIP3   OH258005   0.415   0.855   2.414 -0.2865 -0.1466 -0.5777
12197TIP3    H158006   0.453   0.768   2.422  0.5380  0.2135 -0.5344
12197TIP3    H258007   0.443   0.886   2.328 -0.4997  0.1151 -0.5536
12198TIP3   OH258008   3.616   1.851  12.575 -0.3377  0.7294 -0.1370
12198TIP3    H158009   3.555   1.924  12.584 -2.6422 -0.9359 -1.8660
12198TIP3    H258010   3.676   1.878  12.506  0.2517  1.8903  0.7926
12199TIP3   OH258011   6.181   5.880  13.374  0.7327  0.1996  0.5460
12199TIP3    H158012   6.252   5.835  13.330 -0.2038 -0.5402 -0.2242
12199TIP3    H258013   6.119   5.902  13.305 -0.2832 -0.1035  1.3388
12200TIP3   OH258014   4.173   2.954   6.566  0.2487  0.1112  0.1378
12200TIP3    H158015   4.257   2.999   6.558  1.6822 -2.5099 -0.0808
12200TIP3    H258016   4.110   3.012   6.522  1.7481  2.5251  1.0966
12201TIP3   OH258017   5.908   4.129   1.344  0.2324 -0.1886 -0.3713
12201TIP3    H158018   5.836   4.107   1.286  0.7981  0.5474 -1.3554
12201TIP3    H258019   5.925   4.222   1.329  1.5010 -0.3958 -0.2884
12202TIP3   OH258020   2.910   3.733   3.763 -0.5768  0.1233  0.0498
12202TIP3    H158021   2.902   3.794   3.689  0.0078  0.2012  0.0531
12202TIP3    H258022   2.842   3.667   3.746  0.7281 -0.8451 -1.4928
12203TIP3   OH258023   0.876   0.654  11.960  0.1439  0.3575  0.1563
12203TIP3    H158024   0.850   0.716  11.893  0.9591  0.6818  0.1287
12203TIP3    H258025   0.964   0.683  11.986  1.5890 -2.2698 -1.6369
12204TIP3   OH258026   3.851   4.344   1.365 -0.5187 -0.5245 -0.3014
12204TIP3    H158027   3.930   4.367   1.414 -0.3355 -0.0438 -0.8120
12204TIP3    H258028   3.779   4.378   1.418 -0.2650  0.9215 -0.8647
12205TIP3   OH258029   4.945   2.646   2.736  0.7209 -0.0113 -0.6035
12205TIP3    H158030   5.011   2.708   2.705  0.5287  0.7765  0.5105
12205TIP3    H258031   4.897   2.620   2.657  1.9192 -0.0739 -1.3232
12206TIP3   OH258032   5.087   4.085   3.168  0.1043 -0.1622  0.7810
12206TIP3    H158033   5.131   4.081   3.253  1.2472 -0.3675  0.1799
12206TIP3    H258034   5.143   4.035   3.109  0.3518  1.6283 -0.5409
12207TIP3   OH258035   3.290   1.902  15.329  0.0730 -0.2536 -0.2429
12207TIP3    H158036   3.328   1.825  15.370 -1.1629 -1.4599 -1.3248
12207TIP3    H258037   3.202   1.908  15.365  0.1221  0.6041 -0.2437
12208TIP3   OH258038   6.166   2.647  12.066  0.2702 -0.6157  0.6511
12208TIP3    H158039   6.117   2.717  12.022  0.9967  0.6419  1.8221
12208TIP3    H258040   6.102   2.577  12.079 -0.7519  0.2870  0.5185
12209TIP3   OH258041   5.484   0.215  11.520  0.2335 -0.1589 -0.4921
12209TIP3    H158042   5.394   0.225  11.553  0.3967  3.5502 -0.9670
12209TIP3    H258043   5.476   0.157  11.445 -1.7694  0.0992 -0.5024
12210TIP3   OH258044   2.268   0.352   4.195  0.2238  0.1983 -0.0005
12210TIP3    H158045   2.234   0.302   4.269  0.1490 -0.4846 -0.4869
12210TIP3    H258046   2.283   0.440   4.230 -0.1293 -0.0287  0.7335
12211TIP3   OH258047   1.379   4.023   3.455 -0.0109 -0.1080 -0.2402
12211TIP3    H158048   1.290   4.048   3.477  0.0066 -0.3224  0.0735
12211TIP3    H258049   1.369   3.963   3.380 -0.2315 -1.2844  0.7090
12212TIP3   OH258050   0.634   0.428  13.172  0.2513  0.3929  0.1434
12212TIP3    H158051   0.597   0.431  13.260 -1.2504 -2.1349 -0.3755
12212TIP3    H258052   0.562   0.399  13.116  2.3872 -2.5281 -1.2040
12213TIP3   OH258053   1.674   0.674   5.975 -0.1242  0.3312  0.6658
12213TIP3    H158054   1.624   0.592   5.975  0.2348  0.0563  3.0616
12213TIP3    H258055   1.752   0.654   5.923  0.0912 -0.9632  1.4540
12214TIP3   OH258056   0.355   4.457  15.448 -0.3851 -0.0315 -0.3284
12214TIP3    H158057   0.440   4.421  15.473 -1.0535  0.5588  3.1497
12214TIP3    H258058   0.372   4.550  15.431 -0.2239 -0.0308 -0.1665
12215TIP3   OH258059   4.365   2.095   4.473  0.2145  0.0739 -0.0074
12215TIP3    H158060   4.460   2.100   4.478  0.2135  0.3401 -0.2458
12215TIP3    H258061   4.334   2.125   4.559  0.3727 -0.9101  0.3978
12216TIP3   OH258062   3.624   3.153   3.217  0.2250  0.0426 -0.0769
12216TIP3    H158063   3.578   3.235   3.233  1.0055  0.4635  0.0146
12216TIP3    H258064   3.714   3.170   3.245  0.2886 -0.9819  0.3776
12217TIP3   OH258065   0.259   6.116  16.265  0.2695 -0.2305  0.3411
12217TIP3    H158066   0.345   6.156  16.282 -0.5055  1.7961 -0.3699
12217TIP3    H258067   0.279   6.024  16.245  2.1898  0.0151  1.0359
12218TIP3   OH258068   4.782   4.656   1.104 -1.0416 -0.3775 -0.3156
12218TIP3    H158069   4.847   4.620   1.044 -2.0111 -0.4188 -1.3527
12218TIP3    H258070   4.832   4.716   1.160 -0.1427 -0.2469 -1.2424
12219TIP3   OH258071   2.238   2.450  11.633  0.3043  0.3397 -0.0050
12219TIP3    H158072   2.284   2.366  11.644 -0.8325 -0.3857 -0.7410
12219TIP3    H258073   2.285   2.493  11.561 -0.0132 -0.3055 -0.6086
12220TIP3   OH258074   3.481   0.054  16.468  0.3632  0.0582 -0.1606
12220TIP3    H158075   3.553   0.115  16.484  0.2924 -0.7602  3.6268
12220TIP3    H258076   3.523  -0.025  16.435  1.0156  0.1564  0.4388
12221TIP3   OH258077   3.775   0.930  16.669 -0.2545 -0.2928  0.6907
12221TIP3    H158078   3.805   0.982  16.744  1.1057 -2.0049  1.3745
12221TIP3    H258079   3.850   0.927  16.610 -0.7622 -0.3543  0.0501
12222TIP3   OH258080   3.012   5.919   3.630 -0.3763 -0.3082 -0.8137
12222TIP3    H158081   2.963   5.917   3.712 -0.5805  1.8268 -0.8743
12222TIP3    H258082   2.961   5.975   3.572  1.2526  0.5663 -1.4306
12223TIP3   OH258083   0.696   3.224  14.691 -0.2110 -0.4300 -0.2262
12223TIP3    H158084   0.781   3.266  14.677 -0.2342 -0.3289 -0.0623
12223TIP3    H258085   0.642   3.255  14.618 -0.3821  0.2305  0.1733
12224TIP3   OH258086   2.333   4.833  13.874 -0.2527  0.0425 -0.4466
12224TIP3    H158087   2.334   4.824  13.779 -1.0231  2.2765 -0.6935
12224TIP3    H258088   2.245   4.809  13.900 -0.5809  1.1188 -0.5133
12225TIP3   OH258089   1.164   2.597  16.882  0.3337 -0.2303  0.6894
12225TIP3    H158090   1.177   2.568  16.973  0.1124  0.8328  1.0723
12225TIP3    H258091   1.170   2.517  16.830  0.6802 -0.8199  1.6251
12226TIP3   OH258092   2.377   5.129   5.098  0.3407 -0.5941 -0.5893
12226TIP3    H158093   2.409   5.046   5.065 -1.1692 -1.7896  0.8565
12226TIP3    H258094   2.331   5.107   5.179  0.8111  1.7755  0.3928
12227TIP3   OH258095   5.490   6.378   2.717 -0.1825 -0.2520  0.1530
12227TIP3    H158096   5.410   6.371   2.768 -0.6741 -2.2133 -0.8290
12227TIP3    H258097   5.463   6.419   2.635  0.0242  0.0405  0.2291
12228TIP3   OH258098   5.557   4.704  15.000  0.1071 -0.6388 -0.0879
12228TIP3    H158099   5.528   4.739  14.916  0.0902  0.5377  0.3908
12228TIP3    H258100   5.644   4.668  14.983 -0.8292 -2.4828 -1.1095
12229TIP3   OH258101   5.254   5.347  15.977 -0.5220 -0.0455  0.2400
12229TIP3    H158102   5.244   5.322  16.068 -0.6599  1.6322  0.7011
12229TIP3    H258103   5.165   5.344  15.941 -0.5788  0.1078  0.3705
12230TIP3   OH258104   4.215   3.865   4.584  0.1636  0.2138  0.0951
12230TIP3    H158105   4.130   3.864   4.629 -0.6276 -0.6439 -1.3788
12230TIP3    H258106   4.275   3.906   4.646 -1.6099  2.0273  0.6639
12231TIP3   OH258107   3.747   4.715   1.173 -0.4708  0.2558 -0.6425
12231TIP3    H158108   3.782   4.673   1.251 -1.5470 -2.4955 -1.5488
12231TIP3    H258109   3.655   4.732   1.193  0.0127  2.4897 -0.1967
12232TIP3   OH258110   2.983   4.214   2.873 -0.2266  0.0220  0.4789
12232TIP3    H158111   2.974   4.264   2.954 -1.1023  0.4557  0.1262
12232TIP3    H258112   2.894   4.209   2.839  0.1866  0.1724 -0.6499
12233TIP3   OH258113   5.010   0.948  13.236  0.4343 -0.5375 -0.5376
12233TIP3    H158114   5.017   0.954  13.140 -0.0134  1.3390 -0.4786
12233TIP3    H258115   4.937   0.888  13.250 -0.6460  0.5191 -1.4265
12234TIP3   OH258116   2.609   5.546   0.005  0.3457 -0.3678  0.1778
12234TIP3    H158117   2.608   5.635  -0.030 -0.0985 -0.9168 -1.2869
12234TIP3    H258118   2.682   5.503  -0.042  1.3379 -0.4402  1.7588
12235TIP3   OH258119   1.773   6.651   0.244  0.1583  1.3751  0.4550
12235TIP3    H158120   1.761   6.705   0.166  0.4045 -0.7981 -1.1128
12235TIP3    H258121   1.861   6.614   0.234 -0.7189 -0.8031  0.5473
12236TIP3   OH258122   0.583   4.674  13.582 -0.6138  0.2030  0.3416
12236TIP3    H158123   0.614   4.751  13.630  0.2859  0.4574 -0.6354
12236TIP3    H258124   0.507   4.643  13.633  1.5335 -0.7637  3.1055
12237TIP3   OH258125   1.435   6.631  14.539 -0.0224 -0.1366 -0.9146
12237TIP3    H158126   1.495   6.705  14.547 -0.5931  0.2213  0.2709
12237TIP3    H258127   1.395   6.623  14.626  0.1412 -1.9394 -0.9872
12238TIP3   OH258128   6.482   4.265  13.672 -0.2388  0.2822 -0.0405
12238TIP3    H158129   6.480   4.195  13.738  0.6800  0.1534 -0.1373
12238TIP3    H258130   6.540   4.331  13.710 -1.2838  1.0885  0.1455
12239TIP3   OH258131   6.456   1.206  14.383  0.0807 -0.5265 -0.2002
12239TIP3    H158132   6.521   1.170  14.444 -0.2755 -0.7539  0.0512
12239TIP3    H258133   6.434   1.292  14.420  0.4335 -0.3421 -0.4263
12240TIP3   OH258134   6.429   0.684  12.948  0.4945 -0.5794 -0.2828
12240TIP3    H158135   6.517   0.650  12.930  1.4831 -0.4970  3.8677
12240TIP3    H258136   6.442   0.778  12.961  0.0520 -0.7872  1.7473
12241TIP3   OH258137   2.651   4.419  13.521 -0.5488 -0.1028  0.5854
12241TIP3    H158138   2.710   4.489  13.494 -3.3236  2.2686  0.3832
12241TIP3    H258139   2.647   4.425  13.616  0.7147 -1.3118  0.7375
12242TIP3   OH258140   2.583   0.676   4.968 -0.0882 -0.7623  0.5150
12242TIP3    H158141   2.567   0.765   5.001  1.9557 -0.1517 -0.0117
12242TIP3    H258142   2.521   0.621   5.014 -3.1877  1.2984 -0.9908
12243TIP3   OH258143   2.049   3.404  13.807 -0.1562  1.1006  0.1860
12243TIP3    H158144   2.059   3.337  13.874 -0.6421  1.4362  0.5984
12243TIP3    H258145   2.053   3.487  13.854  0.6328  1.3770 -0.3480
12244TIP3   OH258146   1.064   5.364  14.959  0.0137 -0.1217 -0.4533
12244TIP3    H158147   1.005   5.318  15.019  1.0114 -1.8695 -0.7668
12244TIP3    H258148   1.091   5.442  15.007 -0.8932 -0.3897  0.5187
12245TIP3   OH258149   6.631   3.462  15.161  0.1059 -0.5776  0.1190
12245TIP3    H158150   6.719   3.465  15.199  0.3967 -1.2796 -0.4777
12245TIP3    H258151   6.577   3.512  15.221  1.3998  1.9977 -0.7801
12246TIP3   OH258152   3.854   1.527  11.480  0.0213 -0.1613  0.2562
12246TIP3    H158153   3.763   1.553  11.497 -0.1915 -0.4983 -0.3896
12246TIP3    H258154   3.904   1.607  11.495 -0.4912  0.2810 -0.3491
12247TIP3   OH258155   1.152   4.494  11.142  0.1679  0.0054 -0.1610
12247TIP3    H158156   1.107   4.410  11.138 -0.9667  0.5147  1.5949
12247TIP3    H258157   1.142   4.530  11.053 -0.6286 -1.0473 -0.5081
12248TIP3   OH258158   3.825   5.134   2.521 -0.4790 -0.1702 -0.6488
12248TIP3    H158159   3.868   5.215   2.548 -2.9717  1.7662 -2.1589
12248TIP3    H258160   3.893   5.084   2.476  1.1113  1.0677  0.3183
12249TIP3   OH258161   6.269   5.884  10.630 -0.0099  0.1551  0.5239
12249TIP3    H158162   6.294   5.819  10.565  0.5557 -0.0105  0.9007
12249TIP3    H258163   6.253   5.834  10.710 -0.4346  0.3831  0.5804
12250TIP3   OH258164   2.090   2.996  14.521 -0.0991 -0.3891  0.3137
12250TIP3    H158165   2.166   3.053  14.513 -0.9599  0.8274  0.6599
12250TIP3    H258166   2.090   2.968  14.613 -1.2912  1.3734  0.8753
12251TIP3   OH258167   5.070   0.528   6.407  0.2000 -0.2414  0.4965
12251TIP3    H158168   5.010   0.476   6.461 -0.0761  0.8665  1.2809
12251TIP3    H258169   5.087   0.474   6.330 -0.5765 -1.2193  1.0049
12252TIP3   OH258170   4.699   5.144   4.286  0.0684 -0.2633  0.1613
12252TIP3    H158171   4.655   5.126   4.203 -3.7422  1.4716  1.6948
12252TIP3    H258172   4.751   5.223   4.269 -0.9870  0.3034 -0.5109
12253TIP3   OH258173   0.702   2.923   0.774  0.4297  0.4700 -0.4620
12253TIP3    H158174   0.685   3.002   0.824 -0.4118 -0.3272  0.5439
12253TIP3    H258175   0.615   2.892   0.748  0.6588 -0.7729  0.1928
12254TIP3   OH258176   2.190   6.098  13.974  0.8935 -0.7046 -0.0006
12254TIP3    H158177   2.215   6.163  13.909  0.6141 -1.5171 -0.9303
12254TIP3    H258178   2.096   6.087  13.964  0.5189  0.5565  1.8477
12255TIP3   OH258179   2.789   6.116   3.625 -0.4953 -0.2087 -0.1614
12255TIP3    H158180   2.782   6.069   3.542 -0.1713  1.1352 -0.9610
12255TIP3    H258181   2.706   6.099   3.669 -1.0853 -0.0797 -1.2169
12256TIP3   OH258182   0.054   3.821  14.734  0.3007 -0.5738  0.3416
12256TIP3    H158183  -0.004   3.803  14.660  2.7138 -0.4096 -1.6594
12256TIP3    H258184   0.022   3.765  14.804 -1.2593 -1.6932 -1.2360
12257TIP3   OH258185   3.786   4.192   5.470  0.5414 -0.0454  0.9709
12257TIP3    H158186   3.794   4.096   5.469 -0.3215 -0.1146 -0.8945
12257TIP3    H258187   3.843   4.222   5.400 -1.3474  0.5929 -0.3541
12258TIP3   OH258188   1.683   3.095   5.390 -0.3379  0.1190 -0.0531
12258TIP3    H158189   1.682   3.106   5.485 -1.2822 -0.7546  0.0508
12258TIP3    H258190   1.596   3.123   5.362  0.0319  0.6297 -0.6949
12259TIP3   OH258191   3.491   0.286   2.957 -0.3761  0.1411 -0.3896
12259TIP3    H158192   3.561   0.308   3.019 -0.9110 -0.5705  0.4708
12259TIP3    H258193   3.413   0.329   2.993 -0.4442  0.7236 -1.2117
12260TIP3   OH258194   3.455   4.281  15.088  0.0474 -0.7076 -0.0120
12260TIP3    H158195   3.496   4.317  15.167  0.2965  2.3578 -1.4353
12260TIP3    H258196   3.372   4.329  15.080  0.1402 -0.8037 -1.7284
12261TIP3   OH258197   0.204   3.994  16.516 -0.0029 -0.1467 -0.5846
12261TIP3    H158198   0.109   4.000  16.522 -0.0350  0.2328 -1.4306
12261TIP3    H258199   0.235   4.020  16.603 -0.5814  1.7300 -0.9242
12262TIP3   OH258200   3.235   2.022  10.656  0.0232  0.5885  0.4453
12262TIP3    H158201   3.159   2.051  10.707 -0.4639 -1.4398  0.9181
12262TIP3    H258202   3.310   2.044  10.712 -0.1591  2.7815 -0.1109
12263TIP3   OH258203   5.398   4.095   5.944 -0.8623 -0.2060 -0.3035
12263TIP3    H158204   5.458   4.021   5.931 -0.2111  0.4737 -1.1706
12263TIP3    H258205   5.451   4.162   5.986 -1.1073  0.2802 -0.7786
12264TIP3   OH258206   0.805   0.472  11.173 -0.2331  0.2360  0.0620
12264TIP3    H158207   0.891   0.468  11.130  0.6763  1.7832  1.6848
12264TIP3    H258208   0.753   0.530  11.118 -0.5891 -1.4871 -1.4701
12265TIP3   OH258209   0.702   1.599   0.317  0.2157  0.7512 -0.4353
12265TIP3    H158210   0.744   1.668   0.369 -1.7981  1.2121  0.6320
12265TIP3    H258211   0.623   1.640   0.283  0.0000 -0.4564 -1.4129
12266TIP3   OH258212   0.421   4.668   5.282  0.2807 -0.0192 -0.6303
12266TIP3    H158213   0.403   4.645   5.191 -0.8359  2.4791 -1.0821
12266TIP3    H258214   0.511   4.699   5.282 -0.1779  1.3531 -1.1895
12267TIP3   OH258215   4.668   4.275   6.198 -0.3188 -0.6501 -0.0877
12267TIP3    H158216   4.735   4.340   6.222 -0.4564 -0.5055 -0.0898
12267TIP3    H258217   4.707   4.191   6.219  0.6294 -0.6886 -1.8757
12268TIP3   OH258218   6.265   6.479   2.299  0.5755  0.5150 -0.3107
12268TIP3    H158219   6.227   6.541   2.237  2.4188  1.7168 -0.2883
12268TIP3    H258220   6.330   6.430   2.247  0.4197 -0.1344  0.1043
12269TIP3   OH258221   5.430   5.241   4.193  0.0927  0.2460  0.2652
12269TIP3    H158222   5.401   5.332   4.185  0.5097  0.3822  0.2671
12269TIP3    H258223   5.392   5.211   4.275  1.6405  1.0666  1.3105
12270TIP3   OH258224   1.496   4.494  17.083 -0.2994 -0.2562  0.2104
12270TIP3    H158225   1.531   4.458  17.164  0.0462 -0.7691 -0.1692
12270TIP3    H258226   1.541   4.578  17.073 -1.3429  0.4505  1.2655
12271TIP3   OH258227   4.776   0.413  14.247  0.2623 -0.5144  0.1263
12271TIP3    H158228   4.681   0.400  14.253  0.4308 -1.6732  0.3237
12271TIP3    H258229   4.786   0.478  14.177 -0.8417  2.1487  2.3359
12272TIP3   OH258230   0.711   5.441  14.721  0.2063 -0.4367  0.1761
12272TIP3    H158231   0.696   5.441  14.627 -0.0869 -1.5507  0.2188
12272TIP3    H258232   0.660   5.515  14.754  2.4409  1.6092 -0.8669
12273TIP3   OH258233   0.203   6.079   0.851  0.3739 -0.1565  0.0085
12273TIP3    H158234   0.290   6.117   0.859 -0.4460  1.6968  0.2854
12273TIP3    H258235   0.215   5.987   0.875  2.0686  0.3104  1.0521
12274TIP3   OH258236   6.677   5.570  11.603 -0.1032 -0.2809 -0.2430
12274TIP3    H158237   6.629   5.544  11.681  0.7254  0.7633  0.6329
12274TIP3    H258238   6.725   5.492  11.577 -0.9697 -0.8449 -0.1518
12275TIP3   OH258239   0.460   4.515  11.294  0.1892  0.8591 -0.1188
12275TIP3    H158240   0.381   4.565  11.272 -1.7454 -1.7680  0.6206
12275TIP3    H258241   0.503   4.567  11.362 -1.1777  2.0769 -0.1670
12276TIP3   OH258242   5.746   2.711  15.186 -0.0933 -0.6821 -0.0705
12276TIP3    H158243   5.746   2.700  15.091 -0.0774  2.3137 -0.4558
12276TIP3    H258244   5.822   2.767  15.203 -0.9369 -0.0207  1.5444
12277TIP3   OH258245   1.724   4.166  16.594  0.4391  0.0377 -0.3861
12277TIP3    H158246   1.696   4.221  16.521 -0.8822  1.6768  1.3175
12277TIP3    H258247   1.644   4.147  16.643  1.3178 -0.9811  0.7003
12278TIP3   OH258248   4.058   1.154   5.784 -0.3649  0.1253  0.1429
12278TIP3    H158249   3.994   1.095   5.825 -0.4851  0.6362  0.7040
12278TIP3    H258250   4.091   1.207   5.857 -0.6696  1.1394 -0.4450
12279TIP3   OH258251   1.163   6.276   5.263  0.3951 -0.6007 -0.4749
12279TIP3    H158252   1.122   6.333   5.198  1.3864  0.9364  0.2367
12279TIP3    H258253   1.091   6.252   5.322 -0.1642 -0.6634 -1.1707
12280TIP3   OH258254   5.492   2.552  10.876 -0.0587 -0.3583 -0.3988
12280TIP3    H158255   5.438   2.620  10.916  0.1328 -0.6326  0.3237
12280TIP3    H258256   5.569   2.599  10.843 -1.2235  0.2140 -2.4232
12281TIP3   OH258257   4.321   0.461  12.755 -0.0024 -0.6152  0.2849
12281TIP3    H158258   4.314   0.484  12.662  0.8789 -0.5267  0.2289
12281TIP3    H258259   4.252   0.511  12.798  1.1428  1.2319  0.0064
12282TIP3   OH258260   4.709   6.514  13.913  0.3960  0.5233 -0.1314
12282TIP3    H158261   4.655   6.592  13.925  2.6220  2.2105 -0.8644
12282TIP3    H258262   4.785   6.544  13.864  2.4988 -1.5852  1.6913
12283TIP3   OH258263   2.101   1.254  11.829 -0.4551  0.6369  0.2493
12283TIP3    H158264   2.038   1.182  11.835  1.3226 -1.0209 -0.4019
12283TIP3    H258265   2.186   1.212  11.841  0.5776  2.7269  0.3665
12284TIP3   OH258266   0.900   0.450  13.441  0.2777  0.0608 -0.2835
12284TIP3    H158267   0.976   0.492  13.481 -1.2749 -0.1719  3.0723
12284TIP3    H258268   0.900   0.481  13.351  4.1594  0.2973 -0.2894
12285TIP3   OH258269   3.909   2.215   4.504 -0.1771  0.7038  0.4648
12285TIP3    H158270   3.895   2.120   4.506 -0.4827  0.7662  1.2450
12285TIP3    H258271   3.916   2.236   4.411  0.4592 -0.1672  0.3109
12286TIP3   OH258272   4.496   0.400   3.367 -0.2483  0.5716  0.6037
12286TIP3    H158273   4.456   0.340   3.430  0.9900 -2.0163 -0.9863
12286TIP3    H258274   4.509   0.347   3.289  0.9017  2.9541 -0.8668
12287TIP3   OH258275   4.990   1.688   3.489 -0.3174 -0.5516  0.4822
12287TIP3    H158276   4.979   1.621   3.421 -0.1239 -0.1218  0.0212
12287TIP3    H258277   4.987   1.771   3.441  2.5083 -0.3311  0.6247
12288TIP3   OH258278   4.655   0.755  13.593  0.0182  0.1824 -0.2952
12288TIP3    H158279   4.657   0.766  13.688 -1.7230  1.2541 -0.3499
12288TIP3    H258280   4.724   0.692  13.574  0.4715  0.0623  1.6667
12289TIP3   OH258281   0.794   0.109   0.030 -0.5021  0.5730 -0.5400
12289TIP3    H158282   0.735   0.077  -0.039  1.8983 -0.7019 -2.0503
12289TIP3    H258283   0.859   0.161  -0.016  0.3575  0.8198  0.9360
12290TIP3   OH258284   5.792   6.518  10.791  0.2644 -0.1114 -0.6754
12290TIP3    H158285   5.831   6.522  10.878  0.1794 -1.0038 -0.5935
12290TIP3    H258286   5.739   6.597  10.785 -0.7370 -0.6731  0.5635
12291TIP3   OH258287   1.729   6.073  13.779  0.4359 -0.0748 -0.4138
12291TIP3    H158288   1.672   6.017  13.727 -1.1047 -0.9496  2.1416
12291TIP3    H258289   1.679   6.153  13.793  0.6252 -0.0681  0.2246
12292TIP3   OH258290   1.521   3.068  13.319  0.4802 -0.9418 -0.6066
12292TIP3    H158291   1.450   3.102  13.265 -0.1244 -1.1519  0.0416
12292TIP3    H258292   1.592   3.131  13.309 -0.4074  0.1791  0.0937
12293TIP3   OH258293   5.408   4.506   1.806 -0.4033 -0.4513  0.7265
12293TIP3    H158294   5.459   4.587   1.796  0.3246 -0.8738  1.0163
12293TIP3    H258295   5.441   4.467   1.886  0.5634 -1.9852 -0.3880
12294TIP3   OH258296   1.586   3.007   1.715  0.2943  0.1245 -0.1998
12294TIP3    H158297   1.550   2.958   1.790 -0.2833 -0.9689 -1.1702
12294TIP3    H258298   1.526   2.987   1.643  0.3465  1.8901 -0.7403
12295TIP3   OH258299   2.909   0.195   2.280 -0.3260 -0.0162 -0.0983
12295TIP3    H158300   2.937   0.272   2.330  0.2151 -0.6703  0.6132
12295TIP3    H258301   2.973   0.188   2.209 -0.7651  0.5813 -0.5562
12296TIP3   OH258302   4.680   3.668  12.857  0.2743  0.3657 -0.1449
12296TIP3    H158303   4.602   3.706  12.896 -0.3907  0.4790 -1.5525
12296TIP3    H258304   4.748   3.680  12.923 -1.1180 -0.6546  1.5193
12297TIP3   OH258305   2.692   5.825  15.730  0.0992 -0.3701  0.1227
12297TIP3    H158306   2.636   5.876  15.672 -0.8730 -1.2007  0.3052
12297TIP3    H258307   2.743   5.890  15.778 -0.1306  0.3699 -0.6238
12298TIP3   OH258308   5.352   5.055   3.575  0.5815  0.3113 -0.5232
12298TIP3    H158309   5.343   5.080   3.667  2.6138  0.3805 -0.3191
12298TIP3    H258310   5.308   5.125   3.526 -0.6608  0.1845  0.3732
12299TIP3   OH258311   3.398   2.267  16.870 -0.4642  0.1512  0.6626
12299TIP3    H158312   3.363   2.283  16.782  1.0424  2.1109  0.3932
12299TIP3    H258313   3.364   2.180  16.893 -2.9925  0.6809 -0.7815
12300TIP3   OH258314   4.938   5.532  12.703  0.4494 -0.2241  0.3192
12300TIP3    H158315   4.867   5.531  12.768 -0.3310 -0.6598 -0.5195
12300TIP3    H258316   4.969   5.441  12.701  0.5795 -0.1752  0.2099
12301TIP3   OH258317   1.815   2.240  16.869  0.0085  0.4623 -0.1288
12301TIP3    H158318   1.789   2.148  16.873  0.0817  0.4778  0.8059
12301TIP3    H258319   1.811   2.270  16.960  0.4079  1.2655 -0.3740
12302TIP3   OH258320   2.726   4.961   3.285  0.4121  0.4624  0.4219
12302TIP3    H158321   2.757   4.969   3.194 -0.7518 -2.1301 -0.2290
12302TIP3    H258322   2.781   4.892   3.322 -1.3182 -0.7799  0.6958
12303TIP3   OH258323   4.725   4.880  14.552  0.4527 -0.3245 -0.2621
12303TIP3    H158324   4.744   4.817  14.483  0.3166 -0.4229 -0.2102
12303TIP3    H258325   4.633   4.863  14.575 -0.0453  0.9106 -1.3049
12304TIP3   OH258326   6.399   1.851  16.716  0.7817  0.6667  0.5178
12304TIP3    H158327   6.350   1.803  16.783  0.5653  0.1545  0.0054
12304TIP3    H258328   6.352   1.933  16.706 -2.0966 -1.2234 -2.4674
12305TIP3   OH258329   1.184   5.161  12.358  0.0106  0.0938 -0.2739
12305TIP3    H158330   1.193   5.245  12.403  2.2234  0.2627 -0.9685
12305TIP3    H258331   1.185   5.097  12.429  1.1604  0.5024  0.0972
12306TIP3   OH258332   0.802   6.615   5.208  0.6642  0.3380 -0.4106
12306TIP3    H158333   0.710   6.589   5.201  0.6969  0.5319 -1.7426
12306TIP3    H258334   0.799   6.709   5.227  0.5781  0.0700  0.9191
12307TIP3   OH258335   0.541   3.324   5.553 -0.0500  0.4860  0.9057
12307TIP3    H158336   0.589   3.294   5.476 -0.8491 -0.1123  0.6360
12307TIP3    H258337   0.609   3.342   5.619  0.5444 -0.2084  0.4782
12308TIP3   OH258338   3.243   0.028  13.109 -0.0644 -0.8274  0.1795
12308TIP3    H158339   3.152   0.053  13.099 -0.4726 -2.2492  0.2332
12308TIP3    H258340   3.273   0.076  13.186 -0.5486  0.2333 -0.2984
12309TIP3   OH258341   0.063   5.752  11.723  0.0509 -0.1222 -1.0142
12309TIP3    H158342  -0.019   5.708  11.702  0.3476 -1.6665  0.9400
12309TIP3    H258343   0.128   5.708  11.669  0.0327 -0.7955 -0.4937
12310TIP3   OH258344   4.306   3.481  12.918  0.4439 -0.1694  0.1671
12310TIP3    H158345   4.369   3.434  12.863  1.4240  1.1788  0.1148
12310TIP3    H258346   4.233   3.501  12.861  1.7125  1.7463 -0.8354
12311TIP3   OH258347   3.415   2.864   0.003  0.1619 -0.8343  0.0237
12311TIP3    H158348   3.328   2.870   0.043  1.1532  0.1511  2.1166
12311TIP3    H258349   3.400   2.884  -0.089 -1.7975 -0.3739  0.4123
12312TIP3   OH258350   6.239   4.828   1.693 -0.4128 -0.0975  0.2078
12312TIP3    H158351   6.328   4.855   1.716 -0.0646 -1.1546  0.1264
12312TIP3    H258352   6.220   4.755   1.753 -0.9239 -0.3958 -0.3119
12313TIP3   OH258353   4.367   4.547  17.151 -0.0620 -0.9353 -0.2678
12313TIP3    H158354   4.329   4.547  17.239  1.1282 -0.8711  0.2462
12313TIP3    H258355   4.291   4.560  17.093 -1.0338 -2.3631  0.6512
12314TIP3   OH258356   0.676   1.638  11.099 -0.1598  0.2757 -0.4020
12314TIP3    H158357   0.607   1.580  11.131  0.8857 -0.5601  0.3553
12314TIP3    H258358   0.752   1.581  11.085  1.2318  1.6150  1.4350
12315TIP3   OH258359   1.861   0.615   5.747 -0.5789 -0.3890  0.5373
12315TIP3    H158360   1.862   0.698   5.700 -2.2625 -0.2575  0.6880
12315TIP3    H258361   1.939   0.617   5.803  0.3031  0.3419 -0.7098
12316TIP3   OH258362   6.564   6.711   6.308  0.0732  0.7501  0.6603
12316TIP3    H158363   6.616   6.638   6.274  0.3386  1.0634  0.3825
12316TIP3    H258364   6.627   6.782   6.319  0.0187  0.5799  2.0386
12317TIP3   OH258365   1.302   2.127   1.848 -0.3314 -0.1466  0.0542
12317TIP3    H158366   1.395   2.112   1.864 -0.2327 -2.3865 -2.2688
12317TIP3    H258367   1.258   2.079   1.918  0.2138  2.7001  2.4604
12318TIP3   OH258368   0.080   5.567   5.990 -0.3377 -0.4222  0.2891
12318TIP3    H158369   0.125   5.573   6.074 -1.3447  1.1492  0.7302
12318TIP3    H258370  -0.012   5.559   6.012 -0.6013 -0.1631 -0.6796
12319TIP3   OH258371   3.250   3.172   6.755  0.4708  0.0287 -0.0619
12319TIP3    H158372   3.257   3.218   6.671  2.3100 -0.0570  0.0391
12319TIP3    H258373   3.165   3.200   6.790  0.2255  1.0038 -1.3929
12320TIP3   OH258374   4.803   4.446   1.728  0.1032  0.0662  0.2481
12320TIP3    H158375   4.883   4.474   1.772 -0.6838  0.8325  1.2034
12320TIP3    H258376   4.787   4.513   1.662  1.2001 -1.0052 -1.1299
12321TIP3   OH258377   6.638   1.841  16.336 -0.3974  0.1073  0.0548
12321TIP3    H158378   6.632   1.796  16.252 -1.9373  0.6780 -0.1626
12321TIP3    H258379   6.559   1.895  16.340  0.6477  1.5923  1.0153
12322TIP3   OH258380   6.197   0.089  15.616 -0.1226 -0.0140 -0.0711
12322TIP3    H158381   6.113   0.045  15.601 -0.0875  0.1691 -0.7811
12322TIP3    H258382   6.174   0.181  15.629  0.0747  0.2150 -1.3475
12323TIP3   OH258383   4.974   5.763   3.884 -0.1842 -0.2864  0.0704
12323TIP3    H158384   4.930   5.834   3.836  0.0167 -0.4536 -0.3677
12323TIP3    H258385   5.066   5.769   3.856 -0.0537 -0.3513  0.4803
12324TIP3   OH258386   5.102   5.595   2.044 -0.5879  0.0674  0.5503
12324TIP3    H158387   5.167   5.620   2.110  0.1341  1.5735 -0.7260
12324TIP3    H258388   5.110   5.499   2.039 -0.6848 -0.0762  2.6671
12325TIP3   OH258389   1.046   0.531   1.049  0.0397 -0.6325 -0.2176
12325TIP3    H158390   1.111   0.536   1.119 -0.3998  1.5422  0.0793
12325TIP3    H258391   0.988   0.460   1.076  0.4728 -0.5111  1.1107
12326TIP3   OH258392   4.769   0.971   4.908 -0.7468 -0.0990 -0.2148
12326TIP3    H158393   4.784   0.971   4.814 -1.3047 -1.8403 -0.3298
12326TIP3    H258394   4.852   0.998   4.946 -0.4131  0.2482 -1.1895
12327TIP3   OH258395   5.087   0.648   4.535 -0.3307  0.3604  0.5369
12327TIP3    H158396   5.080   0.691   4.620 -1.6506 -0.4675  0.8764
12327TIP3    H258397   5.051   0.711   4.473  0.9297  1.0940  0.5289
12328TIP3   OH258398   4.197   1.558  16.782 -0.6037  0.3470  0.3772
12328TIP3    H158399   4.236   1.587  16.865  0.7652  1.8978 -0.7672
12328TIP3    H258400   4.125   1.620  16.767 -1.8148 -0.8502  1.1276
12329TIP3   OH258401   3.223   0.702   5.153  0.6901  0.2896 -0.3976
12329TIP3    H158402   3.290   0.769   5.142 -0.5544  1.5256 -0.5050
12329TIP3    H258403   3.180   0.696   5.068 -0.2412  0.4996  0.0400
12330TIP3   OH258404   2.597   1.845  11.005  0.4632  0.2352 -0.6560
12330TIP3    H158405   2.639   1.916  11.055  0.2051  1.1320 -1.7138
12330TIP3    H258406   2.594   1.771  11.067  3.2178  0.2748 -0.4031
12331TIP3   OH258407   3.923   4.538  16.488 -0.1784 -0.0284  0.3257
12331TIP3    H158408   3.880   4.586  16.418  1.8496 -0.2055 -1.0549
12331TIP3    H258409   3.886   4.450  16.483 -0.8873  0.2655  0.2522
12332TIP3   OH258410   5.276   2.907  16.845  0.1625 -0.4929 -0.1132
12332TIP3    H158411   5.192   2.865  16.828 -1.2292  1.7800  0.9212
12332TIP3    H258412   5.280   2.915  16.940  1.1265  0.2597 -0.2059
12333TIP3   OH258413   3.241   2.612   1.996 -0.5876  0.2329  0.2583
12333TIP3    H158414   3.210   2.543   1.937  0.9351  0.1345 -0.4596
12333TIP3    H258415   3.325   2.579   2.029 -0.2754  1.3502  0.5961
12334TIP3   OH258416   4.172   4.520   0.639 -0.1633  0.1913 -0.0266
12334TIP3    H158417   4.155   4.505   0.732  3.2256  2.8071  1.1453
12334TIP3    H258418   4.093   4.563   0.607 -1.9125 -1.9489  1.2610
12335TIP3   OH258419   4.146   0.390   6.099  0.4226  0.2125  0.0573
12335TIP3    H158420   4.050   0.386   6.099  0.3546  1.7253 -0.4231
12335TIP3    H258421   4.168   0.429   6.183  0.6992 -1.3566  0.7428
12336TIP3   OH258422   2.983   2.494  15.115  0.3550  0.1057  0.3100
12336TIP3    H158423   2.973   2.573  15.169 -0.2477  0.3858 -0.2091
12336TIP3    H258424   2.993   2.423  15.178 -2.4298  0.1454  0.8330
12337TIP3   OH258425   4.300   5.233  13.253  0.1581  0.0011  0.5577
12337TIP3    H158426   4.299   5.145  13.290 -0.8586  0.2693  1.1953
12337TIP3    H258427   4.343   5.287  13.319 -0.6657  0.2724  0.8867
12338TIP3   OH258428   5.455   4.896  16.257 -0.1212 -0.1614 -0.4482
12338TIP3    H158429   5.486   4.820  16.206  0.3512  0.4968 -1.1470
12338TIP3    H258430   5.533   4.950  16.268 -0.5137  0.3385 -0.1481
12339TIP3   OH258431   2.501   4.931   3.869  0.1101  0.3686 -0.5256
12339TIP3    H158432   2.446   4.954   3.794 -0.4315  0.3731 -0.1238
12339TIP3    H258433   2.514   5.013   3.916 -1.8298 -0.1127  0.9152
12340TIP3   OH258434   3.125   2.362  13.827 -0.4339  0.4807 -0.2701
12340TIP3    H158435   3.057   2.307  13.789  0.5381  0.2163 -1.6703
12340TIP3    H258436   3.128   2.438  13.769  0.6009  0.3976 -0.3240
12341TIP3   OH258437   1.924   3.479  17.173 -0.2167 -0.3156  0.0199
12341TIP3    H158438   2.008   3.521  17.191  1.0070 -1.7235 -2.1224
12341TIP3    H258439   1.889   3.525  17.097 -1.7408  0.7108  1.3163
12342TIP3   OH258440   0.565   5.320   6.309 -0.1292  0.1580  0.4253
12342TIP3    H158441   0.518   5.243   6.342 -0.3946  0.2464  0.2488
12342TIP3    H258442   0.511   5.394   6.336 -0.3067  0.2361 -0.1361
12343TIP3   OH258443   0.804   0.129  15.501 -0.1541  0.2900 -0.2988
12343TIP3    H158444   0.756   0.120  15.419  0.6211  1.3357 -0.8703
12343TIP3    H258445   0.893   0.151  15.475  0.3244 -0.2853  0.7999
12344TIP3   OH258446   0.320   5.082   2.006 -0.3579 -0.6493 -0.3959
12344TIP3    H158447   0.383   5.040   2.065 -0.9504 -0.9634  0.0159
12344TIP3    H258448   0.330   5.176   2.023 -1.0130 -0.7783  0.6916
12345TIP3   OH258449   0.698   4.793   5.225  0.1503  0.5017  0.0885
12345TIP3    H158450   0.746   4.716   5.256  0.6798 -0.0384 -1.9937
12345TIP3    H258451   0.711   4.858   5.294  0.1009 -1.1078  1.6510
12346TIP3   OH258452   4.523   3.388  13.886 -0.0674  0.4239  0.8045
12346TIP3    H158453   4.581   3.463  13.875 -0.1018  0.4831  1.0245
12346TIP3    H258454   4.463   3.414  13.955  0.1306  0.0656  1.1139
12347TIP3   OH258455   4.871   3.826   3.626 -0.1122  0.4853 -0.1598
12347TIP3    H158456   4.777   3.842   3.635  0.3012  2.8520  0.3983
12347TIP3    H258457   4.900   3.799   3.713 -0.2115  0.1430 -0.2342
12348TIP3   OH258458   5.899   0.182  12.419 -0.4912 -0.4283 -0.1928
12348TIP3    H158459   5.916   0.109  12.479 -0.1439 -1.0611 -1.0547
12348TIP3    H258460   5.903   0.143  12.332  1.7497  0.9992 -0.7778
12349TIP3   OH258461   2.412   1.668  17.193  0.2781  0.0141 -0.7742
12349TIP3    H158462   2.468   1.601  17.154  0.5979  0.5974 -1.3207
12349TIP3    H258463   2.464   1.704  17.265 -0.0283 -0.5565 -0.2599
12350TIP3   OH258464   0.007   0.126  12.441  0.2769 -0.4198  0.4865
12350TIP3    H158465   0.055   0.059  12.490  3.5333  0.1966 -1.7111
12350TIP3    H258466  -0.044   0.077  12.377  1.2426 -0.8957  0.0723
12351TIP3   OH258467   0.639   4.656   2.397  0.2562  0.4830  0.6651
12351TIP3    H158468   0.663   4.639   2.306  1.3174  0.4493  0.9507
12351TIP3    H258469   0.580   4.585   2.420 -0.0004  0.4804  0.0124
12352TIP3   OH258470   1.215   5.634  13.719 -0.0842  0.2866  0.4032
12352TIP3    H158471   1.203   5.541  13.736  0.2343  0.3586  1.0447
12352TIP3    H258472   1.127   5.671  13.726 -0.5743 -0.3102 -2.1119
12353TIP3   OH258473   2.163   5.485  11.487  0.1994 -0.6165  0.3011
12353TIP3    H158474   2.225   5.423  11.525 -0.3940 -2.0588 -1.0738
12353TIP3    H258475   2.170   5.473  11.393  0.3284  1.6672 -0.0109
12354TIP3   OH258476   2.963   3.292   6.763 -0.6856  0.6365  0.0390
12354TIP3    H158477   2.987   3.374   6.720  2.3200 -0.3070 -0.1889
12354TIP3    H258478   2.948   3.230   6.691  1.6124 -0.2011  0.2333
12355TIP3   OH258479   5.248   1.268   1.045  0.4378 -0.2035  0.4921
12355TIP3    H158480   5.272   1.190   1.095 -1.1026 -0.0921  1.4510
12355TIP3    H258481   5.267   1.341   1.104  1.0877  0.1015 -0.0848
12356TIP3   OH258482   1.934   3.799   6.837 -0.1019  0.4220  0.7723
12356TIP3    H158483   1.952   3.724   6.780  1.7001 -0.9234  3.0509
12356TIP3    H258484   2.021   3.836   6.857 -0.8235  1.8779  1.3277
12357TIP3   OH258485   1.023   4.800   5.968  0.2505  0.2584 -0.2590
12357TIP3    H158486   1.084   4.859   5.923 -0.5755  0.8029 -0.6724
12357TIP3    H258487   0.937   4.823   5.934 -0.1848 -0.5818  0.2442
12358TIP3   OH258488   3.572   3.806   0.077 -0.0176 -0.4449 -0.0732
12358TIP3    H158489   3.659   3.767   0.071 -0.9948 -2.9005  0.8897
12358TIP3    H258490   3.534   3.791  -0.010 -0.3563 -1.6144  0.2651
12359TIP3   OH258491   1.209   2.967  16.517  0.3806 -0.6559  0.0773
12359TIP3    H158492   1.224   2.876  16.543  1.5117 -1.0906 -1.9989
12359TIP3    H258493   1.115   2.971  16.498 -0.3909 -0.4292  3.6372
12360TIP3   OH258494   6.393   3.715  11.288  0.3823  0.2782  0.5601
12360TIP3    H158495   6.422   3.681  11.203 -0.6234 -1.8208  1.0353
12360TIP3    H258496   6.440   3.797  11.297  0.5254  0.5312 -2.0219
12361TIP3   OH258497   4.920   5.786  15.582  0.0415 -0.5854  0.1866
12361TIP3    H158498   4.862   5.821  15.515  0.9279  0.0776 -0.2317
12361TIP3    H258499   4.875   5.707  15.613 -0.7280 -0.4811 -0.6471
12362TIP3   OH258500   1.850   4.172   2.612 -0.1042 -0.7907 -0.7010
12362TIP3    H158501   1.828   4.083   2.583 -1.3305 -0.5715 -0.4858
12362TIP3    H258502   1.783   4.227   2.571  1.2427  0.1646 -1.6369
12363TIP3   OH258503   4.628   1.600  16.794 -0.0336  0.4328 -0.5308
12363TIP3    H158504   4.579   1.526  16.758  1.0668  0.1602 -1.4648
12363TIP3    H258505   4.681   1.562  16.864  0.4642  0.3574 -0.9517
12364TIP3   OH258506   2.258   6.173  13.449  0.1507  0.3005 -0.4600
12364TIP3    H158507   2.255   6.108  13.379  1.3607  0.6610 -0.8529
12364TIP3    H258508   2.191   6.237  13.424 -1.0618 -0.7870 -0.0598
12365TIP3   OH258509   4.765   2.247   3.427 -0.0111  0.0432  0.3519
12365TIP3    H158510   4.687   2.207   3.389  0.2060 -1.4631  1.4584
12365TIP3    H258511   4.781   2.324   3.373 -2.7982  0.9021  0.6874
12366TIP3   OH258512   5.268   4.886   5.697 -0.2084  0.0680 -0.4845
12366TIP3    H158513   5.351   4.844   5.673 -1.1581 -1.5011 -1.0584
12366TIP3    H258514   5.214   4.879   5.619 -0.2420  2.8319 -0.7795
12367TIP3   OH258515   6.186   3.714  17.115  0.0723 -0.4895  0.1906
12367TIP3    H158516   6.202   3.807  17.102 -0.5712 -0.4945 -0.6755
12367TIP3    H258517   6.228   3.672  17.039  1.2724 -0.9955  1.1159
12368TIP3   OH258518   3.212   4.734   4.925 -0.0115  0.5191  0.1589
12368TIP3    H158519   3.254   4.705   4.845 -1.3976  0.8001 -0.6973
12368TIP3    H258520   3.239   4.826   4.934  1.4379  0.0352  0.9002
12369TIP3   OH258521   3.688   4.553   5.276  0.2334 -0.0460  0.0729
12369TIP3    H158522   3.744   4.581   5.349 -0.4509  1.2609  0.1037
12369TIP3    H258523   3.609   4.606   5.284  0.6746  1.0498 -2.3666
12370TIP3   OH258524   5.508   2.738  16.188 -0.1875 -0.3890 -0.4229
12370TIP3    H158525   5.580   2.801  16.196  0.4366 -0.9882 -1.2565
12370TIP3    H258526   5.447   2.779  16.127 -0.4895  0.0512  0.1662
12371TIP3   OH258527   2.554   4.275  14.347  0.0360  0.2622 -0.2404
12371TIP3    H158528   2.638   4.230  14.354  0.1243  0.2062 -1.6430
12371TIP3    H258529   2.570   4.363  14.381  0.9512  0.6338 -1.6404
12372TIP3   OH258530   6.556   0.264   4.180 -0.4865 -0.4656  0.0587
12372TIP3    H158531   6.609   0.239   4.256 -0.5936 -0.7035  0.0548
12372TIP3    H258532   6.567   0.192   4.118  0.0261 -0.0233 -0.3690
12373TIP3   OH258533   0.223   5.525  13.346 -1.0628 -0.4566 -0.3794
12373TIP3    H158534   0.298   5.579  13.371 -1.1075 -0.2155 -0.7686
12373TIP3    H258535   0.172   5.581  13.287 -1.7961 -0.4460  0.2617
12374TIP3   OH258536   0.821   0.384   2.532  0.0661 -0.0513 -0.1308
12374TIP3    H158537   0.729   0.365   2.517 -0.3492  0.6541  1.4767
12374TIP3    H258538   0.845   0.445   2.461 -1.1255  1.0480  0.3944
12375TIP3   OH258539   0.937   5.678   2.564  0.5101 -0.7782 -0.0100
12375TIP3    H158540   0.845   5.655   2.548  0.5258 -0.5522 -0.4297
12375TIP3    H258541   0.944   5.683   2.659 -0.4635  1.4467 -0.0180
12376TIP3   OH258542   6.585   3.312   5.801  0.4474 -0.0292  0.4538
12376TIP3    H158543   6.530   3.381   5.764  0.4349 -0.7039 -0.8294
12376TIP3    H258544   6.674   3.334   5.774  0.5535 -0.0375  0.7931
12377TIP3   OH258545   5.687   6.664  17.205  0.0739 -0.4048  0.3488
12377TIP3    H158546   5.605   6.637  17.162 -1.8958  3.3690  1.4878
12377TIP3    H258547   5.726   6.726  17.144 -1.4385  3.0198  2.7536
12378TIP3   OH258548   4.907   0.999   2.264  0.1011 -0.4425  0.1782
12378TIP3    H158549   4.874   0.911   2.242 -2.4528  1.0989 -2.4835
12378TIP3    H258550   4.833   1.057   2.247  1.2156  2.1020  3.5111
12379TIP3   OH258551   5.245   4.768  12.772  0.6445 -0.0612 -0.2479
12379TIP3    H158552   5.196   4.703  12.821 -0.6142  0.6482 -0.5368
12379TIP3    H258553   5.207   4.766  12.684  1.2547  0.3578 -0.5304
12380TIP3   OH258554   3.135   3.485   1.972  0.3931  0.4501  0.0170
12380TIP3    H158555   3.199   3.430   1.926 -0.7695 -2.4646  1.7032
12380TIP3    H258556   3.050   3.452   1.941 -0.3328  1.2120  1.1743
12381TIP3   OH258557   2.380   1.737   0.959  0.6772 -0.1215 -0.6273
12381TIP3    H158558   2.360   1.666   0.898  2.2569 -0.6870 -0.5073
12381TIP3    H258559   2.315   1.729   1.029 -0.0703 -0.5278 -1.3648
12382TIP3   OH258560   1.323   0.441  11.492  0.0074  0.6134 -0.1417
12382TIP3    H158561   1.298   0.375  11.428  0.4147  0.2793  0.0405
12382TIP3    H258562   1.287   0.409  11.575 -1.0169  1.3347 -0.3012
12383TIP3   OH258563   2.396   1.894  12.834 -0.0577  0.2650  0.3298
12383TIP3    H158564   2.316   1.881  12.884 -1.1640  0.2199 -1.3924
12383TIP3    H258565   2.389   1.984  12.801  0.4736  0.1681 -0.0596
12384TIP3   OH258566   1.001   1.420  13.919  0.5977 -0.2088  0.0319
12384TIP3    H158567   1.007   1.503  13.872  2.2579 -0.1934  0.2461
12384TIP3    H258568   0.984   1.444  14.010 -0.0761 -0.1574 -0.1006
12385TIP3   OH258569   6.278   4.704  16.014 -0.1873 -0.2131  0.6590
12385TIP3    H158570   6.348   4.643  15.993  0.6578  1.0529 -0.3035
12385TIP3    H258571   6.204   4.675  15.961  0.7330  0.5943 -1.0984
12386TIP3   OH258572   6.396   6.630  13.078  0.2691 -0.2600  0.6425
12386TIP3    H158573   6.392   6.566  13.007  0.0701  0.7573 -0.3002
12386TIP3    H258574   6.396   6.579  13.158  0.0796 -1.4255 -0.0945
12387TIP3   OH258575   0.702   0.110  11.744  0.0804  0.2084  0.3685
12387TIP3    H158576   0.722   0.017  11.730 -2.4549 -0.6564  2.1813
12387TIP3    H258577   0.632   0.128  11.681 -0.0366  0.6442  0.6237
12388TIP3   OH258578   2.329   4.963   0.529 -0.1372 -0.0191  0.2125
12388TIP3    H158579   2.241   4.925   0.534 -0.6407  1.2927  1.6515
12388TIP3    H258580   2.319   5.052   0.563  1.3348  0.8973 -1.6216
12389TIP3   OH258581   1.594   0.029   4.144  0.1488  0.3704  0.1460
12389TIP3    H158582   1.604   0.120   4.117 -2.7204  1.0348  1.1704
12389TIP3    H258583   1.596   0.031   4.239 -2.0179 -0.3514  0.2205
12390TIP3   OH258584   2.990   1.777   5.705 -0.0392  0.5354  0.5256
12390TIP3    H158585   2.949   1.693   5.687  0.1381  0.2142  1.5815
12390TIP3    H258586   3.005   1.777   5.800  2.5414  0.5688  0.1387
12391TIP3   OH258587   5.116   3.624  16.683 -0.2841 -0.3807  0.0897
12391TIP3    H158588   5.161   3.623  16.768  1.1148 -0.3644 -0.6521
12391TIP3    H258589   5.042   3.684  16.696  1.6289  1.9736  0.4316
12392TIP3   OH258590   1.006   4.233  13.707  0.0970  0.8294  0.0466
12392TIP3    H158591   1.013   4.326  13.728  0.4464  1.3149 -2.0731
12392TIP3    H258592   1.081   4.215  13.650  0.6073 -0.9997  1.2442
12393TIP3   OH258593   3.336   3.510  13.955 -0.4275  0.5925 -0.3856
12393TIP3    H158594   3.333   3.426  13.908 -2.5331 -0.0511  0.8370
12393TIP3    H258595   3.342   3.576  13.886  0.0238 -0.4896 -1.4093
12394TIP3   OH258596   2.792   6.725  14.550 -0.3871 -0.0320  0.0683
12394TIP3    H158597   2.812   6.721  14.456 -1.5558 -1.5765 -0.1378
12394TIP3    H258598   2.746   6.643  14.568  0.5006 -0.1017  2.1649
12395TIP3   OH258599   0.003   6.643   0.865 -0.2083  0.5655 -0.1138
12395TIP3    H158600   0.068   6.704   0.830  1.3510 -0.0799  1.5917
12395TIP3    H258601   0.028   6.631   0.957 -0.3110 -2.8428 -0.4719
12396TIP3   OH258602   4.350   3.333  11.526  0.5402  0.4157  0.1942
12396TIP3    H158603   4.365   3.268  11.594  2.6173 -0.9456 -1.4872
12396TIP3    H258604   4.369   3.417  11.568  2.0004 -0.4119  1.2353
12397TIP3   OH258605   1.826   4.038  12.020 -0.8140  0.0655 -0.4665
12397TIP3    H158606   1.739   4.061  12.053 -0.9214  2.3673 -2.1842
12397TIP3    H258607   1.874   4.121  12.019  1.9347 -1.4238  1.8660
12398TIP3   OH258608   1.674   0.181  15.694 -0.3711  0.0850 -0.0102
12398TIP3    H158609   1.741   0.137  15.745  0.0977  2.5512  1.5962
12398TIP3    H258610   1.642   0.251  15.751  0.5288  3.2760 -3.1900
12399TIP3   OH258611   5.744   1.294   3.541 -0.2481 -0.1276 -0.3948
12399TIP3    H158612   5.824   1.274   3.492 -0.3942  0.0722 -0.7158
12399TIP3    H258613   5.735   1.222   3.604 -0.4211 -0.7272 -1.1044
12400TIP3   OH258614   2.991   1.014  12.302  0.0314  0.6681  0.3298
12400TIP3    H158615   3.000   0.929  12.258  0.4104  0.4040  0.9235
12400TIP3    H258616   3.080   1.037  12.329 -0.4243  0.0318  2.4574
12401TIP3   OH258617   3.492   1.332  16.649  0.5830 -0.5209 -0.0038
12401TIP3    H158618   3.411   1.282  16.637  0.2931 -0.1703  0.4668
12401TIP3    H258619   3.500   1.341  16.744  0.4366  0.6369 -0.0957
12402TIP3   OH258620   3.681   4.321   0.758  0.3866 -0.4940 -0.3985
12402TIP3    H158621   3.732   4.348   0.681 -0.3338 -0.6726 -0.9521
12402TIP3    H258622   3.743   4.275   0.813  0.9054 -0.4121 -0.9048
12403TIP3   OH258623   2.210   5.363  14.184 -0.3147 -0.4348  0.0523
12403TIP3    H158624   2.165   5.414  14.117 -1.5418 -1.9085 -0.2740
12403TIP3    H258625   2.277   5.313  14.136 -0.4776 -0.6748  0.0723
12404TIP3   OH258626   4.314   0.595  14.794  0.3484  0.2255  0.0566
12404TIP3    H158627   4.263   0.659  14.743 -1.9495 -1.3382  0.3215
12404TIP3    H258628   4.405   0.611  14.768 -0.3701  2.3314 -1.2965
12405TIP3   OH258629   0.596   3.622   5.670 -0.5563 -0.0473 -0.4933
12405TIP3    H158630   0.578   3.529   5.673  0.1140 -0.1710 -0.1093
12405TIP3    H258631   0.665   3.635   5.736 -1.2096  0.8328  0.0264
12406TIP3   OH258632   3.049   0.906  13.479  0.1294 -0.3827 -0.4597
12406TIP3    H158633   3.078   0.997  13.471 -2.2222  0.5418  0.8842
12406TIP3    H258634   3.029   0.880  13.389  0.3646  0.6086 -0.8109
12407TIP3   OH258635   5.757   0.195   6.269  0.8059  0.7092  0.3042
12407TIP3    H158636   5.783   0.201   6.361 -0.2418  0.4441  0.6255
12407TIP3    H258637   5.710   0.277   6.252  1.3484  0.9386 -0.1133
12408TIP3   OH258638   3.141   2.251  14.627 -0.6083  0.5139 -0.2706
12408TIP3    H158639   3.116   2.197  14.702  2.0169 -1.4725 -0.7714
12408TIP3    H258640   3.202   2.315  14.664  0.0380  0.0642 -0.5638
12409TIP3   OH258641   6.293   3.970  13.407  0.4303 -0.6835 -0.3655
12409TIP3    H158642   6.233   3.917  13.460  0.2727  0.3345  0.4971
12409TIP3    H258643   6.285   3.934  13.318  0.7863 -2.4768  0.3226
12410TIP3   OH258644   5.885   2.313  10.696  0.3950  0.2255  0.7074
12410TIP3    H158645   5.818   2.288  10.632  2.0406 -1.1498 -0.5094
12410TIP3    H258646   5.881   2.409  10.698  0.7680  0.3182 -1.9373
12411TIP3   OH258647   3.824   3.363   5.411 -0.1457  0.2587 -0.2139
12411TIP3    H158648   3.809   3.366   5.317 -0.9471 -1.2817 -0.1583
12411TIP3    H258649   3.799   3.450   5.442 -0.4315  0.5889 -1.3479
12412TIP3   OH258650   3.226   0.358   3.120 -0.2850  0.1642  0.4416
12412TIP3    H158651   3.210   0.407   3.200 -0.4420 -0.8945  1.0670
12412TIP3    H258652   3.160   0.289   3.120 -1.3753  1.1478 -1.4455
12413TIP3   OH258653   6.423   0.451   4.824  0.0259  0.0278  0.1374
12413TIP3    H158654   6.406   0.358   4.842 -0.6806  0.1157 -0.0319
12413TIP3    H258655   6.517   0.456   4.808  0.4315 -0.3048  2.2553
12414TIP3   OH258656   1.828   2.568  15.581  0.3942  0.1312 -0.4374
12414TIP3    H158657   1.798   2.653  15.612 -1.1517 -1.1587  1.8195
12414TIP3    H258658   1.913   2.555  15.625  0.3153  0.2320 -0.2544
12415TIP3   OH258659   4.651   5.444  16.397 -0.4662 -0.4807 -0.6122
12415TIP3    H158660   4.646   5.466  16.304  2.6896  3.5716  0.0220
12415TIP3    H258661   4.735   5.398  16.406  0.5506  1.5440  0.5838
12416TIP3   OH258662   1.882   3.219   5.258 -0.3451 -0.2582  0.5333
12416TIP3    H158663   1.959   3.163   5.268 -0.6242 -0.8488 -0.5145
12416TIP3    H258664   1.809   3.166   5.289 -0.5235 -0.2369  0.1519
12417TIP3   OH258665   0.027   4.984   4.190  0.3016 -0.3419  0.1956
12417TIP3    H158666   0.016   5.062   4.245 -1.0897  0.1939 -0.7822
12417TIP3    H258667   0.121   4.970   4.185  0.6089  1.7087 -0.1704
12418TIP3   OH258668   3.517   5.915  14.782  0.1144  0.2436 -0.0401
12418TIP3    H158669   3.467   5.993  14.804  0.7693  0.4440  0.7507
12418TIP3    H258670   3.515   5.862  14.861  2.0143  0.7185  0.3547
12419TIP3   OH258671   3.540   2.227   5.755 -0.3712 -0.3295 -0.0022
12419TIP3    H158672   3.452   2.235   5.720 -0.0359 -0.8851 -0.9792
12419TIP3    H258673   3.527   2.192   5.843 -1.1325 -0.2179 -0.0632
12420TIP3   OH258674   2.192   3.630   4.508  0.2710  0.2351  0.1096
12420TIP3    H158675   2.180   3.560   4.443  1.3461 -1.0188  1.2292
12420TIP3    H258676   2.247   3.695   4.463 -0.0107 -0.0449 -0.6500
12421TIP3   OH258677   5.306   5.233  11.501  0.1167  0.3344  0.0347
12421TIP3    H158678   5.357   5.248  11.580 -0.2649  1.6840  0.0357
12421TIP3    H258679   5.238   5.171  11.527  0.4718  0.1581  0.5522
12422TIP3   OH258680   3.076   4.834   4.213 -0.6060 -0.8320  0.0942
12422TIP3    H158681   3.022   4.872   4.143 -1.7501 -1.5576  0.5829
12422TIP3    H258682   3.016   4.821   4.286  0.1300 -2.0853  0.4920
12423TIP3   OH258683   5.526   3.190   2.930 -0.1532  0.2479 -0.0850
12423TIP3    H158684   5.574   3.261   2.888 -0.7327  0.7012  0.0067
12423TIP3    H258685   5.594   3.132   2.964  0.3292  0.8470 -0.0160
12424TIP3   OH258686   2.405   0.223  14.351  0.0482  0.5083  0.5125
12424TIP3    H158687   2.362   0.142  14.324 -1.1103  1.2622  0.1002
12424TIP3    H258688   2.470   0.195  14.416  2.0999 -1.1875 -2.2045
12425TIP3   OH258689   5.409   4.224  14.609  0.1019 -0.1192 -0.0934
12425TIP3    H158690   5.357   4.148  14.638  1.3218 -0.6105  0.8325
12425TIP3    H258691   5.494   4.187  14.585  1.1466  1.1050  1.6028
12426TIP3   OH258692   1.442   1.810   4.015  0.4124 -0.0115  0.5838
12426TIP3    H158693   1.507   1.862   3.968 -0.3847 -0.0098 -0.5311
12426TIP3    H258694   1.400   1.872   4.075  1.5692 -0.0574  1.4414
12427TIP3   OH258695   3.447   3.854  14.917  0.2590 -0.6395 -0.4615
12427TIP3    H158696   3.421   3.766  14.943 -1.9323 -0.3556 -1.5604
12427TIP3    H258697   3.518   3.841  14.854  0.5347 -1.5713  0.0375
12428TIP3   OH258698   2.214   3.598  17.237  0.2401 -0.1734  0.1388
12428TIP3    H158699   2.245   3.600  17.147  0.0062  0.7763  0.0782
12428TIP3    H258700   2.253   3.518  17.274  0.0637 -0.7375 -0.8900
12429TIP3   OH258701   2.677   4.698   2.580  0.6168  0.2350 -0.4315
12429TIP3    H158702   2.715   4.657   2.658  1.1929 -1.0155 -1.3460
12429TIP3    H258703   2.714   4.649   2.507  1.0454  2.2057 -1.5583
12430TIP3   OH258704   2.576   2.495   3.286  0.3748  0.2350 -0.4192
12430TIP3    H158705   2.596   2.566   3.346  1.2463  1.2248 -1.8337
12430TIP3    H258706   2.570   2.537   3.200 -0.1175 -1.2400 -1.1289
12431TIP3   OH258707   4.942   4.127  16.854  1.1046  0.3894 -0.5584
12431TIP3    H158708   4.875   4.133  16.785  0.6368 -1.5424 -0.3030
12431TIP3    H258709   5.025   4.135  16.807  0.7177  2.2836 -0.9463
12432TIP3   OH258710   2.195   1.116  10.676 -0.1331  0.3088 -0.3733
12432TIP3    H158711   2.261   1.106  10.609  1.3477 -1.5643  1.3113
12432TIP3    H258712   2.218   1.198  10.721 -0.4532  0.9562 -1.3800
12433TIP3   OH258713   2.235   6.383   2.228  0.1865 -0.1969  0.1590
12433TIP3    H158714   2.323   6.349   2.210 -0.3103 -0.9987 -0.7701
12433TIP3    H258715   2.250   6.475   2.250  1.2756 -0.3538  0.1206
12434TIP3   OH258716   3.874   4.576   4.989 -0.1805 -0.2665 -0.0682
12434TIP3    H158717   3.830   4.492   5.003 -1.3684  0.3518 -0.0046
12434TIP3    H258718   3.844   4.605   4.904 -1.0904  0.8729  0.6281
12435TIP3   OH258719   0.812   6.009  16.565 -0.0342 -0.0562  0.3032
12435TIP3    H158720   0.794   5.972  16.651  3.7306 -0.7987  0.8899
12435TIP3    H258721   0.833   6.101  16.582 -0.6585  0.1374  0.0151
12436TIP3   OH258722   2.800   3.425  12.581  0.5610 -0.6247 -0.3348
12436TIP3    H158723   2.771   3.339  12.609  1.2013 -0.2866  1.5058
12436TIP3    H258724   2.724   3.482  12.596 -0.5457 -1.2063 -3.5117
12437TIP3   OH258725   3.293   1.018  13.240  0.1836  0.5372 -0.4619
12437TIP3    H158726   3.250   1.074  13.306 -0.4044  1.3918 -1.5516
12437TIP3    H258727   3.230   0.948  13.224  0.5533  0.0338  0.2691
12438TIP3   OH258728   2.530   4.024  14.611  0.0269  0.8841 -0.1883
12438TIP3    H158729   2.468   3.981  14.553 -0.4664 -2.2258  2.5157
12438TIP3    H258730   2.615   3.985  14.588 -0.2323 -0.6694  1.4068
12439TIP3   OH258731   3.007   4.845   2.420  0.0557  0.1586  0.2710
12439TIP3    H158732   3.048   4.908   2.480  1.6049  0.6524 -1.2676
12439TIP3    H258733   2.989   4.896   2.341 -0.1453 -0.9623 -0.4032
12440TIP3   OH258734   6.410   2.074   6.322  0.2752 -0.2536  0.2476
12440TIP3    H158735   6.458   2.132   6.380  0.6637  0.4535 -0.7718
12440TIP3    H258736   6.470   2.002   6.304  0.8467  0.4674 -0.7672
12441TIP3   OH258737   3.197   3.598  15.367 -0.1579  0.0281 -0.5894
12441TIP3    H158738   3.145   3.549  15.430  0.2699 -0.2163 -0.4230
12441TIP3    H258739   3.241   3.666  15.419 -1.1403  0.9095 -0.8984
12442TIP3   OH258740   0.119   5.275   2.851  0.3168  0.6277  0.0436
12442TIP3    H158741   0.093   5.363   2.823  0.4352  1.3239  2.0754
12442TIP3    H258742   0.045   5.241   2.901  0.2088 -0.5057 -0.8539
12443TIP3   OH258743   0.734   1.719   2.130  0.4282  0.8012  0.7404
12443TIP3    H158744   0.652   1.764   2.111  0.5776  1.2658  1.1582
12443TIP3    H258745   0.732   1.705   2.225  0.6633  0.4895  0.6980
12444TIP3   OH258746   6.284   2.831  12.527  0.0578 -0.3513  0.5712
12444TIP3    H158747   6.248   2.776  12.596 -0.1545  1.0110  1.5763
12444TIP3    H258748   6.220   2.828  12.457  0.0537 -1.3782  0.6191
12445TIP3   OH258749   0.807   6.205  11.225  0.0112 -0.1565 -0.4793
12445TIP3    H158750   0.840   6.133  11.172  0.7235  0.3892 -0.7932
12445TIP3    H258751   0.744   6.250  11.168 -1.2234 -1.1271  0.0791
12446TIP3   OH258752   2.726   4.315   3.531  0.1688 -0.5245 -0.5355
12446TIP3    H158753   2.708   4.268   3.450 -0.0751 -2.1584  0.4302
12446TIP3    H258754   2.646   4.365   3.547 -0.6519 -1.9037 -0.1879
12447TIP3   OH258755   6.596   0.077   2.154  0.9954 -0.1248 -0.7151
12447TIP3    H158756   6.657   0.137   2.113 -2.0329  2.9984 -0.8768
12447TIP3    H258757   6.518   0.081   2.100 -0.8937 -0.6591  1.8581
12448TIP3   OH258758   1.408   1.881  14.573 -0.1088 -0.0254  0.7747
12448TIP3    H158759   1.426   1.883  14.667  2.8484  0.7619  0.2497
12448TIP3    H258760   1.395   1.973  14.549 -2.4477 -0.3673  0.6754
12449TIP3   OH258761   5.343   3.401  12.304  0.0279 -0.0559  0.0369
12449TIP3    H158762   5.353   3.410  12.209  0.5020 -2.2837 -0.1608
12449TIP3    H258763   5.272   3.337  12.314  0.1133  0.0295  1.1664
12450TIP3   OH258764   1.842   4.158  13.046  0.3786 -0.4669  0.8221
12450TIP3    H158765   1.796   4.175  13.128  0.5766 -0.2360  0.8869
12450TIP3    H258766   1.935   4.171  13.067  0.3145  1.2763  0.1659
12451TIP3   OH258767   1.622   4.916  13.274  0.6080 -0.1614  0.2131
12451TIP3    H158768   1.615   4.867  13.356  1.9746 -0.1012  0.3759
12451TIP3    H258769   1.631   4.848  13.207 -2.3224 -0.2784 -0.1163
12452TIP3   OH258770   6.440   4.771  15.017  0.2539  0.5603 -0.1240
12452TIP3    H158771   6.482   4.853  14.990  1.9568  0.1696  1.2732
12452TIP3    H258772   6.512   4.713  15.040 -0.9938 -0.7303  0.6284
12453TIP3   OH258773   5.201   0.525   2.832  0.5055 -0.4340  0.1476
12453TIP3    H158774   5.122   0.535   2.779  0.7665 -1.5296 -0.4725
12453TIP3    H258775   5.190   0.440   2.875  0.7850 -0.0264  1.0325
12454TIP3   OH258776   2.092   4.261  13.087 -0.0564  0.4700  0.8058
12454TIP3    H158777   2.076   4.290  13.177  0.8084  1.8097  0.5490
12454TIP3    H258778   2.184   4.280  13.071 -0.7763  2.6337 -1.1824
12455TIP3   OH258779   6.341   4.040  15.987  1.0161  0.2047 -0.4968
12455TIP3    H158780   6.259   3.994  15.968  0.6413  0.5932  0.1933
12455TIP3    H258781   6.315   4.131  16.001  1.6989  0.5407 -1.3426
12456TIP3   OH258782   2.353   0.570   2.883 -0.5081 -0.3636  0.0572
12456TIP3    H158783   2.382   0.482   2.906  0.1504  0.2592  1.6538
12456TIP3    H258784   2.396   0.588   2.799  0.0181 -1.2486  0.1284
12457TIP3   OH258785   0.014   3.428   2.518 -0.6762  0.7178  0.0566
12457TIP3    H158786   0.039   3.518   2.535  0.7169  1.0207 -3.1340
12457TIP3    H258787  -0.073   3.434   2.478 -0.7560  0.5971  0.2087
12458TIP3   OH258788   6.271   5.193   1.230  0.4277 -0.0136  0.5096
12458TIP3    H158789   6.199   5.130   1.236  0.7831 -0.4685 -0.0039
12458TIP3    H258790   6.345   5.149   1.272  1.0031 -0.4182 -0.9066
12459TIP3   OH258791   1.725   6.333  16.214 -0.1134  0.0164 -0.4156
12459TIP3    H158792   1.674   6.254  16.199 -0.7660  0.4091 -0.3070
12459TIP3    H258793   1.661   6.404  16.207  0.0799  0.3988  1.5634
12460TIP3   OH258794   2.271   1.096   2.845 -0.0130 -0.2193  0.4826
12460TIP3    H158795   2.189   1.134   2.876 -1.0531 -0.6790 -1.6154
12460TIP3    H258796   2.285   1.136   2.760  3.2153  1.6442  1.8035
12461TIP3   OH258797   1.831   1.559  10.790 -0.0201 -0.1886 -0.1225
12461TIP3    H158798   1.848   1.475  10.747  0.0468  0.4881 -1.4375
12461TIP3    H258799   1.876   1.552  10.875  1.4114 -0.8530 -0.9126
12462TIP3   OH258800   1.098   5.332   2.912  0.0738 -0.5705  0.3796
12462TIP3    H158801   1.062   5.286   2.836  0.2607 -0.8487  0.4625
12462TIP3    H258802   1.193   5.333   2.897 -0.0822  1.6956 -0.7253
12463TIP3   OH258803   0.524   1.124   1.551 -0.1019 -0.0894  0.0781
12463TIP3    H158804   0.547   1.124   1.644  0.3994  1.3566 -0.0372
12463TIP3    H258805   0.600   1.085   1.507 -0.2038 -0.4751  0.2448
12464TIP3   OH258806   5.466   1.975   2.849 -0.2480 -0.4309 -0.3923
12464TIP3    H158807   5.560   1.989   2.855 -0.3426  0.2066 -0.3974
12464TIP3    H258808   5.444   1.991   2.757 -0.4240 -0.1699 -0.3070
12465TIP3   OH258809   2.066   0.500   1.258 -1.0409 -0.1113  0.1776
12465TIP3    H158810   2.139   0.455   1.303 -2.5483 -1.7899  1.0064
12465TIP3    H258811   1.998   0.507   1.325 -0.8836  3.4566  0.0698
12466TIP3   OH258812   0.564   5.260   4.524 -0.3387 -0.4329 -0.0885
12466TIP3    H158813   0.508   5.183   4.515  0.1025 -0.6515 -0.9617
12466TIP3    H258814   0.502   5.333   4.533 -0.7596 -0.8958  0.9438
12467TIP3   OH258815   5.098   2.668   1.952  0.3994 -0.0707  0.0526
12467TIP3    H158816   5.161   2.710   2.010  0.2636 -1.7756  1.4660
12467TIP3    H258817   5.141   2.588   1.924  0.6903  1.0059 -2.6999
12468TIP3   OH258818   0.898   2.010   1.172  0.0405 -0.5442 -0.2463
12468TIP3    H158819   0.972   1.981   1.226  0.2088  0.1753 -0.0944
12468TIP3    H258820   0.919   2.100   1.148 -0.9878 -0.1994  0.1380
12469TIP3   OH258821   5.638   6.444  16.808 -0.5025 -1.1541  0.4765
12469TIP3    H158822   5.545   6.469  16.810  0.1211  1.2621  0.7955
12469TIP3    H258823   5.653   6.403  16.892 -1.0157 -0.5082  0.8884
12470TIP3   OH258824   0.702   4.580  15.502 -0.6288  0.3588  1.3921
12470TIP3    H158825   0.652   4.524  15.562  0.7179  0.0648  2.2747
12470TIP3    H258826   0.712   4.662  15.549  2.4410 -0.6333  2.6383
12471TIP3   OH258827   2.537   1.258   3.420 -0.4261 -0.3671  0.1823
12471TIP3    H158828   2.456   1.298   3.386 -1.3434 -1.8494  0.5653
12471TIP3    H258829   2.583   1.227   3.343 -0.4299  0.1070 -0.0101
12472TIP3   OH258830   1.212   3.202   1.049  0.0980  0.1841 -0.0994
12472TIP3    H158831   1.172   3.215   1.135 -0.0104  2.4314 -0.4705
12472TIP3    H258832   1.196   3.110   1.029  3.1108 -1.3164  3.7618
12473TIP3   OH258833   3.987   5.530  14.911 -0.2566  0.1047  0.1057
12473TIP3    H158834   4.013   5.492  14.827 -0.6100  0.3734 -0.1277
12473TIP3    H258835   3.981   5.455  14.971  2.7180  0.2364  0.6198
12474TIP3   OH258836   0.326   2.853   0.284 -0.0500 -0.0443  0.1963
12474TIP3    H158837   0.262   2.818   0.346 -0.0745 -3.5820 -1.6948
12474TIP3    H258838   0.403   2.873   0.338 -1.1845  0.0445  1.8219
12475TIP3   OH258839   0.943   0.337   0.802  0.9954 -0.0194 -0.4434
12475TIP3    H158840   0.940   0.304   0.891  0.9132  0.6669 -0.1851
12475TIP3    H258841   1.030   0.378   0.795  0.6488  0.7490 -0.3694
12476TIP3   OH258842   6.598   4.024   4.264  1.1179  0.2829  0.0022
12476TIP3    H158843   6.690   4.000   4.257  1.3971  1.9327 -2.4911
12476TIP3    H258844   6.561   3.961   4.327  3.5640 -1.4128 -0.2174
12477TIP3   OH258845   6.583   6.586  16.769  0.0999 -0.1627 -0.5991
12477TIP3    H158846   6.489   6.601  16.779  0.3388  1.8513 -1.1755
12477TIP3    H258847   6.624   6.660  16.813  1.4439 -1.4321  0.3089
12478TIP3   OH258848   4.664   3.105  15.945 -0.4187 -0.1004 -0.6095
12478TIP3    H158849   4.689   3.082  15.856 -3.1085 -1.7991 -1.0028
12478TIP3    H258850   4.665   3.201  15.947  1.7493 -0.0742 -1.7953
12479TIP3   OH258851   5.022   2.429  10.932  0.9868 -0.0322 -0.1769
12479TIP3    H158852   5.026   2.525  10.927 -0.6775  0.0015 -0.9443
12479TIP3    H258853   4.930   2.408  10.920  0.8436 -1.5814  3.1809
12480TIP3   OH258854   3.887   2.622  12.155  0.3360  0.3690  0.2217
12480TIP3    H158855   3.825   2.686  12.120  0.1188 -0.3410 -0.7011
12480TIP3    H258856   3.920   2.663  12.235 -1.4253  0.6894  0.8093
12481TIP3   OH258857   6.541   1.340   3.843  0.2798  0.2956  0.2326
12481TIP3    H158858   6.608   1.395   3.802  0.7103 -0.3973  0.0049
12481TIP3    H258859   6.501   1.397   3.909  2.2880  0.1867  1.5870
12482TIP3   OH258860   0.708   4.080   0.287  0.2138 -0.1049 -0.0945
12482TIP3    H158861   0.713   4.023   0.211 -1.5976 -0.7274  0.2149
12482TIP3    H258862   0.769   4.042   0.350  0.0523 -0.8995 -0.4113
12483TIP3   OH258863   0.414   5.665   0.177 -0.4821  0.2099 -0.3589
12483TIP3    H158864   0.343   5.646   0.238 -1.8290  1.2724 -1.5467
12483TIP3    H258865   0.425   5.760   0.183  1.5129 -0.0489  0.5181
12484TIP3   OH258866   5.391   1.568   4.831  0.6996 -0.1800  0.1002
12484TIP3    H158867   5.461   1.568   4.766  1.6515 -0.2732  1.1129
12484TIP3    H258868   5.423   1.626   4.900 -0.3291 -0.0357  0.4620
12485TIP3   OH258869   6.081   4.974   6.449 -0.4289  0.0485  0.1867
12485TIP3    H158870   6.089   5.044   6.384  0.4934 -0.9184 -0.7682
12485TIP3    H258871   6.030   4.906   6.404  0.1786 -0.6061  0.4804
12486TIP3   OH258872   6.113   3.839   0.521  0.0517 -0.9186 -0.1236
12486TIP3    H158873   6.030   3.810   0.484  0.7079 -3.6016  0.3953
12486TIP3    H258874   6.179   3.813   0.457  0.6377 -0.1501  0.1571
12487TIP3   OH258875   1.939   2.199  10.692  0.2088  0.2141 -0.0011
12487TIP3    H158876   1.876   2.256  10.648 -0.7515 -0.5327  0.3850
12487TIP3    H258877   1.949   2.124  10.633  0.4089  0.1284  0.1394
12488TIP3   OH258878   3.306   1.149   2.146  0.2568 -0.0823  0.0546
12488TIP3    H158879   3.360   1.101   2.084  0.3714 -1.1756  0.9993
12488TIP3    H258880   3.217   1.141   2.111 -0.2257 -3.8281  1.9337
12489TIP3   OH258881   0.481   6.339  16.332 -0.2452  0.4528  0.1228
12489TIP3    H158882   0.465   6.414  16.390  0.6759  1.6652 -1.1598
12489TIP3    H258883   0.516   6.272  16.390 -0.8590  1.0729  1.2583
12490TIP3   OH258884   3.189   4.188  16.619 -0.2126 -0.0909 -0.3244
12490TIP3    H158885   3.156   4.103  16.589 -1.5059 -0.2871  1.5448
12490TIP3    H258886   3.270   4.201  16.570 -0.9004 -1.5898 -1.9176
12491TIP3   OH258887   3.216   0.692  11.708  0.2189 -0.0878 -0.5877
12491TIP3    H158888   3.194   0.766  11.651 -1.0679 -0.2809 -0.3458
12491TIP3    H258889   3.133   0.646  11.721  0.7900 -0.8929  0.2352
12492TIP3   OH258890   4.737   0.931  12.819  0.5269  0.2573 -0.7435
12492TIP3    H158891   4.767   0.946  12.729  0.6370  1.6723 -0.4919
12492TIP3    H258892   4.817   0.939  12.872  0.6887 -1.8937 -0.6380
12493TIP3   OH258893   6.674   5.568  12.505 -0.6790  0.0921  0.1373
12493TIP3    H158894   6.588   5.581  12.464  0.1054  0.0661 -1.5636
12493TIP3    H258895   6.666   5.607  12.592 -2.2754  0.4854 -0.1794
12494TIP3   OH258896   6.535   1.116  12.058 -0.3203 -0.1736  0.0582
12494TIP3    H158897   6.563   1.027  12.078 -2.2665 -1.0170 -0.9068
12494TIP3    H258898   6.522   1.116  11.963  0.2350  1.3184 -0.0338
12495TIP3   OH258899   4.172   3.099   0.846  0.2220 -0.0629 -0.3143
12495TIP3    H158900   4.106   3.128   0.783  0.0863  3.0100  1.1292
12495TIP3    H258901   4.134   3.020   0.886 -1.1809 -0.0981 -1.6763
12496TIP3   OH258902   4.375   2.679  14.322  0.3281 -0.2566 -0.3966
12496TIP3    H158903   4.446   2.631  14.279  0.2141 -1.3094  0.5566
12496TIP3    H258904   4.299   2.665  14.265  0.2148 -1.5202  0.0505
12497TIP3   OH258905   3.645   5.036  11.696  0.0517  0.2261  0.1143
12497TIP3    H158906   3.569   5.094  11.692 -0.2639 -0.1384  0.7618
12497TIP3    H258907   3.617   4.957  11.650 -0.2938 -0.2707  1.1585
12498TIP3   OH258908   3.732   5.180   1.211 -0.0647  0.4839  1.4242
12498TIP3    H158909   3.773   5.265   1.196 -1.3377  1.1170  1.4209
12498TIP3    H258910   3.654   5.200   1.263 -1.4408 -0.4158 -0.2136
12499TIP3   OH258911   2.216   1.621   5.620  0.0902 -0.3228 -0.3307
12499TIP3    H158912   2.307   1.642   5.598 -0.5203  1.1688 -1.5564
12499TIP3    H258913   2.190   1.691   5.681 -0.4778 -0.2503 -0.6464
12500TIP3   OH258914   6.363   4.306  11.413 -0.1117 -0.0677 -0.6021
12500TIP3    H158915   6.297   4.290  11.346 -1.2474  0.3156  0.3908
12500TIP3    H258916   6.357   4.400  11.431 -0.4359 -0.3026  0.6238
12501TIP3   OH258917   4.346   6.408  16.015 -0.4019  0.4176  0.3568
12501TIP3    H158918   4.415   6.361  15.968 -0.0388  1.5545 -0.2542
12501TIP3    H258919   4.365   6.391  16.107 -1.2705 -2.0496  0.1342
12502TIP3   OH258920   0.288   4.747  12.017 -0.4446  0.5745 -0.3817
12502TIP3    H158921   0.354   4.769  11.951  0.2103 -0.2515 -0.0112
12502TIP3    H258922   0.308   4.657  12.042 -1.6153  0.3691 -0.1410
12503TIP3   OH258923   3.094   3.759   1.910  0.2766 -0.1346 -0.3359
12503TIP3    H158924   3.140   3.679   1.936  0.2081 -0.2945 -0.7104
12503TIP3    H258925   3.011   3.728   1.874  1.2258 -0.0546 -2.6950
12504TIP3   OH258926   0.869   2.392  12.450 -0.4446 -0.1010  0.4854
12504TIP3    H158927   0.827   2.472  12.420  0.5604  0.8518  1.5843
12504TIP3    H258928   0.857   2.330  12.377  1.1128  1.8582 -1.5066
12505TIP3   OH258929   3.231   3.510   5.048 -0.1639  0.3745  0.4280
12505TIP3    H158930   3.215   3.418   5.031 -1.3045  0.3874  1.4022
12505TIP3    H258931   3.296   3.511   5.119 -1.4655  0.3091  1.6343
12506TIP3   OH258932   1.487   6.206  12.743  0.4496  0.0128 -0.4881
12506TIP3    H158933   1.448   6.147  12.807  1.3931 -0.1776 -0.0679
12506TIP3    H258934   1.491   6.155  12.662 -2.9981  1.0589 -1.4039
12507TIP3   OH258935   5.846   2.329   1.534  0.2669  0.9034  0.2180
12507TIP3    H158936   5.764   2.378   1.536 -0.1189  0.2689  2.5965
12507TIP3    H258937   5.910   2.390   1.496 -0.5329  2.7405  1.6932
12508TIP3   OH258938   5.126   6.127  11.714 -0.2349 -1.0243 -0.2601
12508TIP3    H158939   5.131   6.089  11.626  0.1612  0.4513 -0.8815
12508TIP3    H258940   5.193   6.195  11.714 -0.6201 -0.6416  1.0127
12509TIP3   OH258941   4.790   5.359  14.513  0.0381 -0.4100  0.1205
12509TIP3    H158942   4.734   5.366  14.590  2.4968  0.3450  1.8855
12509TIP3    H258943   4.730   5.370  14.439 -2.1783  0.0348  1.9231
12510TIP3   OH258944   3.418   6.612  11.337  0.3695 -0.1669 -0.2305
12510TIP3    H158945   3.464   6.660  11.406  0.6972 -1.8803  0.7707
12510TIP3    H258946   3.411   6.523  11.370  0.0344 -0.8964 -2.1814
12511TIP3   OH258947   2.962   6.472   1.110 -0.1357  0.5373  0.1304
12511TIP3    H158948   2.893   6.538   1.106  0.9537  1.8449  1.9517
12511TIP3    H258949   2.930   6.409   1.175 -1.0757 -0.6182 -1.4439
12512TIP3   OH258950   6.314   5.622  15.468  0.6696 -0.2379 -0.0109
12512TIP3    H158951   6.291   5.639  15.560 -0.8720  1.0537 -0.6082
12512TIP3    H258952   6.408   5.605  15.470  0.9933  1.5109  1.5901
12513TIP3   OH258953   1.702   2.568   1.533 -0.2691 -0.2106  0.2156
12513TIP3    H158954   1.778   2.571   1.475 -0.1175  1.8048  0.4561
12513TIP3    H258955   1.627   2.573   1.474 -0.1841 -0.7978  0.0547
12514TIP3   OH258956   1.645   5.975   5.288 -0.8697  0.1108  0.5357
12514TIP3    H158957   1.602   5.891   5.272 -2.6694  0.5036  3.0396
12514TIP3    H258958   1.739   5.956   5.281 -1.2566 -2.0958  1.0014
12515TIP3   OH258959   4.506   5.677   6.003  0.2669  0.5709  0.0576
12515TIP3    H158960   4.467   5.708   6.085 -1.4084 -2.0447  0.3271
12515TIP3    H258961   4.599   5.696   6.012  0.1915 -0.1395  2.8466
12516TIP3   OH258962   6.534   1.896  15.584 -0.3544  0.7757 -0.0976
12516TIP3    H158963   6.548   1.976  15.534 -0.7762  0.1415 -1.2476
12516TIP3    H258964   6.491   1.925  15.664 -1.3637  1.6060 -0.9232
12517TIP3   OH258965   5.794   6.262   2.465 -0.4785 -0.2520 -0.9734
12517TIP3    H158966   5.730   6.197   2.495 -0.7857  0.0114 -1.0546
12517TIP3    H258967   5.855   6.271   2.537 -0.8796 -0.0517 -0.6589
12518TIP3   OH258968   0.515   3.466   3.724  0.0973  0.4854 -0.0287
12518TIP3    H158969   0.447   3.399   3.728  0.7990 -0.1978  0.5683
12518TIP3    H258970   0.492   3.518   3.647 -1.0682  0.2337  0.1280
12519TIP3   OH258971   3.898   4.367   2.061  0.0823  1.1353 -0.3771
12519TIP3    H158972   3.872   4.456   2.037 -0.8885  0.9401 -0.0897
12519TIP3    H258973   3.838   4.343   2.131 -0.4949 -0.2142 -1.3163
12520TIP3   OH258974   5.146   0.476  11.911 -0.5319  0.2138  0.5167
12520TIP3    H158975   5.113   0.547  11.965 -0.1986  0.4769  0.3756
12520TIP3    H258976   5.229   0.450  11.952  0.0984  0.9066 -0.2698
12521TIP3   OH258977   2.508   5.906   5.758  0.6330  0.3520  0.3412
12521TIP3    H158978   2.525   5.819   5.794  2.3529  0.4884 -0.1049
12521TIP3    H258979   2.453   5.949   5.824 -0.3347 -1.0959  0.5113
12522TIP3   OH258980   4.534   6.439   5.679  0.0230 -0.0188  0.0806
12522TIP3    H158981   4.546   6.371   5.745  0.8723  0.6108  0.5712
12522TIP3    H258982   4.533   6.521   5.727 -4.2750  0.1529 -0.1303
12523TIP3   OH258983   6.455   4.776  12.921  0.2637  0.1774 -0.6240
12523TIP3    H158984   6.447   4.738  13.009  0.0463  1.7102  0.0389
12523TIP3    H258985   6.368   4.768  12.883 -0.0098  0.8125 -0.1438
12524TIP3   OH258986   4.025   4.558   3.401  0.1946 -0.4329 -0.3755
12524TIP3    H158987   3.972   4.614   3.457  1.6726  1.0417 -0.4068
12524TIP3    H258988   4.075   4.504   3.462  0.9717  0.3867 -0.2743
12525TIP3   OH258989   6.169   5.268  15.171  0.0191 -0.0573 -0.1246
12525TIP3    H158990   6.106   5.214  15.123 -0.7795  1.5034 -0.8886
12525TIP3    H258991   6.187   5.341  15.112 -0.3263  1.4666  1.6093
12526TIP3   OH258992   3.343   1.399  10.341  0.1169 -0.5094  0.1075
12526TIP3    H158993   3.425   1.394  10.293  0.0683  1.2255 -0.1932
12526TIP3    H258994   3.369   1.418  10.432  0.0914 -0.6996  0.1540
12527TIP3   OH258995   6.600   5.583   6.107 -1.0420  0.0202  0.2042
12527TIP3    H158996   6.571   5.536   6.185 -0.8304  1.6521  1.2889
12527TIP3    H258997   6.524   5.585   6.050 -0.9616 -1.9082  0.0034
12528TIP3   OH258998   0.261   1.766   4.100  0.3959 -0.4353  0.4216
12528TIP3    H158999   0.317   1.844   4.097  0.0077 -0.1947 -0.8111
12528TIP3    H259000   0.174   1.800   4.119  0.5276 -0.7459  1.6349
12529TIP3   OH259001   3.515   4.594   4.441 -0.4186  0.0499  1.1840
12529TIP3    H159002   3.490   4.504   4.461 -0.4960 -0.5004 -1.2689
12529TIP3    H259003   3.604   4.602   4.476  0.5932 -1.8039 -0.8321
12530TIP3   OH259004   3.913   0.614   2.846  0.4868  0.3938 -0.5008
12530TIP3    H159005   3.934   0.597   2.755  1.1510  0.6591 -0.4062
12530TIP3    H259006   3.984   0.572   2.895 -0.7216 -1.1279 -0.0254
12531TIP3   OH259007   5.743   1.749  13.083 -0.0650  0.2938  0.1894
12531TIP3    H159008   5.744   1.744  12.987 -0.8470 -1.1297  0.2340
12531TIP3    H259009   5.824   1.706  13.111  0.4404  1.2120  0.1640
12532TIP3   OH259010   3.963   2.431   4.684 -0.2448  0.8993 -0.4747
12532TIP3    H159011   3.924   2.354   4.643 -0.0461  1.6767 -2.1911
12532TIP3    H259012   3.989   2.402   4.771 -2.2140 -0.3444 -0.2819
12533TIP3   OH259013   0.345   3.226   5.897 -0.3991 -0.5099 -0.0065
12533TIP3    H159014   0.292   3.305   5.895  0.0565 -0.1986  0.2431
12533TIP3    H259015   0.302   3.167   5.834 -1.3622 -0.4751  0.6058
12534TIP3   OH259016   1.745   6.573   2.767 -0.4606  0.4581  0.1340
12534TIP3    H159017   1.782   6.616   2.844 -2.0315  0.5661  0.8452
12534TIP3    H259018   1.796   6.492   2.758 -0.3790  0.3659  1.3831
12535TIP3   OH259019   4.107   2.573  14.542  0.1133 -0.3998  0.4983
12535TIP3    H159020   4.092   2.517  14.619  0.4353 -0.2029  0.7045
12535TIP3    H259021   4.166   2.641  14.574 -0.8165  0.4469  0.4252
12536TIP3   OH259022   3.358   1.384   5.083 -0.1436 -0.0463  0.5783
12536TIP3    H159023   3.402   1.466   5.100  1.4309 -1.0689  1.5241
12536TIP3    H259024   3.267   1.409   5.066  0.6412  2.0204 -0.8132
12537TIP3   OH259025   3.777   0.895   4.427 -0.4254  0.3069 -0.5189
12537TIP3    H159026   3.770   0.990   4.418 -0.1176  0.4383  0.6158
12537TIP3    H259027   3.853   0.881   4.484  0.1283 -0.6543 -1.4534
12538TIP3   OH259028   1.198   6.583   4.033 -0.2416 -0.8519  0.5907
12538TIP3    H159029   1.133   6.591   3.963 -1.0587 -0.3190  1.3889
12538TIP3    H259030   1.265   6.648   4.013 -1.3167  0.4770  1.1768
12539TIP3   OH259031   0.147   0.001   4.187  0.4658  0.5620  0.0285
12539TIP3    H159032   0.239   0.021   4.169  0.8421 -1.2028 -0.0985
12539TIP3    H259033   0.148  -0.087   4.225 -1.1536  0.5749  0.1536
12540TIP3   OH259034   5.221   1.714   0.106  0.2499  0.3184 -0.6693
12540TIP3    H159035   5.232   1.805   0.133 -0.7650  0.1833  0.2388
12540TIP3    H259036   5.127   1.701   0.104  0.3954 -0.8371 -0.3297
12541TIP3   OH259037   4.131   1.539   1.881  0.1245 -0.2195  0.3269
12541TIP3    H159038   4.105   1.472   1.817 -1.6010  0.7612 -0.0292
12541TIP3    H259039   4.216   1.570   1.850 -0.2529 -0.4362 -0.9636
12542TIP3   OH259040   0.210   5.309   2.472 -0.1362 -0.1829  0.8441
12542TIP3    H159041   0.115   5.303   2.460 -0.0519 -0.9354  0.5009
12542TIP3    H259042   0.242   5.340   2.387 -0.1100  0.4722  1.0905
12543TIP3   OH259043   1.797   5.457  13.628 -0.9470 -0.3713 -0.4657
12543TIP3    H159044   1.850   5.500  13.561  0.6330  0.7526  1.4518
12543TIP3    H259045   1.725   5.417  13.579 -0.1519  0.8915 -2.7639
12544TIP3   OH259046   3.226   4.782   5.853 -0.0979 -0.2417  0.1958
12544TIP3    H159047   3.315   4.756   5.876 -0.2452  1.4389  2.9805
12544TIP3    H259048   3.171   4.708   5.882  0.3231 -0.9783 -0.8831
12545TIP3   OH259049   1.921   0.847   6.154 -0.4101  0.0448  0.0705
12545TIP3    H159050   1.947   0.795   6.078 -1.8346 -1.0747  0.3235
12545TIP3    H259051   1.926   0.786   6.228 -0.0964  0.8245  0.7022
12546TIP3   OH259052   4.745   4.241   3.007 -0.5802 -0.2171  0.5076
12546TIP3    H159053   4.745   4.230   3.102 -0.2367  0.7393  0.6179
12546TIP3    H259054   4.721   4.332   2.993 -0.0413 -0.1987 -0.3104
12547TIP3   OH259055   4.995   6.754   1.205 -1.0674  0.3938  0.3063
12547TIP3    H159056   5.079   6.777   1.165  0.4599 -0.5081  2.8423
12547TIP3    H259057   4.976   6.826   1.265 -0.0248 -1.2582  2.7142
12548TIP3   OH259058   6.145   3.783   1.872 -0.5343  0.0818 -0.2801
12548TIP3    H159059   6.124   3.851   1.808 -2.4841 -0.0931  0.1539
12548TIP3    H259060   6.064   3.769   1.921  0.3089 -1.3648  0.7634
12549TIP3   OH259061   2.930   1.535   1.417  0.4161  0.1109  0.4064
12549TIP3    H159062   2.845   1.576   1.406  0.4951  0.4145  0.8984
12549TIP3    H259063   2.992   1.596   1.378  0.1992 -1.1446 -1.9978
12550TIP3   OH259064   2.391   3.619   3.604  0.3525 -0.5965 -0.0756
12550TIP3    H159065   2.328   3.551   3.628  0.9964 -1.2775 -0.2677
12550TIP3    H259066   2.452   3.575   3.545  0.1222  0.4557 -1.1159
12551TIP3   OH259067   1.921   0.041   6.068 -0.3332  0.0278  0.0110
12551TIP3    H159068   1.959  -0.047   6.067  0.2908  0.2625  1.8142
12551TIP3    H259069   1.829   0.028   6.047 -0.1152 -0.9981 -0.3154
12552TIP3   OH259070   2.687   5.437  14.102 -0.6682 -0.1058  0.1963
12552TIP3    H159071   2.726   5.441  14.015 -2.0187  0.8197 -0.3755
12552TIP3    H259072   2.709   5.521  14.142 -1.9571  0.3884 -0.0969
12553TIP3   OH259073   6.577   3.081  10.656  0.2828 -0.0851  0.2474
12553TIP3    H159074   6.613   3.160  10.695  1.5560 -1.0258  1.0267
12553TIP3    H259075   6.626   3.010  10.697 -2.1667 -1.3823  1.0250
12554TIP3   OH259076   5.986   5.001  13.448  0.5229 -0.1945  0.5166
12554TIP3    H159077   6.032   4.951  13.381  0.0054  0.8003 -0.6033
12554TIP3    H259078   5.972   5.088  13.409 -0.9532 -0.0074  1.3955
12555TIP3   OH259079   0.019   0.481  15.428  0.7798  0.1995  0.0233
12555TIP3    H159080  -0.029   0.488  15.345  2.0988  0.4228 -0.7385
12555TIP3    H259081  -0.023   0.546  15.485  1.2678  1.6142 -1.1886
12556TIP3   OH259082   3.845   6.025  15.636 -0.0677 -0.1290  0.3316
12556TIP3    H159083   3.890   5.995  15.715  2.2426  3.0393  0.3073
12556TIP3    H259084   3.756   5.990  15.645  1.4310 -3.8051  1.9678
12557TIP3   OH259085   3.760   0.750   1.939  0.1327  0.4608 -0.0294
12557TIP3    H159086   3.698   0.814   1.903  2.2131  3.2163  1.1585
12557TIP3    H259087   3.814   0.724   1.865 -0.3128  0.5107 -0.3762
12558TIP3   OH259088   4.323   2.331   3.353  0.4274 -0.4632  0.5404
12558TIP3    H159089   4.371   2.413   3.344  1.2551 -1.1354 -1.4879
12558TIP3    H259090   4.391   2.264   3.361 -0.2105 -1.2141 -0.2971
12559TIP3   OH259091   1.870   4.112   5.009 -0.3759  0.1618  0.6710
12559TIP3    H159092   1.807   4.167   4.962 -1.1514 -0.5755  0.8294
12559TIP3    H259093   1.885   4.157   5.092  0.9550  1.4442 -0.2323
12560TIP3   OH259094   0.701   3.838   1.176  0.3405  0.0434 -0.2746
12560TIP3    H159095   0.738   3.876   1.255  1.1504  0.1540 -0.6943
12560TIP3    H259096   0.689   3.912   1.117  1.6192 -0.2992 -0.9767
12561TIP3   OH259097   2.343   4.553  14.063 -0.2471  0.2601 -0.9786
12561TIP3    H159098   2.293   4.603  13.998 -0.2988 -1.3128 -2.1966
12561TIP3    H259099   2.313   4.463  14.051  0.9673 -0.2988  0.0984
12562TIP3   OH259100   5.973   2.713  15.448  0.7512 -0.0068  0.0372
12562TIP3    H159101   6.023   2.636  15.419 -1.7836 -1.1271 -1.4845
12562TIP3    H259102   5.885   2.680  15.464 -0.4559  2.6494 -0.9085
12563TIP3   OH259103   5.021   6.307   5.008  0.6028 -0.3551 -0.6433
12563TIP3    H159104   5.048   6.222   5.045  1.9885 -0.0917 -1.0367
12563TIP3    H259105   4.964   6.284   4.935 -0.4231 -0.9156  0.3056
12564TIP3   OH259106   5.262   1.212   5.261  0.4040  0.1994  0.2589
12564TIP3    H159107   5.204   1.142   5.232  0.2031  0.5271 -0.1243
12564TIP3    H259108   5.205   1.287   5.278  0.3695 -0.2977  2.5747
12565TIP3   OH259109   2.129   2.303  15.748  0.0277 -0.3471  0.0672
12565TIP3    H159110   2.039   2.309  15.781  0.6588 -0.1060  1.7862
12565TIP3    H259111   2.144   2.387  15.704 -1.5538 -1.4922 -2.8598
12566TIP3   OH259112   0.673   1.019  13.222 -0.6496 -0.1664 -0.2087
12566TIP3    H159113   0.667   1.108  13.255  0.7048  0.1675 -0.8469
12566TIP3    H259114   0.589   0.979  13.246 -1.0764  1.1257  0.4916
12567TIP3   OH259115   3.904   0.674  14.755  0.1718 -0.6374 -0.2723
12567TIP3    H159116   3.906   0.667  14.850  0.0791  1.4821 -0.0889
12567TIP3    H259117   3.864   0.592  14.725 -0.1441 -1.1471  1.5239
12568TIP3   OH259118   3.156   2.019  16.396  1.0277  0.5300  0.2221
12568TIP3    H159119   3.232   2.037  16.340 -0.0137 -0.3176 -1.5067
12568TIP3    H259120   3.081   2.024  16.336  0.1751 -3.8970  0.7541
12569TIP3   OH259121   3.891   3.775   0.180  0.6924  0.1918  0.3125
12569TIP3    H159122   3.859   3.722   0.253 -0.6224 -0.6928 -0.8762
12569TIP3    H259123   3.964   3.724   0.143  0.1211 -0.2884 -0.1651
12570TIP3   OH259124   2.162   0.402   2.159  0.0483 -0.4119 -0.1431
12570TIP3    H159125   2.126   0.392   2.071 -0.7218  0.7844  0.0155
12570TIP3    H259126   2.237   0.460   2.147  0.9261 -1.5675 -0.2395
12571TIP3   OH259127   5.464   5.814  14.039  0.2241 -0.4649 -0.1142
12571TIP3    H159128   5.422   5.769  13.965  1.5388 -0.9337 -0.5955
12571TIP3    H259129   5.442   5.906  14.026 -2.1198 -0.8975  0.6304
12572TIP3   OH259130   1.379   1.814  16.556  0.2285  0.0938  0.5268
12572TIP3    H159131   1.298   1.827  16.507  0.9565 -1.2824 -1.0785
12572TIP3    H259132   1.363   1.857  16.641 -2.3788 -0.7202  0.4828
12573TIP3   OH259133   2.563   0.543  11.763  0.1751  0.5621  0.6235
12573TIP3    H159134   2.556   0.464  11.816  0.5220  0.9472  1.2480
12573TIP3    H259135   2.501   0.605  11.803  2.6612  1.9205  2.5084
12574TIP3   OH259136   1.775   6.035   3.072  0.4616 -0.1188  0.5768
12574TIP3    H159137   1.722   5.956   3.087  1.4818 -0.9003  0.1545
12574TIP3    H259138   1.776   6.045   2.977 -0.4158  0.9294  0.6808
12575TIP3   OH259139   2.498   0.240   2.082  0.2068 -0.1862 -0.3017
12575TIP3    H159140   2.499   0.286   2.165 -1.7025 -0.9778  0.2017
12575TIP3    H259141   2.441   0.292   2.026  0.1337 -0.5447 -0.5666
12576TIP3   OH259142   6.450   4.586  12.512 -0.7205  0.5790  0.0829
12576TIP3    H159143   6.427   4.650  12.445  1.8054  0.5484 -0.8631
12576TIP3    H259144   6.533   4.617  12.547 -0.8483 -0.6901  1.5563
12577TIP3   OH259145   5.772   1.575  11.612  0.2114  0.1930 -0.2891
12577TIP3    H159146   5.787   1.636  11.540  2.2047  0.5785  0.3929
12577TIP3    H259147   5.764   1.489  11.571 -0.4425  0.6418 -1.0963
12578TIP3   OH259148   2.885   4.317  13.935 -0.2390  0.1905 -0.1837
12578TIP3    H159149   2.944   4.317  13.859  1.0959 -0.7749  0.8315
12578TIP3    H259150   2.806   4.272  13.905  0.3728 -0.3951 -0.9258
12579TIP3   OH259151   6.154   5.472  12.495 -0.4557 -0.6540  0.7343
12579TIP3    H159152   6.069   5.494  12.534 -0.5978 -1.0558  0.6504
12579TIP3    H259153   6.138   5.391  12.447 -0.0517 -0.6652  0.6204
12580TIP3   OH259154   1.263   2.735  17.231 -0.4670  0.6832 -0.2612
12580TIP3    H159155   1.186   2.756  17.283  0.1807 -0.6739  1.2890
12580TIP3    H259156   1.336   2.777  17.277  0.6763 -3.6990  2.2295
12581TIP3   OH259157   1.862   4.300   1.730 -0.3026  0.5575  0.2063
12581TIP3    H159158   1.786   4.297   1.672 -1.9523  1.1794  2.2794
12581TIP3    H259159   1.901   4.212   1.723 -1.6241  0.0124 -0.3278
12582TIP3   OH259160   2.724   0.172   2.479  0.3735 -0.1228  0.2649
12582TIP3    H159161   2.755   0.256   2.513  0.5146 -0.1216  0.1359
12582TIP3    H259162   2.779   0.156   2.402  2.1677 -1.5884  1.8003
12583TIP3   OH259163   5.123   1.689   5.459  0.1914  0.0742  0.0136
12583TIP3    H159164   5.103   1.644   5.541  1.5309  2.2484  1.5760
12583TIP3    H259165   5.100   1.780   5.475  1.4332  0.7153 -1.6772
12584TIP3   OH259166   0.978   1.200  13.269 -0.7716  0.0991 -0.9305
12584TIP3    H159167   1.060   1.191  13.317 -0.4596 -1.1458 -1.6652
12584TIP3    H259168   0.917   1.143  13.316 -1.5109  1.8480  0.2433
12585TIP3   OH259169   0.037   5.691  15.197 -0.4934  0.2638  0.5356
12585TIP3    H159170  -0.051   5.683  15.235 -0.4762  1.3417  0.8179
12585TIP3    H259171   0.092   5.635  15.252 -1.3683 -2.1127 -0.9110
12586TIP3   OH259172   4.817   1.577  15.509 -0.2854  0.2947  0.5417
12586TIP3    H159173   4.798   1.486  15.488  1.0685  0.1256 -0.0335
12586TIP3    H259174   4.860   1.611  15.430  0.8447  0.9105  1.4009
12587TIP3   OH259175   3.511   5.815   4.399  0.2292  0.0726  0.2105
12587TIP3    H159176   3.492   5.726   4.371  0.0381  0.1856 -0.0226
12587TIP3    H259177   3.535   5.808   4.491  1.4975 -0.3940 -0.1422
12588TIP3   OH259178   6.659   1.679  15.638 -0.1038 -0.2386 -0.0568
12588TIP3    H159179   6.634   1.658  15.728  0.0534 -0.6890 -0.1201
12588TIP3    H259180   6.604   1.754  15.615  2.1863  1.9960  1.5691
12589TIP3   OH259181   5.686   5.546   2.957  0.5214  0.5020 -0.2970
12589TIP3    H159182   5.776   5.544   2.925 -0.3750  0.1731 -2.9297
12589TIP3    H259183   5.650   5.460   2.934 -1.1475  1.4681 -1.4372
12590TIP3   OH259184   3.222   5.512   0.667 -0.6196  0.4934  0.0648
12590TIP3    H159185   3.262   5.527   0.581  0.5995  2.8934  1.0028
12590TIP3    H259186   3.137   5.555   0.662 -1.2371 -0.7603 -0.4497
12591TIP3   OH259187   6.703   6.130   2.627 -0.0075  0.2616 -0.0521
12591TIP3    H159188   6.699   6.210   2.679  0.9748  0.3199 -0.0420
12591TIP3    H259189   6.741   6.065   2.686  2.6644  0.7491 -1.1540
12592TIP3   OH259190   2.241   1.167   5.624 -0.7209 -0.3112  0.3881
12592TIP3    H159191   2.313   1.225   5.646 -0.7311 -0.6475  1.3202
12592TIP3    H259192   2.279   1.102   5.565 -0.5690  0.2793 -0.1675
12593TIP3   OH259193   1.986   0.640  12.731 -0.0688 -0.0564 -0.6055
12593TIP3    H159194   1.934   0.697  12.674  0.3031  0.6671 -0.2353
12593TIP3    H259195   2.038   0.701  12.784  0.9012 -0.7541 -0.7380
12594TIP3   OH259196   6.260   4.685   3.439 -0.1356  0.0207  0.6133
12594TIP3    H159197   6.309   4.764   3.414 -0.8679  1.1977  2.8227
12594TIP3    H259198   6.314   4.644   3.507 -0.9999  0.0033  1.2959
12595TIP3   OH259199   4.962   4.575   5.891 -0.2930 -0.1465  0.6916
12595TIP3    H159200   4.973   4.577   5.986  2.1466 -2.1114  0.5143
12595TIP3    H259201   4.930   4.487   5.873  1.1223 -0.4423 -0.4469
12596TIP3   OH259202   2.490   2.428  11.211 -0.1158 -0.1963  0.3128
12596TIP3    H159203   2.421   2.362  11.217  0.1551 -0.5717 -0.6418
12596TIP3    H259204   2.512   2.432  11.118  3.3689 -2.4142  0.9492
12597TIP3   OH259205   1.513   5.236   1.506  0.2034 -0.2054 -0.3739
12597TIP3    H159206   1.598   5.280   1.496  0.3757 -0.6402 -0.8393
12597TIP3    H259207   1.534   5.153   1.547 -0.0838  0.0009  0.1838
12598TIP3   OH259208   1.812   0.791   4.617  0.1163  0.5638  0.6659
12598TIP3    H159209   1.822   0.715   4.561  0.3653  1.8109 -1.0036
12598TIP3    H259210   1.805   0.755   4.706 -0.1203 -1.4035 -0.1374
12599TIP3   OH259211   2.607   2.971   2.777  0.2808 -0.3775 -0.7954
12599TIP3    H159212   2.561   2.890   2.798  0.2789 -0.4577 -1.1093
12599TIP3    H259213   2.632   3.007   2.862  0.2917 -0.7122 -0.6579
12600TIP3   OH259214   2.342   5.338   0.914  0.1689  0.6165 -0.3506
12600TIP3    H159215   2.315   5.298   0.997 -1.0729  0.4500 -0.8288
12600TIP3    H259216   2.422   5.291   0.890 -0.3183 -0.3898 -0.0287
12601TIP3   OH259217   4.858   2.159  13.942  0.8775 -0.1336 -0.6269
12601TIP3    H159218   4.788   2.094  13.931 -0.2855  1.0305 -0.3400
12601TIP3    H259219   4.869   2.165  14.037  1.5906 -0.5491 -0.6859
12602TIP3   OH259220   2.371   6.767  11.461 -0.1200  0.1272  0.2970
12602TIP3    H159221   2.349   6.839  11.520  1.2546 -0.9667  2.2012
12602TIP3    H259222   2.332   6.792  11.377 -3.2246  1.1321  1.9638
12603TIP3   OH259223   5.414   6.696  13.181  0.7671 -0.1926 -0.4060
12603TIP3    H159224   5.445   6.777  13.222  1.2166  0.0963 -1.3115
12603TIP3    H259225   5.456   6.626  13.232 -0.7493  0.1052  1.2788
12604TIP3   OH259226   0.558   0.669  16.478  0.4081  0.6864 -0.3269
12604TIP3    H159227   0.641   0.702  16.513  0.5040  1.7516 -1.4985
12604TIP3    H259228   0.584   0.599  16.418  0.5629  1.8338 -1.6213
12605TIP3   OH259229   4.982   1.418   1.228  0.0131  0.2437 -0.4872
12605TIP3    H159230   4.950   1.354   1.165  0.2291 -0.7753  0.4264
12605TIP3    H259231   4.944   1.391   1.312  0.9475  0.7030  0.0930
12606TIP3   OH259232   2.347   3.283   5.991  0.6362  0.1588  0.1401
12606TIP3    H159233   2.388   3.196   5.993  0.8839  0.2874  1.2641
12606TIP3    H259234   2.265   3.272   6.040 -0.1256  0.1774 -1.1105
12607TIP3   OH259235   5.117   2.878   4.848  0.0731  0.5019 -0.0471
12607TIP3    H159236   5.148   2.943   4.910  1.4130  0.0247 -0.2111
12607TIP3    H259237   5.029   2.856   4.880 -0.0130  1.6651  0.5627
12608TIP3   OH259238   0.347   4.164  12.402  0.3472  0.1343 -0.0487
12608TIP3    H159239   0.409   4.221  12.448  0.4443  1.1840 -1.4579
12608TIP3    H259240   0.402   4.094  12.366  0.0393 -1.7383  2.9516
12609TIP3   OH259241   6.646   1.692  12.228  0.2052  0.0496 -0.2234
12609TIP3    H159242   6.613   1.773  12.189 -1.7545 -1.0782 -0.9887
12609TIP3    H259243   6.648   1.630  12.155  0.6466 -0.8957  0.5860
12610TIP3   OH259244   1.234   6.099  17.030  0.0118  0.4373 -0.0922
12610TIP3    H159245   1.262   6.182  16.993  0.2842  0.8675  1.0691
12610TIP3    H259246   1.247   6.109  17.124 -0.9442 -0.5353  0.1513
12611TIP3   OH259247   6.259   0.658   2.897  0.3359  0.2086  0.1312
12611TIP3    H159248   6.231   0.746   2.873  0.2132  0.0021 -0.5082
12611TIP3    H259249   6.206   0.600   2.842  0.7231 -0.2453  0.2258
12612TIP3   OH259250   0.345   4.641   1.899 -0.5732 -0.2100 -0.1634
12612TIP3    H159251   0.394   4.669   1.822  1.2109 -2.9878 -0.1334
12612TIP3    H259252   0.253   4.651   1.875 -0.0330  2.8690 -1.1090
12613TIP3   OH259253   0.056   2.531  14.676 -0.3846 -0.1981 -0.5635
12613TIP3    H159254   0.071   2.475  14.601 -0.9434  0.5967 -1.2856
12613TIP3    H259255   0.143   2.548  14.712  0.0389  0.7255 -1.9965
12614TIP3   OH259256   6.293   6.386   1.050 -0.3399  0.1822  0.6399
12614TIP3    H159257   6.289   6.469   1.096 -1.8171  0.0181  0.8547
12614TIP3    H259258   6.310   6.321   1.117  0.8458  0.3130  0.4672
12615TIP3   OH259259   4.744   0.962  11.152 -0.1662 -0.4863  0.6821
12615TIP3    H159260   4.726   0.897  11.083  0.3386  0.1192 -0.0358
12615TIP3    H259261   4.699   1.041  11.121  0.3733 -0.1083  0.8635
12616TIP3   OH259262   6.727   0.610   5.354 -0.2029 -0.3445 -0.6541
12616TIP3    H159263   6.818   0.608   5.324  0.1589 -1.4575  0.4769
12616TIP3    H259264   6.676   0.620   5.273  0.9596  1.8657 -1.1656
12617TIP3   OH259265   0.508   0.414   1.387  0.0422  0.4453 -0.0083
12617TIP3    H159266   0.513   0.354   1.313  3.1830 -0.0841  0.5780
12617TIP3    H259267   0.427   0.389   1.432 -0.4229 -1.1041 -1.6480
12618TIP3   OH259268   4.792   1.970   5.373  0.7052 -0.4162 -0.1698
12618TIP3    H159269   4.880   1.967   5.335  0.4644 -0.3373 -0.7329
12618TIP3    H259270   4.807   1.962   5.467  1.5479  2.8575  0.0090
12619TIP3   OH259271   1.803   2.930  13.237 -0.4632  0.1541  0.2675
12619TIP3    H159272   1.892   2.960  13.221 -0.3087  0.9744  2.4103
12619TIP3    H259273   1.748   3.007  13.223 -0.6181  0.1567  0.8656
12620TIP3   OH259274   0.753   4.478  13.515 -0.0380  0.5025 -0.4472
12620TIP3    H159275   0.706   4.400  13.545  1.5362 -1.0930 -1.9829
12620TIP3    H259276   0.695   4.551  13.537 -2.7592 -1.3113 -1.3761
12621TIP3   OH259277   6.230   2.387  14.280  0.5201  0.4755  0.1395
12621TIP3    H159278   6.290   2.404  14.207  1.9462  0.1557  1.2274
12621TIP3    H259279   6.233   2.292  14.291 -0.2681  0.4465  0.1519
12622TIP3   OH259280   1.182   3.390   4.756  0.2576 -0.6929 -0.0911
12622TIP3    H159281   1.202   3.347   4.674 -0.5643 -0.8386 -0.2208
12622TIP3    H259282   1.095   3.429   4.742  0.5711  0.1716  0.3451
12623TIP3   OH259283   3.189   2.686  10.714  0.4222 -0.2881  0.0490
12623TIP3    H159284   3.269   2.639  10.691  0.4140 -0.5576  0.5637
12623TIP3    H259285   3.198   2.772  10.673 -0.0870 -1.1451 -1.9103
12624TIP3   OH259286   6.121   0.712   5.051 -0.6427 -0.3513  0.0597
12624TIP3    H159287   6.114   0.754   4.965 -0.8103 -0.4685  0.0140
12624TIP3    H259288   6.193   0.757   5.094  2.0139 -2.8141 -1.5847
12625TIP3   OH259289   1.135   4.200   4.336 -0.4532 -0.1219  0.5176
12625TIP3    H159290   1.210   4.194   4.394 -1.5110  0.8250  2.0339
12625TIP3    H259291   1.061   4.219   4.394 -1.4963  1.1167 -1.1571
12626TIP3   OH259292   5.130   0.037  12.137 -0.5491  0.1141  0.3756
12626TIP3    H159293   5.198  -0.010  12.185  2.1268  1.6134 -1.8099
12626TIP3    H259294   5.154   0.129  12.146 -2.1146  0.6414 -0.7212
12627TIP3   OH259295   3.286   0.786   3.652  0.3319  0.7430  0.0307
12627TIP3    H159296   3.344   0.713   3.672  0.0111  0.4558 -0.0740
12627TIP3    H259297   3.262   0.774   3.560 -0.2430  0.6026  0.1914
12628TIP3   OH259298   3.915   4.028  11.312 -0.0090  0.0856  0.4148
12628TIP3    H159299   3.952   4.081  11.241  0.4746  1.3994  1.6041
12628TIP3    H259300   3.825   4.010  11.285  0.8279 -1.3106 -1.5278
12629TIP3   OH259301   5.470   3.968  13.252  0.2844  0.5633  0.2036
12629TIP3    H159302   5.513   3.903  13.308  0.1875  0.4626  0.1612
12629TIP3    H259303   5.447   3.920  13.172  3.5236  1.5223 -1.3759
12630TIP3   OH259304   5.434   1.826   5.017 -0.1554 -0.4452  0.5408
12630TIP3    H159305   5.343   1.844   4.994 -0.0918 -1.9748 -0.9976
12630TIP3    H259306   5.437   1.831   5.112 -1.3814  1.7148  0.5093
12631TIP3   OH259307   1.647   2.127  11.786  0.1259  0.2042 -0.0895
12631TIP3    H159308   1.666   2.142  11.879 -3.6686  0.7976  0.6529
12631TIP3    H259309   1.643   2.215  11.749  3.1081 -0.0701 -1.2127
12632TIP3   OH259310   6.327   1.020   4.850 -0.5365  0.2018 -0.1704
12632TIP3    H159311   6.322   1.105   4.893 -1.6434  0.5057 -0.9064
12632TIP3    H259312   6.279   1.031   4.768 -0.9330 -1.2145 -0.1334
12633TIP3   OH259313   5.754   1.040  14.853  0.5385  0.4511 -0.2112
12633TIP3    H159314   5.680   1.088  14.891 -1.3664 -0.7112 -2.3571
12633TIP3    H259315   5.727   0.949  14.856  2.0696 -0.0352 -0.6943
12634TIP3   OH259316   3.798   1.134  16.867  0.2902 -0.2272  0.2064
12634TIP3    H159317   3.809   1.202  16.802  1.7721  0.4969  1.1833
12634TIP3    H259318   3.846   1.166  16.944 -0.6726 -1.4535  1.3529
12635TIP3   OH259319   1.915   6.710  11.874 -0.0139  0.1742 -0.6164
12635TIP3    H159320   1.953   6.779  11.928  1.6661 -1.2955  0.1470
12635TIP3    H259321   1.886   6.644  11.937 -0.6634 -0.2880 -1.3852
12636TIP3   OH259322   3.511   1.473   0.743  0.0811  0.2937 -0.1245
12636TIP3    H159323   3.502   1.382   0.774  2.2050  0.5694  1.3968
12636TIP3    H259324   3.472   1.526   0.812  1.3291  0.6940  0.2799
12637TIP3   OH259325   0.479   2.919   4.003 -1.0855 -0.0672 -0.0529
12637TIP3    H159326   0.422   2.907   3.927 -0.9910 -0.1899 -0.1026
12637TIP3    H259327   0.451   3.003   4.040 -1.6224 -0.3463  0.1947
12638TIP3   OH259328   4.517   5.044   4.782 -0.1920 -0.0152 -0.0611
12638TIP3    H159329   4.521   5.117   4.843  0.1716  1.6047 -1.9495
12638TIP3    H259330   4.608   5.030   4.754 -0.3250 -0.8532 -0.1061
12639TIP3   OH259331   1.791   3.887   6.414 -0.6212 -0.1864  0.7477
12639TIP3    H159332   1.827   3.799   6.421  0.4599  0.3266  1.8767
12639TIP3    H259333   1.748   3.902   6.498 -3.0952 -0.5894 -0.3793
12640TIP3   OH259334   1.995   5.363  16.582  0.2307 -0.1392  0.2634
12640TIP3    H159335   2.054   5.289  16.592 -0.0627 -0.3096  0.7370
12640TIP3    H259336   1.941   5.340  16.506  2.2068  0.9961 -1.5293
12641TIP3   OH259337   1.608   0.678   5.543  1.1968 -0.1214 -0.1298
12641TIP3    H159338   1.573   0.602   5.497  0.2143  0.2932 -0.0864
12641TIP3    H259339   1.594   0.659   5.636 -2.4760  1.6740 -0.2177
12642TIP3   OH259340   1.088   5.182   1.825 -0.0903  0.0001 -0.9242
12642TIP3    H159341   1.136   5.149   1.749  2.0359 -0.4989  0.5943
12642TIP3    H259342   1.123   5.269   1.841  0.6307 -0.5080  0.4110
12643TIP3   OH259343   0.964   2.961   3.170  0.1560 -0.0551 -0.0042
12643TIP3    H159344   1.037   2.950   3.109  0.0524 -0.1213 -0.1154
12643TIP3    H259345   0.887   2.935   3.120 -0.0070  0.5289 -0.0581
12644TIP3   OH259346   3.751   4.634   2.042  0.2684 -0.0691 -0.0689
12644TIP3    H159347   3.834   4.650   2.088 -0.0491 -0.2610  0.5713
12644TIP3    H259348   3.759   4.685   1.961  0.7468  0.4371  0.2902
12645TIP3   OH259349   2.193   2.556   0.915  0.6193  0.9624  0.3435
12645TIP3    H159350   2.161   2.474   0.953  0.4870  1.2998  0.9683
12645TIP3    H259351   2.124   2.620   0.931  0.8685  1.2812  0.1714
12646TIP3   OH259352   3.133   6.432   5.629  0.2700  0.2149 -0.1356
12646TIP3    H159353   3.170   6.467   5.548 -0.9240 -0.0870 -0.8145
12646TIP3    H259354   3.068   6.368   5.600 -0.8318  0.7754  1.0441
12647TIP3   OH259355   4.702   2.103   6.339 -0.1776  0.1579 -0.2240
12647TIP3    H159356   4.692   2.194   6.368 -0.3399  0.1050 -0.1106
12647TIP3    H259357   4.620   2.084   6.293 -0.3576 -0.0923  0.1944
12648TIP3   OH259358   4.392   5.942  14.654 -0.0615 -0.1664 -0.2379
12648TIP3    H159359   4.444   5.960  14.576 -0.4837  1.4182 -0.1741
12648TIP3    H259360   4.328   6.013  14.657  0.6207  0.3797  2.1154
12649TIP3   OH259361   5.645   3.562  13.713 -0.2586  0.0622  0.3808
12649TIP3    H159362   5.611   3.539  13.800 -0.1278 -1.1877  0.1197
12649TIP3    H259363   5.740   3.566  13.725 -0.2044 -0.6031  0.1904
12650TIP3   OH259364   2.146   4.748   0.089  0.4047 -0.0198 -0.1206
12650TIP3    H159365   2.083   4.699   0.143  2.2950 -0.8744  1.3604
12650TIP3    H259366   2.113   4.838   0.089 -0.7198 -0.4243  0.7731
12651TIP3   OH259367   5.851   1.586  15.095 -1.0334  0.3218  0.5034
12651TIP3    H159368   5.824   1.507  15.142 -2.2233  1.2696  1.4378
12651TIP3    H259369   5.769   1.631  15.075 -0.5169  0.2155 -2.0210
12652TIP3   OH259370   5.230   5.121  10.391  0.3454  0.1793 -0.2842
12652TIP3    H159371   5.165   5.098  10.457 -0.2561  0.8183 -0.6490
12652TIP3    H259372   5.290   5.181  10.436 -0.7649  1.5924 -0.6466
12653TIP3   OH259373   4.146   0.821  15.265 -0.3466 -0.6018 -0.4118
12653TIP3    H159374   4.095   0.741  15.279  0.7255 -0.9438  1.7356
12653TIP3    H259375   4.080   0.888  15.245 -1.4331 -1.5215  0.0317
12654TIP3   OH259376   2.496   0.714   5.609  0.9514  0.0390 -0.5138
12654TIP3    H159377   2.553   0.664   5.668  3.1401  2.3046 -0.5945
12654TIP3    H259378   2.454   0.779   5.665 -0.6830 -0.8441 -0.6751
12655TIP3   OH259379   1.472   4.381  12.924  0.5692 -0.4233 -0.2775
12655TIP3    H159380   1.438   4.321  12.857 -1.6561 -1.6288  1.8344
12655TIP3    H259381   1.409   4.374  12.996  1.4548  2.8430  0.8947
12656TIP3   OH259382   6.079   2.499  15.294 -0.3605  0.0013 -0.2297
12656TIP3    H159383   6.085   2.426  15.355 -3.5044  0.9627  1.3664
12656TIP3    H259384   6.064   2.458  15.209 -1.0748 -1.2670  0.4922
12657TIP3   OH259385   2.091   4.022   1.407  0.7291  0.1608 -0.0655
12657TIP3    H159386   2.071   3.976   1.325 -0.7938  0.7724 -0.0570
12657TIP3    H259387   2.145   4.097   1.380  1.4504 -0.4565 -0.3320
12658TIP3   OH259388   6.556   1.474  11.611 -0.2249  0.3952 -1.2301
12658TIP3    H159389   6.461   1.468  11.599 -0.1311  0.7368 -2.1682
12658TIP3    H259390   6.591   1.485  11.523  0.7048  0.1226 -0.9002
12659TIP3   OH259391   4.965   4.633   1.901  0.3460 -0.0191 -0.5536
12659TIP3    H159392   4.904   4.706   1.911 -1.2873 -1.3194 -0.7808
12659TIP3    H259393   5.009   4.650   1.817 -1.3355 -0.2291 -1.4920
12660TIP3   OH259394   4.634   6.767   1.998  0.1075 -0.3118 -0.3215
12660TIP3    H159395   4.619   6.799   2.087  2.5123  1.0664 -0.4005
12660TIP3    H259396   4.552   6.722   1.976 -1.9908  2.5847  1.1486
12661TIP3   OH259397   6.072   3.249   0.868  0.0597 -0.3644  0.1228
12661TIP3    H159398   6.065   3.341   0.892  2.2586  0.0383 -0.6457
12661TIP3    H259399   6.098   3.205   0.949  0.4946 -0.0756  0.1428
12662TIP3   OH259400   5.207   6.716   1.645 -0.5188 -0.3788 -0.3036
12662TIP3    H159401   5.229   6.633   1.602  1.0295  1.0544 -2.3908
12662TIP3    H259402   5.276   6.727   1.711  1.0801  0.7033 -2.1080
12663TIP3   OH259403   0.484   0.625   3.262 -0.0430  0.0446 -0.2365
12663TIP3    H159404   0.508   0.661   3.176  0.4445 -0.8904 -0.5025
12663TIP3    H259405   0.394   0.654   3.276 -0.0020  0.5026 -0.9078
12664TIP3   OH259406   5.293   4.667  11.211 -0.3731  0.0021  0.5649
12664TIP3    H159407   5.289   4.740  11.272  1.0405  0.6438 -0.0849
12664TIP3    H259408   5.383   4.668  11.179 -0.8922 -0.7953 -0.9549
12665TIP3   OH259409   1.090   1.695  15.970 -0.0908 -0.3556  0.1650
12665TIP3    H159410   1.041   1.677  16.050 -1.5798 -0.1167 -0.6749
12665TIP3    H259411   1.177   1.722  16.000 -0.8211  0.2971  1.7113
12666TIP3   OH259412   2.508   4.455  10.893 -0.9034 -0.9321 -0.4525
12666TIP3    H159413   2.449   4.382  10.873 -0.3318 -1.9696  1.4764
12666TIP3    H259414   2.590   4.432  10.849 -1.5991 -0.0096 -2.2551
12667TIP3   OH259415   4.272   1.568   2.492 -0.4718 -0.3476  0.5657
12667TIP3    H159416   4.333   1.640   2.478 -0.1523 -0.4294  1.4990
12667TIP3    H259417   4.308   1.521   2.568 -1.2879 -0.8266  0.6565
12668TIP3   OH259418   5.934   3.763  15.942  0.7913 -0.2495  0.1303
12668TIP3    H159419   5.941   3.856  15.923  2.8725 -0.3207  0.4962
12668TIP3    H259420   5.867   3.731  15.882  0.8829  1.2642 -0.7818
12669TIP3   OH259421   5.569   2.620  11.348  0.2532  0.7195 -0.0792
12669TIP3    H159422   5.584   2.578  11.264  1.1679  2.2836 -0.7080
12669TIP3    H259423   5.655   2.622  11.390 -0.1069  0.3983  0.6852
12670TIP3   OH259424   2.602   4.498  16.497 -0.2768  0.3577 -0.4640
12670TIP3    H159425   2.541   4.526  16.566 -0.4769  1.3404 -1.0392
12670TIP3    H259426   2.663   4.439  16.542 -0.3405  1.0781  0.5862
12671TIP3   OH259427   5.240   6.143  16.580 -0.0824  0.0584 -0.2296
12671TIP3    H159428   5.295   6.195  16.521  0.3511  0.8983  0.9056
12671TIP3    H259429   5.239   6.056  16.540  2.8541 -0.2400  0.1752
12672TIP3   OH259430   0.052   6.339  13.863 -0.1859 -0.0084 -0.5373
12672TIP3    H159431   0.068   6.433  13.856 -2.1597  0.4079  0.2081
12672TIP3    H259432   0.115   6.309  13.928 -0.6495  1.0996  0.4512
12673TIP3   OH259433   2.974   3.053   3.910 -0.3695 -1.0746  0.1597
12673TIP3    H159434   2.920   3.123   3.945 -0.3803 -0.6307 -0.7302
12673TIP3    H259435   3.014   3.012   3.987 -1.0906 -0.6924  0.7409
12674TIP3   OH259436   0.977   5.293  12.505  0.1359 -0.1616  0.5469
12674TIP3    H159437   1.030   5.322  12.579 -0.3823  1.0113  0.4627
12674TIP3    H259438   0.984   5.197  12.507  2.4467 -0.0234  0.3932
12675TIP3   OH259439   1.982   4.405  12.286 -0.0853 -0.1719 -0.3178
12675TIP3    H159440   2.041   4.477  12.263  2.1029 -1.3140  1.5834
12675TIP3    H259441   1.905   4.449  12.323  1.3174  1.2214  1.0225
12676TIP3   OH259442   2.531   2.216  12.602 -0.5217 -0.0795 -0.0942
12676TIP3    H159443   2.612   2.218  12.654  1.2030  0.9768 -2.6805
12676TIP3    H259444   2.537   2.135  12.551 -1.6340 -0.5350  0.4869
12677TIP3   OH259445   0.455   4.063  11.918 -0.1771 -0.5339 -0.2414
12677TIP3    H159446   0.444   4.102  11.831  0.5295 -0.3767 -0.2590
12677TIP3    H259447   0.387   4.105  11.971 -0.2443 -0.2112 -0.5784
12678TIP3   OH259448   4.743   1.043  13.984  0.1666  0.1613 -0.3090
12678TIP3    H159449   4.836   1.065  13.976  0.0700  0.7685  0.1759
12678TIP3    H259450   4.712   1.037  13.894  0.7152 -0.2330 -0.4777
12679TIP3   OH259451   2.337   5.262  15.578  0.9142 -0.3509  0.0479
12679TIP3    H159452   2.255   5.218  15.554  0.4696 -0.4999  1.8296
12679TIP3    H259453   2.389   5.259  15.497 -0.8640 -0.1481 -1.1395
12680TIP3   OH259454   5.579   5.747   2.586 -0.3810  0.5072 -0.0094
12680TIP3    H159455   5.528   5.670   2.562 -1.8133  1.2544  0.5861
12680TIP3    H259456   5.604   5.732   2.677  1.6621 -0.4861 -0.6996
12681TIP3   OH259457   0.171   1.554  15.485  0.0095 -0.3999 -0.1085
12681TIP3    H159458   0.120   1.612  15.428 -0.4915 -2.0141 -1.3398
12681TIP3    H259459   0.106   1.506  15.536  0.3413 -1.3946 -0.6157
12682TIP3   OH259460   2.198   4.535  13.438 -0.1503  0.7464  0.1217
12682TIP3    H159461   2.113   4.536  13.483 -0.6728  0.5338 -0.8328
12682TIP3    H259462   2.188   4.599  13.367 -0.1043 -0.5183 -1.0454
12683TIP3   OH259463   1.088   2.402  17.074  0.2193  0.0819 -0.4210
12683TIP3    H159464   1.044   2.344  17.013 -2.4090  1.1879  0.3726
12683TIP3    H259465   1.157   2.348  17.113 -1.7879 -2.3110 -0.1103
12684TIP3   OH259466   3.240   4.321  11.629 -0.5726 -0.0922  0.0378
12684TIP3    H159467   3.329   4.290  11.610 -0.4747  0.7258 -0.9064
12684TIP3    H259468   3.251   4.385  11.699 -0.8237 -2.4415  2.2896
12685TIP3   OH259469   6.517   3.154  13.640 -0.2147  0.1729  0.3402
12685TIP3    H159470   6.437   3.134  13.687 -0.8836 -3.2393 -2.0278
12685TIP3    H259471   6.585   3.104  13.685 -0.1859 -0.1747 -0.0798
12686TIP3   OH259472   0.176   6.639  15.308 -0.2218 -0.9330 -0.0679
12686TIP3    H159473   0.264   6.655  15.342 -0.6897  0.2829  0.6083
12686TIP3    H259474   0.145   6.726  15.282 -1.7132 -1.1641  0.9233
12687TIP3   OH259475   2.686   2.446  10.720  0.0104  0.0944  0.1859
12687TIP3    H159476   2.770   2.463  10.676 -0.3646 -0.0190 -0.5662
12687TIP3    H259477   2.671   2.353  10.708 -0.4028  0.1845  0.0179
12688TIP3   OH259478   3.372   1.078   2.754 -0.3929 -0.0865  0.0998
12688TIP3    H159479   3.306   1.132   2.710  0.7824  0.9932 -0.3547
12688TIP3    H259480   3.375   0.997   2.703 -1.9296 -0.4717  0.5912
12689TIP3   OH259481   3.057   1.390   1.040 -0.1557  0.2685  0.0721
12689TIP3    H159482   3.116   1.439   1.097 -0.1457  0.1716  0.1445
12689TIP3    H259483   3.040   1.309   1.087  2.2286 -1.1541 -1.4059
12690TIP3   OH259484   5.078   0.427   3.813  0.3649 -0.3191  0.6316
12690TIP3    H159485   5.084   0.472   3.729  2.1139  0.2473  1.0475
12690TIP3    H259486   4.987   0.398   3.819  0.1383  0.0026 -1.2653
12691TIP3   OH259487   4.835   1.149  16.914  0.1683 -0.0562 -0.3682
12691TIP3    H159488   4.789   1.069  16.940  1.7190 -0.4139  1.3422
12691TIP3    H259489   4.901   1.163  16.982  1.9144  1.0299 -2.2120
12692TIP3   OH259490   4.721   1.688  11.904 -0.1282 -0.4291 -0.0107
12692TIP3    H159491   4.779   1.684  11.828  2.6310  2.1674  1.8727
12692TIP3    H259492   4.702   1.781  11.915  0.4139 -0.6389  3.1139
12693TIP3   OH259493   4.493   5.633  12.327  0.3161 -0.3109  0.3870
12693TIP3    H159494   4.444   5.711  12.301 -0.9710 -0.9502  0.8331
12693TIP3    H259495   4.552   5.664  12.396  0.1703  0.3693  0.2093
12694TIP3   OH259496   1.531   4.552   1.140 -0.1899 -0.6616 -0.0635
12694TIP3    H159497   1.612   4.513   1.110 -0.8904 -1.3982 -1.0153
12694TIP3    H259498   1.542   4.647   1.127  0.8190 -0.6911  0.5790
12695TIP3   OH259499   3.109   5.003   1.312  0.2260  0.1345  0.3129
12695TIP3    H159500   3.073   5.070   1.254  0.9573  0.0629 -0.2362
12695TIP3    H259501   3.132   5.050   1.392  0.3748  0.4660  0.0760
12696TIP3   OH259502   5.681   6.236   0.908  0.5285  0.5589  0.3569
12696TIP3    H159503   5.632   6.302   0.859  0.6796  1.4160  1.3258
12696TIP3    H259504   5.632   6.155   0.896 -0.1234  1.0248 -0.1678
12697TIP3   OH259505   6.575   2.571   1.363  0.7823 -0.1426 -0.0008
12697TIP3    H159506   6.667   2.547   1.375  1.1168 -0.4690 -2.9684
12697TIP3    H259507   6.576   2.666   1.352  0.6154 -0.0014  1.1356
12698TIP3   OH259508   1.836   0.177  13.619 -0.4428 -0.2549  0.4520
12698TIP3    H159509   1.844   0.083  13.635  2.9735 -0.2525 -0.8873
12698TIP3    H259510   1.784   0.184  13.539 -0.5894 -1.0041  0.4824
12699TIP3   OH259511   1.272   6.409   1.279 -0.3315  0.3956  0.5459
12699TIP3    H159512   1.217   6.377   1.208  1.6130 -3.4811  0.6602
12699TIP3    H259513   1.357   6.426   1.239 -0.0129  0.8494  1.3916
12700TIP3   OH259514   3.826   6.036   0.403  0.2629 -0.3009 -0.1801
12700TIP3    H159515   3.777   6.041   0.321  1.0893  2.5064 -0.5775
12700TIP3    H259516   3.889   5.965   0.390 -1.3672 -1.6045 -0.9761
12701TIP3   OH259517   3.574   0.796  13.710 -0.1015 -0.1137  0.3249
12701TIP3    H159518   3.647   0.846  13.673 -0.6289  0.2862 -0.1699
12701TIP3    H259519   3.503   0.806  13.647 -0.4891 -0.7612  0.6573
12702TIP3   OH259520   3.647   3.588  14.633  0.3940  0.1575 -0.2426
12702TIP3    H159521   3.601   3.663  14.596  0.1083 -0.6713 -1.5970
12702TIP3    H259522   3.618   3.585  14.724  0.4784  1.7347 -0.1522
12703TIP3   OH259523   1.577   4.011   3.646  0.9679 -0.3584 -0.8887
12703TIP3    H159524   1.514   4.033   3.577 -0.1948 -1.0347 -0.0693
12703TIP3    H259525   1.636   3.948   3.605 -0.9273 -2.3153 -0.7168
12704TIP3   OH259526   4.880   0.453  11.136 -0.5033  0.3134 -0.0172
12704TIP3    H159527   4.841   0.366  11.136  0.8826 -0.3176  0.0425
12704TIP3    H259528   4.924   0.459  11.051  0.3180  0.5307  0.4189
12705TIP3   OH259529   1.678   3.229  12.714  0.2666 -0.1535  0.4325
12705TIP3    H159530   1.663   3.163  12.782 -1.2166 -0.5855 -0.2926
12705TIP3    H259531   1.682   3.180  12.633 -0.0830  0.5628 -0.0288
12706TIP3   OH259532   6.537   3.398  11.719 -0.1865 -0.3500  0.0394
12706TIP3    H159533   6.538   3.466  11.651  1.0859  0.1999  0.5928
12706TIP3    H259534   6.471   3.428  11.781  1.6233  1.3759  1.2291
12707TIP3   OH259535   4.619   4.289   4.421  0.1763  0.4688  0.6041
12707TIP3    H159536   4.529   4.292   4.453 -0.7058 -0.1306 -1.7567
12707TIP3    H259537   4.616   4.329   4.334  2.0171 -0.3150  0.1448
12708TIP3   OH259538   1.854   5.299  11.600 -0.4152  0.3866  0.4516
12708TIP3    H159539   1.858   5.328  11.691  1.2485  3.2731 -0.4902
12708TIP3    H259540   1.909   5.220  11.599  0.1768  0.7540  1.8099
12709TIP3   OH259541   1.364   1.519  15.493 -0.3663 -0.1147 -0.5222
12709TIP3    H159542   1.440   1.460  15.494 -1.0713 -1.0448  0.7543
12709TIP3    H259543   1.363   1.556  15.582 -1.2920  0.0259 -0.5942
12710TIP3   OH259544   4.950   3.389   1.490 -0.3325  0.3044  0.1116
12710TIP3    H159545   4.897   3.316   1.521  0.3009  0.3878  1.4100
12710TIP3    H259546   4.889   3.445   1.443 -0.6377 -1.5574 -1.7759
12711TIP3   OH259547   5.637   2.418  13.824  0.6416  0.4249  0.0263
12711TIP3    H159548   5.674   2.330  13.819 -0.3461  0.0656 -1.0230
12711TIP3    H259549   5.651   2.444  13.915 -1.3525 -1.8107  1.0187
12712TIP3   OH259550   2.635   3.056  15.921 -0.1783  0.6389 -0.1168
12712TIP3    H159551   2.569   3.105  15.872 -0.8999 -0.5263 -0.3282
12712TIP3    H259552   2.717   3.075  15.875 -0.2990  2.3229  0.3232
12713TIP3   OH259553   6.403   4.053   1.762  0.5678 -0.3817  0.0487
12713TIP3    H159554   6.387   3.966   1.725 -1.7460 -0.0606  0.1775
12713TIP3    H259555   6.326   4.104   1.736  1.5685  1.4375  0.5629
12714TIP3   OH259556   6.738   5.898  16.198  0.1226  0.2187  0.2630
12714TIP3    H159557   6.726   5.993  16.211  0.6814  0.3150  0.0993
12714TIP3    H259558   6.787   5.870  16.275  2.3727  0.5699 -0.9760
12715TIP3   OH259559   5.560   3.606  12.703  0.0466  0.1654  0.1523
12715TIP3    H159560   5.485   3.661  12.723 -1.0117 -1.0812 -0.3257
12715TIP3    H259561   5.576   3.557  12.783  0.5899  0.6886  0.3696
12716TIP3   OH259562   4.227   6.298  10.410 -0.1023 -0.0181  0.3575
12716TIP3    H159563   4.140   6.289  10.369 -0.3197 -0.8261  0.9913
12716TIP3    H259564   4.242   6.393  10.412 -2.7557  0.4314  3.8839
12717TIP3   OH259565   4.028   6.744   2.840 -0.2126  0.9660 -0.2443
12717TIP3    H159566   4.013   6.706   2.927 -2.6199 -1.7890 -1.7308
12717TIP3    H259567   3.943   6.735   2.796  0.6447  3.3770 -2.5112
12718TIP3   OH259568   0.780   6.662  11.649 -0.0175 -0.2119  0.1562
12718TIP3    H159569   0.787   6.570  11.675  1.0132 -0.2787 -0.3160
12718TIP3    H259570   0.861   6.679  11.600 -0.6055  0.7026 -0.5138
12719TIP3   OH259571   2.050   2.406  12.406  0.3366 -0.7942 -0.2465
12719TIP3    H159572   2.096   2.460  12.343 -1.5044 -0.0237 -0.9575
12719TIP3    H259573   2.023   2.466  12.475 -0.6964 -0.9919 -0.4639
12720TIP3   OH259574   3.151   3.926   2.921 -0.7792 -0.1218 -0.2507
12720TIP3    H159575   3.189   3.924   2.833 -2.4673 -0.8402 -0.9801
12720TIP3    H259576   3.117   4.015   2.929  0.3662  0.2943  0.1218
12721TIP3   OH259577   1.067   1.774   4.478  0.0127 -0.0741  0.6675
12721TIP3    H159578   1.148   1.818   4.503 -0.1415 -0.3259  1.6396
12721TIP3    H259579   1.051   1.711   4.549 -0.3304 -0.9522 -0.1714
12722TIP3   OH259580   2.846   0.538  15.279  0.4980  0.5810 -0.0843
12722TIP3    H159581   2.775   0.508  15.336 -0.4997  0.8001 -1.2103
12722TIP3    H259582   2.803   0.583  15.207  1.9067  3.1607  0.6377
12723TIP3   OH259583   3.073   1.525  13.639 -0.5695 -0.3694  0.4902
12723TIP3    H159584   3.046   1.437  13.664 -2.3907 -0.1817 -0.7400
12723TIP3    H259585   3.121   1.558  13.716 -1.9552 -1.5323  1.8763
12724TIP3   OH259586   3.228   3.472  17.096  0.0807  0.1167  0.1670
12724TIP3    H159587   3.278   3.553  17.097 -2.0235  1.4707 -0.7718
12724TIP3    H259588   3.252   3.430  17.013 -0.1045  0.6201 -0.1430
12725TIP3   OH259589   0.666   5.593   2.497  0.4199  0.0713  0.1901
12725TIP3    H159590   0.575   5.564   2.493  0.8710 -1.4180  0.3640
12725TIP3    H259591   0.673   5.662   2.431 -0.7792  0.0452  0.0329
12726TIP3   OH259592   6.003   6.099  16.400 -0.5573 -0.2069  0.2039
12726TIP3    H159593   6.027   6.021  16.350 -0.3496  0.0254 -0.0609
12726TIP3    H259594   5.961   6.065  16.479  1.1253 -0.6314  0.9442
12727TIP3   OH259595   4.467   0.963  12.901 -0.1235  0.0374 -0.7054
12727TIP3    H159596   4.561   0.945  12.899  0.0580  1.0824 -1.3844
12727TIP3    H259597   4.428   0.893  12.848  0.1265 -1.2091  0.7048
12728TIP3   OH259598   1.111   2.186  15.342 -0.0183  0.1188  0.0403
12728TIP3    H159599   1.186   2.244  15.328  1.3318 -1.5524  0.2015
12728TIP3    H259600   1.089   2.154  15.254 -0.0385 -0.0344  0.1020
12729TIP3   OH259601   1.315   3.941   1.900  0.5478 -0.2370 -0.5531
12729TIP3    H159602   1.356   4.028   1.897  1.0439 -0.4691 -0.6474
12729TIP3    H259603   1.290   3.923   1.810  0.9930 -0.4443 -0.6387
12730TIP3   OH259604   1.243   3.603   4.551 -0.0749  0.3903  0.6760
12730TIP3    H159605   1.169   3.568   4.501 -0.2367  0.2370  1.0195
12730TIP3    H259606   1.214   3.599   4.642  0.8443 -0.8671  0.9240
12731TIP3   OH259607   4.720   0.025  14.599  0.0875  0.9387 -0.5379
12731TIP3    H159608   4.745   0.096  14.540  1.8460  2.1849  1.5841
12731TIP3    H259609   4.720   0.066  14.686 -0.5047 -1.2801  0.5420
12732TIP3   OH259610   0.786   3.043   6.542  0.1308  0.0196  0.0309
12732TIP3    H159611   0.739   3.039   6.626  0.0708 -0.6356 -0.0315
12732TIP3    H259612   0.877   3.061   6.566  0.2929 -1.1218  0.2951
12733TIP3   OH259613   0.306   5.681  15.667  0.3051 -1.0287 -0.2775
12733TIP3    H159614   0.348   5.705  15.585  0.3537  0.9919  0.3101
12733TIP3    H259615   0.368   5.708  15.735 -0.4891 -1.0611  0.4802
12734TIP3   OH259616   6.447   5.504   5.263 -0.8567  0.5003 -0.0098
12734TIP3    H159617   6.431   5.479   5.354 -1.9833  1.2351  0.0057
12734TIP3    H259618   6.367   5.479   5.217 -0.5740  0.7882 -0.6614
12735TIP3   OH259619   6.599   0.907  16.252 -0.1326 -0.6978  0.2687
12735TIP3    H159620   6.651   0.976  16.210  0.6563 -0.9191  0.8837
12735TIP3    H259621   6.511   0.920  16.217 -0.0212  0.7018  0.4806
12736TIP3   OH259622   4.468   2.223   3.870  0.0217 -0.0520  0.0128
12736TIP3    H159623   4.504   2.138   3.895 -2.3011 -1.5583 -1.5323
12736TIP3    H259624   4.390   2.233   3.925 -0.1470  0.7287 -0.3623
12737TIP3   OH259625   1.564   6.478  15.072  0.0857 -0.2218 -0.1368
12737TIP3    H159626   1.515   6.458  15.151 -0.3986 -0.3793 -0.4728
12737TIP3    H259627   1.653   6.494  15.102  0.3550 -2.2608  0.2124
12738TIP3   OH259628   3.199   0.190   0.033 -0.1801 -0.2550 -0.1224
12738TIP3    H159629   3.275   0.224  -0.015 -0.5194 -2.0359 -1.9752
12738TIP3    H259630   3.230   0.109   0.073 -0.4814  0.1859  1.0150
12739TIP3   OH259631   1.681   0.595  12.819 -0.2641  0.1340  0.6455
12739TIP3    H159632   1.717   0.570  12.734 -1.0571  0.5647  0.1816
12739TIP3    H259633   1.756   0.594  12.878  0.2502 -0.3766 -0.0152
12740TIP3   OH259634   1.726   6.222  10.707  0.0508 -0.0016 -0.2594
12740TIP3    H159635   1.672   6.212  10.629 -1.6315  1.1669  0.7195
12740TIP3    H259636   1.806   6.175  10.686 -1.0859 -1.2620 -1.9960
12741TIP3   OH259637   2.676   2.205   4.759 -0.2790 -0.6150  0.1537
12741TIP3    H159638   2.667   2.173   4.670  0.3029  0.6963 -0.3836
12741TIP3    H259639   2.744   2.273   4.754 -0.9784  0.1953  1.3991
12742TIP3   OH259640   2.585   3.345  14.406 -0.2717 -0.3562  0.3715
12742TIP3    H159641   2.575   3.277  14.473 -3.7626 -2.2798 -1.9648
12742TIP3    H259642   2.620   3.299  14.330  1.5787  1.3713  0.1529
12743TIP3   OH259643   5.573   0.815   4.717 -0.0056 -0.0353 -0.0566
12743TIP3    H159644   5.529   0.784   4.638  1.8246 -3.1892  0.1185
12743TIP3    H259645   5.535   0.763   4.788 -1.8923  3.0059  1.2836
12744TIP3   OH259646   3.018   0.095   3.889 -0.1459 -0.4848 -0.0915
12744TIP3    H159647   3.063   0.162   3.839 -2.2718  0.1563 -1.2229
12744TIP3    H259648   2.980   0.037   3.823 -0.5668 -1.2861  0.8298
12745TIP3   OH259649   0.703   4.493  14.540 -0.3598 -0.3717 -0.5330
12745TIP3    H159650   0.776   4.431  14.544  0.2321  0.3726  0.6491
12745TIP3    H259651   0.627   4.443  14.571  0.2533 -0.3376  1.0872
12746TIP3   OH259652   3.079   0.774   0.067  0.7154 -0.1154 -0.9504
12746TIP3    H159653   3.053   0.852   0.019 -0.4763 -0.9710 -1.7137
12746TIP3    H259654   3.107   0.807   0.153 -1.7228  0.9612 -0.5389
12747TIP3   OH259655   3.030   2.317  16.528  0.2583 -0.0648  0.8108
12747TIP3    H159656   3.070   2.403  16.538 -0.0075  0.5022 -2.6801
12747TIP3    H259657   3.104   2.260  16.505 -0.0645 -0.1315 -0.0572
12748TIP3   OH259658   3.153   6.313  16.397  0.0340  0.0265  0.5669
12748TIP3    H159659   3.248   6.301  16.394 -0.0232  0.1290 -2.1879
12748TIP3    H259660   3.134   6.379  16.330 -2.0610 -0.5112  0.5898
12749TIP3   OH259661   6.360   2.634   5.426 -0.1112 -0.2080  0.0609
12749TIP3    H159662   6.298   2.690   5.379  0.4465  0.1262 -0.2744
12749TIP3    H259663   6.345   2.653   5.518  0.3029  0.7251 -0.0648
12750TIP3   OH259664   1.800   6.682   5.178 -0.2920  0.1436 -0.1579
12750TIP3    H159665   1.742   6.615   5.214  0.7126 -0.5546  0.1708
12750TIP3    H259666   1.809   6.747   5.248  1.6551 -1.2067  0.8809
12751TIP3   OH259667   6.348   4.689  16.933  0.1394  0.7537  0.0877
12751TIP3    H159668   6.255   4.708  16.919  0.0052  0.5277  0.6477
12751TIP3    H259669   6.387   4.695  16.846 -0.0571  2.6948  0.1091
12752TIP3   OH259670   1.845   4.199  11.108 -0.1214  0.1194 -0.1520
12752TIP3    H159671   1.796   4.265  11.060  0.7972  0.9681  0.0724
12752TIP3    H259672   1.937   4.218  11.089  0.1628 -0.8350  0.2441
12753TIP3   OH259673   5.964   6.412  11.644 -0.7596  0.2208  0.0544
12753TIP3    H159674   6.042   6.460  11.670 -1.7639  2.9830 -1.8367
12753TIP3    H259675   5.986   6.376  11.558 -1.4682  0.7914 -0.3691
12754TIP3   OH259676   2.566   4.838   6.256  0.7585 -0.0960 -0.4460
12754TIP3    H159677   2.478   4.837   6.294  0.9119  1.2154 -0.0252
12754TIP3    H259678   2.624   4.829   6.331  0.9927 -0.7864 -0.7066
12755TIP3   OH259679   2.739   6.147   0.116  0.0223  0.4594 -0.5084
12755TIP3    H159680   2.706   6.111   0.199  0.1079  0.3284 -0.5313
12755TIP3    H259681   2.804   6.084   0.087  0.9669  1.1841  0.0082
12756TIP3   OH259682   4.158   1.403  12.377 -0.4093 -0.2092  0.0125
12756TIP3    H159683   4.208   1.362  12.446 -1.1146 -1.0448  0.0353
12756TIP3    H259684   4.067   1.394  12.405 -0.6847 -0.3481 -0.9127
12757TIP3   OH259685   5.807   0.283   0.792 -0.4191 -0.2701  0.2322
12757TIP3    H159686   5.789   0.350   0.725  0.7981 -0.7369 -0.5775
12757TIP3    H259687   5.726   0.233   0.798 -0.7051  0.0909 -0.5400
12758TIP3   OH259688   2.019   5.819   6.293  0.3294  0.1720 -0.5021
12758TIP3    H159689   2.040   5.823   6.386  0.3039 -0.3637 -0.4716
12758TIP3    H259690   1.927   5.795   6.289  0.7595 -1.4845 -0.6788
12759TIP3   OH259691   2.208   5.578   1.326 -0.0187  0.0574  0.4225
12759TIP3    H159692   2.148   5.521   1.374 -0.9774 -1.0033 -1.9697
12759TIP3    H259693   2.157   5.657   1.308  0.4763  0.6293  1.4832
12760TIP3   OH259694   3.173   0.727  10.654  0.7957  0.0927  0.1363
12760TIP3    H159695   3.231   0.778  10.597  0.4695  1.5062  1.0344
12760TIP3    H259696   3.218   0.727  10.739 -0.9906  2.1578  1.1486
12761TIP3   OH259697   2.512   1.423   5.375  0.2456  0.0624  0.9435
12761TIP3    H159698   2.581   1.360   5.355  0.6276  0.8283 -0.1925
12761TIP3    H259699   2.437   1.393   5.324 -0.0034 -0.2630  1.4929
12762TIP3   OH259700   0.684   4.077   4.314  0.1098 -0.3444 -0.1177
12762TIP3    H159701   0.637   4.118   4.241  1.7980 -0.8969 -1.5380
12762TIP3    H259702   0.773   4.063   4.282  1.1184  0.1211  2.3342
12763TIP3   OH259703   4.080   2.592  16.971 -0.0819  0.0726 -0.0736
12763TIP3    H159704   4.009   2.545  16.927 -0.3417  0.2859  0.1159
12763TIP3    H259705   4.089   2.674  16.922  0.3741 -0.1736 -0.4050
12764TIP3   OH259706   3.665   6.434   0.095  0.3503  0.6968 -0.1033
12764TIP3    H159707   3.647   6.457   0.003  4.0572 -1.3264 -1.4563
12764TIP3    H259708   3.761   6.430   0.100  0.1596 -1.4593  3.3080
12765TIP3   OH259709   5.108   3.018   5.333  0.0954 -0.5809 -0.4223
12765TIP3    H159710   5.140   3.067   5.409 -0.4225 -1.2000  0.1982
12765TIP3    H259711   5.186   2.979   5.295  0.4695  0.4474 -0.7186
12766TIP3   OH259712   2.483   3.421   5.452 -0.0895  0.4738  0.4066
12766TIP3    H159713   2.537   3.459   5.522  1.0602 -1.3239  0.5352
12766TIP3    H259714   2.481   3.488   5.384  1.3279  1.0295  0.8917
12767TIP3   OH259715   4.404   6.422   4.406 -0.2479  0.0177  0.2287
12767TIP3    H159716   4.453   6.482   4.463 -0.1799 -0.8358  1.0862
12767TIP3    H259717   4.471   6.367   4.366 -0.0105  2.4396 -2.9377
12768TIP3   OH259718   5.942   2.401   4.881 -0.3304 -0.4281 -0.6403
12768TIP3    H159719   5.954   2.339   4.952 -0.5427 -0.5689 -0.7273
12768TIP3    H259720   5.872   2.363   4.828  0.7336 -1.0000 -1.6670
12769TIP3   OH259721   6.232   5.105   3.441 -0.1774 -0.3054  0.1600
12769TIP3    H159722   6.307   5.091   3.499  1.3805 -0.6020 -1.8981
12769TIP3    H259723   6.224   5.200   3.436  0.9193 -0.2477 -0.6842
12770TIP3   OH259724   3.418   3.568  15.989 -0.2122  0.1901 -0.3667
12770TIP3    H159725   3.332   3.532  16.012  0.6389 -3.8035 -2.8434
12770TIP3    H259726   3.427   3.549  15.895  3.1590  0.9992 -0.2713
12771TIP3   OH259727   2.592   5.195  11.373 -0.2253  0.0044 -0.5591
12771TIP3    H159728   2.571   5.127  11.309  0.3188  0.8018 -1.6040
12771TIP3    H259729   2.648   5.256  11.325  0.7107  0.2750  0.8764
12772TIP3   OH259730   3.195   4.458  13.349 -0.2959 -0.5040  0.3121
12772TIP3    H159731   3.155   4.414  13.423  0.7450 -0.1549  1.0910
12772TIP3    H259732   3.206   4.549  13.377  3.0475 -1.0429  0.9800
12773TIP3   OH259733   5.840   3.228   5.777  0.0341  0.5061 -0.4693
12773TIP3    H159734   5.904   3.164   5.747 -0.4144  0.1499 -0.6679
12773TIP3    H259735   5.869   3.250   5.865  0.4324  0.3487 -0.5579
12774TIP3   OH259736   6.373   2.830   0.547 -0.3941 -0.7786  0.1327
12774TIP3    H159737   6.408   2.895   0.608  0.3844 -1.1665  0.1109
12774TIP3    H259738   6.316   2.880   0.489 -0.8632 -0.3456  0.9538
12775TIP3   OH259739   0.109   2.152  14.310  0.0310  0.1053  0.2963
12775TIP3    H159740   0.054   2.124  14.237  0.3840 -0.3629  0.2098
12775TIP3    H259741   0.084   2.094  14.382 -0.6593  0.8780  0.6914
12776TIP3   OH259742   2.382   2.473  11.909 -0.3778 -0.9837  0.0019
12776TIP3    H159743   2.381   2.562  11.942  1.0081 -0.4503 -1.3110
12776TIP3    H259744   2.290   2.446  11.909 -1.0706  1.2187 -1.6260
12777TIP3   OH259745   5.551   0.173   1.849 -0.2655 -0.2848 -0.6465
12777TIP3    H159746   5.560   0.241   1.782 -1.4795 -0.9676 -1.5237
12777TIP3    H259747   5.559   0.091   1.800 -1.7366 -0.7952 -0.0373
12778TIP3   OH259748   5.506   0.240  13.195 -0.2938 -0.2113  0.5708
12778TIP3    H159749   5.508   0.330  13.228 -0.0637 -0.6230  1.7321
12778TIP3    H259750   5.431   0.237  13.137  1.2323  1.4139 -1.5447
12779TIP3   OH259751   2.976   6.467  13.345  0.1086  0.1574 -0.0747
12779TIP3    H159752   2.884   6.443  13.350  0.2009  0.0250  1.0559
12779TIP3    H259753   3.022   6.401  13.397  1.0195 -0.6852 -1.9116
12780TIP3   OH259754   5.964   0.704   0.511  0.5790 -0.7249  0.5604
12780TIP3    H159755   6.008   0.654   0.580  1.0005  2.3157  2.5951
12780TIP3    H259756   6.022   0.779   0.495  0.5624 -1.4110 -3.2559
12781TIP3   OH259757   2.529   3.542   0.109 -0.4949 -0.1033 -0.7609
12781TIP3    H159758   2.453   3.494   0.142 -0.5701  0.2369 -0.4378
12781TIP3    H259759   2.559   3.491   0.034 -0.3154 -0.9068 -0.1582
12782TIP3   OH259760   6.238   3.492   3.526 -0.5694 -0.8983  0.1701
12782TIP3    H159761   6.220   3.399   3.520 -2.5647 -0.5181 -0.1649
12782TIP3    H259762   6.167   3.526   3.582 -0.4035  0.5455 -0.4825
12783TIP3   OH259763   1.433   6.099   1.544 -0.0378 -0.1399  0.3241
12783TIP3    H159764   1.492   6.043   1.595  0.6095 -1.3297 -1.6712
12783TIP3    H259765   1.492   6.158   1.497 -0.6271  0.9076  0.8904
12784TIP3   OH259766   6.269   5.354  13.457 -0.2620  0.1508  0.4107
12784TIP3    H159767   6.334   5.422  13.474 -0.6014  0.1069  1.9588
12784TIP3    H259768   6.185   5.396  13.475 -0.5708 -0.2254 -0.1397
12785TIP3   OH259769   3.160   0.335  11.084 -0.2714  0.1418  0.2617
12785TIP3    H159770   3.150   0.273  11.157 -1.7528  0.1511  0.0915
12785TIP3    H259771   3.125   0.418  11.119  0.6160  0.5894  0.1045
12786TIP3   OH259772   5.079   2.209   3.992  0.3132  0.1013  0.2300
12786TIP3    H159773   4.988   2.224   3.966  0.5989  2.1316  0.2932
12786TIP3    H259774   5.103   2.127   3.949 -0.9279  0.5716 -1.4353
12787TIP3   OH259775   1.840   0.663   0.265 -0.3387 -0.3458  0.1564
12787TIP3    H159776   1.822   0.652   0.172 -0.5159 -0.5203  0.2112
12787TIP3    H259777   1.770   0.721   0.297  0.0019  0.1138  0.0810
12788TIP3   OH259778   1.749   3.085  17.205  0.0317  0.4380 -0.0379
12788TIP3    H159779   1.780   2.998  17.227  2.8562  0.1803 -4.3737
12788TIP3    H259780   1.660   3.071  17.170 -0.2512 -0.4284  1.0035
12789TIP3   OH259781   5.086   2.235  10.748 -0.0948  0.5725  0.6606
12789TIP3    H159782   5.111   2.271  10.663 -1.0169 -0.2629  0.0185
12789TIP3    H259783   5.074   2.311  10.805 -3.1472  1.3972 -0.9687
12790TIP3   OH259784   2.138   6.171   2.618  0.2661 -0.7270 -0.5310
12790TIP3    H159785   2.168   6.243   2.563  1.6728 -0.6882  0.2595
12790TIP3    H259786   2.208   6.106   2.613 -0.4240 -1.4952 -0.2499
12791TIP3   OH259787   1.349   3.498   1.595 -0.3833 -0.0371  0.2334
12791TIP3    H159788   1.406   3.421   1.595  0.1590  0.3081  2.9400
12791TIP3    H259789   1.404   3.569   1.629 -1.7524  0.8020  0.7371
12792TIP3   OH259790   0.337   4.788   5.528 -0.2169 -0.2404  0.3372
12792TIP3    H159791   0.279   4.863   5.518  2.5244  1.8699 -0.3524
12792TIP3    H259792   0.374   4.774   5.441 -0.7319 -2.4429  0.4477
12793TIP3   OH259793   6.724   4.767   0.628 -0.1689  0.0045 -0.7459
12793TIP3    H159794   6.776   4.728   0.558  0.9929  0.0150  0.0956
12793TIP3    H259795   6.736   4.861   0.618 -0.6296  0.0395 -0.9983
12794TIP3   OH259796   5.124   4.601  12.942 -0.0410  0.2801  0.3902
12794TIP3    H159797   5.119   4.664  13.014  1.7047 -1.6516  2.2765
12794TIP3    H259798   5.166   4.524  12.980 -0.0914 -1.2196 -2.4315
12795TIP3   OH259799   1.799   6.088  12.529  0.0782  0.3647 -0.5518
12795TIP3    H159800   1.833   6.164  12.483  2.3837 -1.2781 -1.6359
12795TIP3    H259801   1.814   6.107  12.622 -0.9294  1.9353 -0.6977
12796TIP3   OH259802   4.991   4.233   6.420  0.0351 -0.1605 -0.3755
12796TIP3    H159803   4.969   4.265   6.508 -1.7631 -0.1575 -0.8078
12796TIP3    H259804   4.953   4.298   6.361 -1.2738 -1.6293 -1.1965
12797TIP3   OH259805   2.822   0.044   0.748  0.3752 -0.4375  0.3645
12797TIP3    H159806   2.910   0.019   0.721  0.5456  0.9615 -0.4018
12797TIP3    H259807   2.812   0.135   0.719  0.1651  0.7824  4.0103
12798TIP3   OH259808   2.882   1.270  11.105  0.1312  0.1106  0.5242
12798TIP3    H159809   2.878   1.198  11.042  0.7476 -0.1098  0.7331
12798TIP3    H259810   2.794   1.309  11.103  0.3866  0.6521 -1.1155
12799TIP3   OH259811   1.818   0.442  11.721 -0.6133 -0.2653  0.3405
12799TIP3    H159812   1.722   0.448  11.715 -0.6422 -0.7378  0.2908
12799TIP3    H259813   1.847   0.429  11.631 -0.4298  0.8175  0.2436
12800TIP3   OH259814   0.429   6.619   4.100  0.9142  0.0746 -0.6330
12800TIP3    H159815   0.500   6.632   4.037  0.9564  1.5051 -0.2883
12800TIP3    H259816   0.423   6.701   4.148  0.6628 -0.8910  1.0301
12801TIP3   OH259817   4.718   2.619  13.776 -0.1310  0.1846  0.2432
12801TIP3    H159818   4.689   2.532  13.803 -0.4235  0.3079  0.3253
12801TIP3    H259819   4.806   2.605  13.742 -0.2498 -0.1741  0.0820
12802TIP3   OH259820   4.143   0.578   0.512  0.0523  0.4812  0.2521
12802TIP3    H159821   4.164   0.492   0.548 -0.7304  0.6370  1.1161
12802TIP3    H259822   4.109   0.561   0.425  1.6768  0.0653 -0.3079
12803TIP3   OH259823   2.864   2.574   1.300  1.0252 -0.1431  0.0904
12803TIP3    H159824   2.877   2.624   1.380  2.0969  0.3291 -0.3785
12803TIP3    H259825   2.777   2.600   1.269  1.9251  2.1240 -0.6334
12804TIP3   OH259826   1.869   6.687   0.526 -0.1320  0.3262  0.0561
12804TIP3    H159827   1.834   6.699   0.438  1.3262  1.7651 -0.3544
12804TIP3    H259828   1.959   6.718   0.521 -0.7743  2.8823  2.6479
12805TIP3   OH259829   6.086   0.415  11.535  0.5529  1.0544  0.0049
12805TIP3    H159830   6.117   0.421  11.445  1.1448  1.8366  0.2590
12805TIP3    H259831   6.083   0.505  11.566 -0.1514  0.8339  0.6073
12806TIP3   OH259832   0.273   3.254   0.925 -0.0907 -0.0391 -0.3294
12806TIP3    H159833   0.325   3.183   0.963 -1.7681 -0.2598  1.6328
12806TIP3    H259834   0.337   3.320   0.898  1.2955 -1.0078  0.5839
12807TIP3   OH259835   6.366   5.168  13.251  0.5558  0.0453  0.1144
12807TIP3    H159836   6.306   5.158  13.177  0.7220 -2.7876  0.3063
12807TIP3    H259837   6.322   5.229  13.310 -1.5565 -0.9753 -0.3663
12808TIP3   OH259838   2.281   0.984   4.577  0.1655  0.4468  0.0347
12808TIP3    H159839   2.189   0.968   4.599  0.4213  0.9866  1.5484
12808TIP3    H259840   2.278   1.043   4.502 -0.7111  0.9955  0.5038
12809TIP3   OH259841   1.473   4.496  11.931 -0.0005  0.3425  0.3666
12809TIP3    H159842   1.410   4.567  11.940 -0.4245  0.0321 -0.1245
12809TIP3    H259843   1.556   4.539  11.915 -0.9187  0.7106 -4.2412
12810TIP3   OH259844   4.061   5.991  16.629  0.2197  0.1071  0.3114
12810TIP3    H159845   4.125   6.022  16.566  0.2471  1.1418  0.8351
12810TIP3    H259846   4.043   5.900  16.603  0.0570  0.5911 -1.3011
12811TIP3   OH259847   4.027   5.711  15.293  0.6587 -0.2680  0.6728
12811TIP3    H159848   4.071   5.739  15.213  0.3178 -0.1121  0.5417
12811TIP3    H259849   4.046   5.617  15.299  1.9582  0.0167  1.2151
12812TIP3   OH259850   0.442   1.481   5.749 -0.4301 -0.2001 -0.0869
12812TIP3    H159851   0.432   1.479   5.654 -0.2185  0.1922 -0.1180
12812TIP3    H259852   0.361   1.442   5.782  0.5272 -2.6239 -0.4809
12813TIP3   OH259853   4.873   3.770  15.819  0.5493 -0.0924  0.1660
12813TIP3    H159854   4.954   3.793  15.864  0.7913  0.0119 -0.3160
12813TIP3    H259855   4.819   3.728  15.886  0.9959 -0.1529  0.4904
12814TIP3   OH259856   6.307   2.084   4.350 -0.5390 -0.3586 -0.2892
12814TIP3    H159857   6.313   2.054   4.441 -0.4987  0.2048 -0.1076
12814TIP3    H259858   6.231   2.141   4.349 -0.2283  0.0533 -0.4938
12815TIP3   OH259859   4.954   6.503   5.590  0.5629  0.3943 -0.5400
12815TIP3    H159860   4.936   6.452   5.511  0.3262  1.2668 -1.0590
12815TIP3    H259861   4.942   6.442   5.662  0.3172 -0.2879 -1.1604
12816TIP3   OH259862   1.217   5.216   1.003 -0.0643  0.4051  0.0570
12816TIP3    H159863   1.190   5.170   0.923  0.1849  0.3511  0.0030
12816TIP3    H259864   1.293   5.267   0.976 -0.0923  0.5328  0.2169
12817TIP3   OH259865   0.326   6.476  13.870 -0.0820 -0.2009  0.1180
12817TIP3    H159866   0.395   6.416  13.840 -2.4639 -3.4093  0.7911
12817TIP3    H259867   0.288   6.511  13.790  2.3329  1.6794 -0.2581
12818TIP3   OH259868   0.027   2.599  17.184  0.2261 -0.0330  0.3570
12818TIP3    H159869   0.093   2.655  17.225 -0.1943  1.9370 -1.5383
12818TIP3    H259870  -0.055   2.623  17.226  0.1487  0.3256  0.0088
12819TIP3   OH259871   1.552   2.015  13.704 -0.0669  0.2200  0.2398
12819TIP3    H159872   1.512   1.988  13.622 -1.2126  2.3910  0.0590
12819TIP3    H259873   1.491   1.984  13.771  0.1878 -0.3678  0.2013
12820TIP3   OH259874   5.509   0.638  17.187  0.0429  0.1812 -0.3287
12820TIP3    H159875   5.589   0.587  17.200 -0.6204 -0.9744 -0.7244
12820TIP3    H259876   5.515   0.670  17.098 -0.0927 -0.1946 -0.4758
12821TIP3   OH259877   4.626   2.527   2.084  0.3009 -0.0322  0.2750
12821TIP3    H159878   4.718   2.531   2.055 -0.3995 -1.9215 -2.4196
12821TIP3    H259879   4.601   2.619   2.094  2.2193  0.5467  0.1082
12822TIP3   OH259880   1.672   0.067  14.887 -0.4667  0.0160 -0.4956
12822TIP3    H159881   1.728   0.122  14.941 -0.0293 -0.3817 -0.5410
12822TIP3    H259882   1.598   0.044  14.943 -1.4167  1.8948 -0.9537
12823TIP3   OH259883   3.687   6.541  12.669  0.0524  0.0674  0.0514
12823TIP3    H159884   3.743   6.494  12.608  0.7529  0.9526  0.0069
12823TIP3    H259885   3.736   6.542  12.751 -0.7326 -0.8144  0.5305
12824TIP3   OH259886   5.914   2.484   2.190  0.1070  0.2888  0.0179
12824TIP3    H159887   5.933   2.431   2.113 -0.9806  0.4577 -0.3614
12824TIP3    H259888   6.000   2.520   2.215  1.1310 -2.6882  1.0957
12825TIP3   OH259889   0.144   5.529  17.233 -0.0908  0.0758  0.3285
12825TIP3    H159890   0.165   5.437  17.214  0.3629  0.1404  0.5070
12825TIP3    H259891   0.201   5.551  17.307  1.2368  1.0898 -0.9683
12826TIP3   OH259892   1.997   2.799   1.400  0.2354 -0.2688  0.3629
12826TIP3    H159893   2.043   2.840   1.327  0.2951  0.5482  0.8381
12826TIP3    H259894   1.958   2.720   1.364 -1.4330  1.1452 -1.0549
12827TIP3   OH259895   3.883   5.222  15.626 -0.3756  0.0785 -0.0954
12827TIP3    H159896   3.848   5.158  15.689  0.1859 -0.3388 -0.2001
12827TIP3    H259897   3.855   5.307  15.660 -2.1469 -0.2857 -0.5952
12828TIP3   OH259898   0.553   1.583  12.247  0.1344  0.3530 -0.3043
12828TIP3    H159899   0.641   1.561  12.218  0.2356 -0.5560  0.6667
12828TIP3    H259900   0.502   1.504  12.228 -0.0561  0.1887  0.8937
12829TIP3   OH259901   3.513   4.066   4.840 -0.1715 -0.0121  0.6296
12829TIP3    H159902   3.454   4.073   4.765 -0.8030  0.8564  1.2005
12829TIP3    H259903   3.559   3.983   4.827  0.2306  0.4640 -1.0701
12830TIP3   OH259904   5.942   3.560   6.438 -0.2595 -0.3429 -0.6229
12830TIP3    H159905   5.947   3.591   6.529  0.1975  1.8274 -1.3689
12830TIP3    H259906   5.851   3.574   6.413  0.1536  1.3722 -1.2631
12831TIP3   OH259907   0.153   0.937   5.117  0.8067 -0.5814  0.0414
12831TIP3    H159908   0.189   0.859   5.160  3.2436  0.2019 -0.5052
12831TIP3    H259909   0.130   0.995   5.189  2.2266 -0.4292  0.3905
12832TIP3   OH259910   3.560   2.834  13.759  0.1968 -0.0164  0.6870
12832TIP3    H159911   3.500   2.782  13.813  0.0588 -0.9984 -0.4037
12832TIP3    H259912   3.647   2.799  13.781  0.0603 -1.1013 -0.4521
12833TIP3   OH259913   3.787   4.697  16.302  0.2909 -0.3448 -0.4723
12833TIP3    H159914   3.722   4.706  16.372  0.9859  1.9020 -0.0781
12833TIP3    H259915   3.741   4.724  16.222  1.0360  2.5363  0.0031
12834TIP3   OH259916   5.983   6.324   2.194  0.5889 -0.0577  0.4476
12834TIP3    H159917   6.007   6.308   2.285 -0.4890  0.4397  0.8288
12834TIP3    H259918   6.056   6.289   2.143  0.9127 -0.9088  1.4796
12835TIP3   OH259919   5.561   5.143  10.741  0.4693 -0.0742 -0.2147
12835TIP3    H159920   5.585   5.201  10.669  0.4436 -0.4824 -0.5524
12835TIP3    H259921   5.481   5.181  10.777  0.7489  0.4050 -0.0885
12836TIP3   OH259922   2.743   3.340  15.575 -0.0675  0.5347  0.2550
12836TIP3    H159923   2.661   3.379  15.546  0.3709  0.3908 -1.2107
12836TIP3    H259924   2.807   3.365  15.509  0.6890 -0.8438  0.4399
12837TIP3   OH259925   6.565   0.759  12.511  0.8051  0.4242  0.4871
12837TIP3    H159926   6.517   0.679  12.531  1.3543 -1.0954 -3.6871
12837TIP3    H259927   6.498   0.820  12.479  0.7699  0.5777  0.8595
12838TIP3   OH259928   6.503   1.609  13.992  0.1499  0.2525  0.0883
12838TIP3    H159929   6.511   1.594  14.086  0.8086  1.5232  0.2439
12838TIP3    H259930   6.587   1.581  13.956 -0.3661 -0.9419 -0.2361
12839TIP3   OH259931   4.153   2.470   4.487 -0.3717  0.0800  0.3441
12839TIP3    H159932   4.089   2.452   4.556 -0.5068 -0.3588  0.1115
12839TIP3    H259933   4.193   2.553   4.511 -1.1065  0.4050  0.4373
12840TIP3   OH259934   4.124   4.745   2.800  0.2899  0.4417 -0.0197
12840TIP3    H159935   4.059   4.687   2.839  1.3513 -0.2801  0.7031
12840TIP3    H259936   4.194   4.751   2.865  0.9424  1.2378 -0.7683
12841TIP3   OH259937   4.928   0.247   5.309  0.2839 -0.5934 -0.3263
12841TIP3    H159938   4.934   0.321   5.369 -0.5703 -0.5704 -0.2715
12841TIP3    H259939   5.006   0.195   5.328 -0.0147 -0.6219  0.8492
12842TIP3   OH259940   3.686   2.826  13.512  0.0172  0.2548 -0.1344
12842TIP3    H159941   3.624   2.881  13.464 -0.6897  0.7855  1.3820
12842TIP3    H259942   3.638   2.744  13.527 -0.1452  0.4843  0.6041
12843TIP3   OH259943   3.994   3.277  12.582  0.4344 -0.0264  0.3773
12843TIP3    H159944   4.050   3.350  12.608 -0.1699  0.3484  0.6336
12843TIP3    H259945   4.036   3.243  12.502  0.2164  1.1735 -0.2746
12844TIP3   OH259946   4.656   5.935  16.706  0.3100  0.2273  1.0723
12844TIP3    H159947   4.567   5.965  16.690  0.0364 -1.1330  0.0172
12844TIP3    H259948   4.656   5.908  16.798 -0.6101 -0.6156  0.8316
12845TIP3   OH259949   6.476   6.358  11.904 -0.2763 -0.7133  0.1122
12845TIP3    H159950   6.384   6.339  11.926 -0.9047 -0.1004 -1.8870
12845TIP3    H259951   6.517   6.271  11.898 -1.4498 -1.1810 -1.8670
12846TIP3   OH259952   5.628   4.674   1.743 -0.0246 -0.5960 -1.1019
12846TIP3    H159953   5.672   4.590   1.759 -0.4126 -0.3666  1.2881
12846TIP3    H259954   5.688   4.722   1.686  1.4584 -1.4568 -0.3017
12847TIP3   OH259955   5.938   4.029  12.290  0.3708 -0.4294 -0.1495
12847TIP3    H159956   5.855   3.999  12.327 -0.1518  0.5683 -0.4985
12847TIP3    H259957   5.970   3.953  12.241 -0.0207 -1.0283  0.4984
12848TIP3   OH259958   4.751   4.566   2.567 -0.8381  0.1616 -0.4322
12848TIP3    H159959   4.707   4.645   2.534  0.7781  0.3925 -2.1229
12848TIP3    H259960   4.781   4.521   2.488 -0.8437 -1.6301  0.5718
12849TIP3   OH259961   1.086   3.777   4.216  0.8736  0.7266  0.0747
12849TIP3    H159962   1.091   3.853   4.274  0.9799  0.6568  0.1585
12849TIP3    H259963   1.016   3.723   4.253  1.8582  0.0128  0.9529
12850TIP3   OH259964   2.452   1.185   2.414 -0.2737 -0.8432 -0.1506
12850TIP3    H159965   2.423   1.220   2.498 -1.3348 -1.3193 -0.3194
12850TIP3    H259966   2.494   1.260   2.370 -1.2601 -0.1546  0.0784
12851TIP3   OH259967   2.645   5.555  11.397 -0.2178  0.2795  0.1733
12851TIP3    H159968   2.646   5.493  11.324  0.4452 -0.4916  0.8223
12851TIP3    H259969   2.730   5.543  11.439 -0.1570  1.4954  0.4322
12852TIP3   OH259970   5.033   2.695   4.427  0.5314  0.4729  0.5107
12852TIP3    H159971   4.953   2.659   4.389  1.5877 -0.8231 -0.5126
12852TIP3    H259972   5.072   2.747   4.357  2.8925 -2.5593 -0.5247
12853TIP3   OH259973   4.373   3.846   2.512 -0.1604  0.3418  0.2358
12853TIP3    H159974   4.422   3.852   2.595 -2.1447 -2.6025  1.7194
12853TIP3    H259975   4.386   3.756   2.484 -1.0889  0.7930 -1.6886
12854TIP3   OH259976   2.761   3.751   5.489 -0.0236  0.1369 -0.1066
12854TIP3    H159977   2.737   3.682   5.551  2.8296 -0.3146  0.5595
12854TIP3    H259978   2.836   3.716   5.441 -0.8590  1.3314 -2.3638
12855TIP3   OH259979   2.362   2.722   2.203 -0.0117 -0.1771 -0.1548
12855TIP3    H159980   2.344   2.812   2.175 -0.5129 -0.1090  0.3643
12855TIP3    H259981   2.389   2.730   2.294  1.3595 -0.4232 -0.5287
12856TIP3   OH259982   6.396   6.721   5.771 -0.1278 -0.3551  0.7363
12856TIP3    H159983   6.398   6.744   5.864 -0.3587 -0.2030  0.7033
12856TIP3    H259984   6.362   6.799   5.727  1.8775  0.3103  0.2994
12857TIP3   OH259985   4.864   3.754   1.421  0.0301  0.0630  0.2411
12857TIP3    H159986   4.815   3.774   1.341  0.2823  1.5483  0.4440
12857TIP3    H259987   4.937   3.816   1.420 -1.5780  2.1064  3.0622
12858TIP3   OH259988   0.136   2.633  11.122  0.0755 -0.2021 -0.0812
12858TIP3    H159989   0.169   2.596  11.040  0.6505 -0.1994  0.1424
12858TIP3    H259990   0.120   2.557  11.178 -0.3248 -0.2041 -0.1976
12859TIP3   OH259991   5.252   0.170   1.754 -0.3542 -0.0395  0.1323
12859TIP3    H159992   5.212   0.089   1.721 -1.1647 -0.7280  2.6419
12859TIP3    H259993   5.297   0.143   1.834 -0.1968  1.9034  0.7299
12860TIP3   OH259994   1.628   4.545  14.233  0.3678 -0.3903  0.4438
12860TIP3    H159995   1.601   4.471  14.287  1.0167 -2.2323 -1.7027
12860TIP3    H259996   1.662   4.506  14.153  2.1431  2.1668 -0.1314
12861TIP3   OH259997   1.026   5.528   4.604  0.1196 -0.1043 -1.4579
12861TIP3    H159998   0.934   5.504   4.592  0.1783 -0.0920 -1.9097
12861TIP3    H259999   1.075   5.454   4.569  0.2761 -0.6547 -0.1240
12862TIP3   OH260000   1.836   4.569   1.452  0.0993 -0.5109  0.5110
12862TIP3    H160001   1.919   4.572   1.499  0.4207 -0.5325 -0.0475
12862TIP3    H260002   1.828   4.478   1.424  0.0465 -0.4365  0.2858
12863TIP3   OH260003   1.044   3.795  16.514 -0.0574  0.3143 -0.6977
12863TIP3    H160004   0.998   3.873  16.544 -1.4949 -1.0195  0.6497
12863TIP3    H260005   1.039   3.799  16.419 -3.6535 -0.1790 -0.5959
12864TIP3   OH260006   0.401   3.312   1.500  0.0721  0.4430  0.1159
12864TIP3    H160007   0.317   3.342   1.536 -0.5558  0.5599 -1.4035
12864TIP3    H260008   0.393   3.326   1.406  1.9447  0.7576 -0.0078
12865TIP3   OH260009   2.350   0.166  12.958  0.7575  0.1635 -0.4404
12865TIP3    H160010   2.348   0.177  12.863  1.2334 -0.1214 -0.4899
12865TIP3    H260011   2.367   0.253  12.992 -0.5838  0.4766 -0.5531
12866TIP3   OH260012   1.670   4.853  11.519  0.3118  0.0614 -0.3176
12866TIP3    H160013   1.750   4.802  11.509 -0.0800 -0.4225 -1.0917
12866TIP3    H260014   1.615   4.825  11.446 -0.6046  0.3100  0.2682
12867TIP3   OH260015   2.409   4.126  13.323  0.7641 -0.1764 -0.5220
12867TIP3    H160016   2.487   4.098  13.372  0.5660  0.5263  0.2130
12867TIP3    H260017   2.383   4.208  13.365 -0.3267 -0.3634 -0.8136
12868TIP3   OH260018   4.928   6.348   5.351  0.0196 -0.3736 -0.1678
12868TIP3    H160019   4.948   6.260   5.318 -0.5705 -0.2717 -0.8315
12868TIP3    H260020   4.956   6.407   5.281  2.6682  0.1508  1.2886
12869TIP3   OH260021   4.753   3.388  15.272  0.0735  0.5736  0.2438
12869TIP3    H160022   4.704   3.466  15.297 -1.5041 -0.4618  0.4690
12869TIP3    H260023   4.688   3.332  15.228  1.0079 -0.9033  0.6921
12870TIP3   OH260024   6.414   5.465  12.092  0.1474 -0.0977  0.7814
12870TIP3    H160025   6.319   5.454  12.086  0.0829  1.0435 -0.8410
12870TIP3    H260026   6.438   5.429  12.177 -1.4865 -2.0335  0.4493
12871TIP3   OH260027   3.499   0.564   1.544 -0.3614  0.7300 -0.2631
12871TIP3    H160028   3.446   0.488   1.519 -0.8601  1.0395 -0.1449
12871TIP3    H260029   3.436   0.628   1.577 -0.4410  2.9397 -4.4782
12872TIP3   OH260030   0.761   6.457   4.303  0.2924 -0.2972  0.3179
12872TIP3    H160031   0.714   6.528   4.258  1.2050 -0.7600 -1.4323
12872TIP3    H260032   0.735   6.378   4.255  2.4248 -0.6177 -0.3355
12873TIP3   OH260033   3.468   4.712   4.155  0.4020 -0.0161 -0.0705
12873TIP3    H160034   3.525   4.656   4.102 -0.9954 -0.0959 -1.5410
12873TIP3    H260035   3.490   4.691   4.245  1.4291 -1.3623 -0.6199
12874TIP3   OH260036   1.138   6.083  11.963 -0.2805 -0.3165 -0.7944
12874TIP3    H160037   1.233   6.097  11.971 -0.4224  0.2863 -0.0737
12874TIP3    H260038   1.099   6.159  12.006 -1.0900 -1.2249  0.1137
12875TIP3   OH260039   1.436   3.006  15.671  0.0098 -0.2981  0.1612
12875TIP3    H160040   1.519   3.006  15.623  0.6897  0.6959  1.3252
12875TIP3    H260041   1.457   3.043  15.756 -1.4302 -0.9969  0.8404
12876TIP3   OH260042   0.528   2.182   4.020  0.2233 -0.4688  0.2571
12876TIP3    H160043   0.542   2.263   4.069 -0.0845  0.2589 -0.8374
12876TIP3    H260044   0.554   2.204   3.931 -2.5861 -0.7104 -0.6659
12877TIP3   OH260045   6.310   5.074   4.651 -0.0359 -0.2506  0.8598
12877TIP3    H160046   6.260   5.038   4.723 -1.1476 -0.3319  0.0573
12877TIP3    H260047   6.316   5.002   4.588  0.2771  0.0566  0.5333
12878TIP3   OH260048   2.923   2.979  15.169 -0.0252 -0.3209  0.0007
12878TIP3    H160049   2.930   2.939  15.082 -2.3388  2.0625 -1.3380
12878TIP3    H260050   2.987   3.050  15.168  0.3553 -0.6504  0.4914
12879TIP3   OH260051   0.856   1.515  14.998  0.4549 -0.1242 -0.2781
12879TIP3    H160052   0.948   1.504  15.019  0.1890 -1.6884  0.1817
12879TIP3    H260053   0.840   1.452  14.927 -0.6543 -1.2084  0.8894
12880TIP3   OH260054   2.011   5.868   4.033 -0.0683  0.5497 -0.3885
12880TIP3    H160055   1.940   5.932   4.033 -0.7362 -0.1851 -0.7916
12880TIP3    H260056   1.973   5.789   3.995  1.3472  0.5856 -1.9423
12881TIP3   OH260057   6.036   5.093  16.211 -0.1696  0.0673  0.4077
12881TIP3    H160058   5.990   5.162  16.164  3.1778  0.8629 -1.8872
12881TIP3    H260059   6.028   5.016  16.154  1.8047  0.3899 -0.3486
12882TIP3   OH260060   6.715   3.015   1.892  0.3901  0.1354  0.4388
12882TIP3    H160061   6.783   2.977   1.837 -0.9900 -2.7664  0.6406
12882TIP3    H260062   6.760   3.038   1.973  1.9257  2.1375 -0.9420
12883TIP3   OH260063   4.691   4.991   0.912 -0.0949  0.1292  0.1394
12883TIP3    H160064   4.708   5.005   1.006 -1.1749 -0.9636  0.4975
12883TIP3    H260065   4.604   4.953   0.909 -0.3083  0.7336 -1.3684
12884TIP3   OH260066   1.108   6.150   1.193  0.6735  0.2463 -0.4150
12884TIP3    H160067   1.202   6.138   1.207  0.9140  1.8562 -0.5096
12884TIP3    H260068   1.099   6.170   1.100  0.3656  1.1574 -0.1975
12885TIP3   OH260069   1.199   3.980  13.466 -0.8171 -0.1554  0.6112
12885TIP3    H160070   1.127   4.039  13.441 -0.6810 -0.1390  0.2419
12885TIP3    H260071   1.160   3.918  13.527 -1.6436 -1.3499 -1.0682
12886TIP3   OH260072   1.302   3.789  16.679 -0.1424 -0.3573 -0.2809
12886TIP3    H160073   1.333   3.718  16.622 -1.0469 -0.4416 -0.6875
12886TIP3    H260074   1.219   3.817  16.639  0.1515  0.8579 -0.0619
12887TIP3   OH260075   5.623   4.399  12.954 -0.3102  0.1735  0.6304
12887TIP3    H160076   5.619   4.310  12.988 -3.2368  0.4686  1.1769
12887TIP3    H260077   5.608   4.390  12.860  3.2099 -0.2033  0.0214
12888TIP3   OH260078   6.772   1.693  17.206  0.2636 -0.2956 -0.0123
12888TIP3    H160079   6.865   1.697  17.184  0.1915  0.2592 -0.2069
12888TIP3    H260080   6.735   1.773  17.169 -0.2560 -0.4252  0.2271
12889TIP3   OH260081   1.980   6.016  12.138  0.0582 -0.6168 -0.3359
12889TIP3    H160082   2.037   6.018  12.214  1.6635  1.4701 -1.5532
12889TIP3    H260083   1.958   5.923  12.126 -0.8803 -0.9023  3.0953
12890TIP3   OH260084   1.357   5.776   4.855 -0.1448  0.3634  0.0351
12890TIP3    H160085   1.289   5.746   4.795  0.5507  0.1615 -0.6541
12890TIP3    H260086   1.367   5.869   4.834  0.3056  0.2268 -0.3750
12891TIP3   OH260087   2.553   1.736   3.000 -0.0754  0.2429 -0.9479
12891TIP3    H160088   2.646   1.752   2.984  0.8326 -1.4748  2.2268
12891TIP3    H260089   2.550   1.648   3.038 -2.8493  0.9377  0.5722
12892TIP3   OH260090   5.677   6.000   2.562 -0.6580 -0.5495  0.5203
12892TIP3    H160091   5.612   5.930   2.562 -2.2820  0.9098  1.1648
12892TIP3    H260092   5.718   5.995   2.648 -1.1482 -0.3947  0.7693
12893TIP3   OH260093   2.448   3.505   6.120 -0.5351  0.0919  0.3910
12893TIP3    H160094   2.375   3.551   6.079 -2.1127 -1.2917  1.5673
12893TIP3    H260095   2.464   3.429   6.064 -1.0272 -0.4423  0.9724
12894TIP3   OH260096   3.503   5.609   2.397 -0.2188  0.6201  0.0727
12894TIP3    H160097   3.466   5.530   2.437 -2.7145  0.5698 -2.2101
12894TIP3    H260098   3.598   5.593   2.398 -0.7566 -3.4400 -2.3000
12895TIP3   OH260099   5.714   1.865  14.811  0.2758 -0.0398 -0.9993
12895TIP3    H160100   5.711   1.885  14.717  0.9557 -0.6287 -1.1539
12895TIP3    H260101   5.808   1.864  14.831  0.2195 -2.1279 -0.7895
12896TIP3   OH260102   6.290   3.785  16.319  0.2174  0.3894  0.1751
12896TIP3    H160103   6.378   3.786  16.356  0.8206 -1.8709 -1.1570
12896TIP3    H260104   6.295   3.727  16.243 -2.3693  0.3846 -0.0583
12897TIP3   OH260105   6.340   0.972  14.245  0.2575  0.0412  0.9819
12897TIP3    H160106   6.247   0.969  14.267  0.0974 -0.3723  0.2390
12897TIP3    H260107   6.378   1.033  14.309 -0.9875  2.3543 -0.4070
12898TIP3   OH260108   1.487   1.200   5.279  0.0819 -0.1536  0.4589
12898TIP3    H160109   1.413   1.182   5.221 -0.4938  0.7620  0.9191
12898TIP3    H260110   1.561   1.154   5.237 -0.0944  1.3625 -1.5832
12899TIP3   OH260111   5.729   0.274  12.630 -0.0271 -0.7438  0.2453
12899TIP3    H160112   5.806   0.238  12.586 -1.0093 -0.3293 -1.8546
12899TIP3    H260113   5.683   0.322  12.563 -1.2530  0.4535  1.9019
12900TIP3   OH260114   3.488   1.024  16.813 -0.4802  0.0420 -0.2331
12900TIP3    H160115   3.431   1.048  16.740  0.2464  0.3267 -0.7103
12900TIP3    H260116   3.570   0.997  16.772 -0.0805  0.1597  0.4743
12901TIP3   OH260117   1.292   2.860  16.917 -0.3185  0.0001  0.0136
12901TIP3    H160118   1.222   2.797  16.931  0.5066 -0.6948  1.0836
12901TIP3    H260119   1.314   2.890  17.005 -0.8098  1.9115 -0.4884
12902TIP3   OH260120   6.574   4.825   5.965  0.0545 -0.4732 -0.4431
12902TIP3    H160121   6.647   4.778   6.006  1.0397  1.8442  0.5403
12902TIP3    H260122   6.529   4.867   6.038 -1.3545 -0.5962 -1.2201
12903TIP3   OH260123   6.394   1.283  14.119 -0.3073  0.1135 -0.1035
12903TIP3    H160124   6.357   1.315  14.201  0.5275  1.5519 -0.2852
12903TIP3    H260125   6.477   1.242  14.145 -1.1254 -1.5087  0.0568
12904TIP3   OH260126   5.553   5.075  15.149 -0.2350  0.4658 -0.3248
12904TIP3    H160127   5.470   5.029  15.162 -0.4783  0.2217 -2.5586
12904TIP3    H260128   5.617   5.021  15.196 -1.0257 -0.3790 -0.1939
12905TIP3   OH260129   1.513   6.713  12.935 -0.1782  0.1466 -0.5796
12905TIP3    H160130   1.437   6.770  12.924  0.3242  1.1851  1.0778
12905TIP3    H260131   1.483   6.627  12.907 -1.3249  0.9705 -1.9435
12906TIP3   OH260132   4.108   3.422  14.762 -0.4371  0.0364 -0.3948
12906TIP3    H160133   4.172   3.371  14.712  0.5508  0.6179  0.2549
12906TIP3    H260134   4.058   3.470  14.696  0.9828  0.9566 -0.8227
12907TIP3   OH260135   1.300   0.454  16.315 -0.5256  0.3434  0.4122
12907TIP3    H160136   1.304   0.362  16.289 -0.8984  0.4681 -0.0857
12907TIP3    H260137   1.390   0.485  16.310 -0.6134  0.4132 -0.8798
12908TIP3   OH260138   1.155   5.133   4.788  0.5291 -0.7039  0.4349
12908TIP3    H160139   1.133   5.225   4.776  0.9299 -0.5945  0.5254
12908TIP3    H260140   1.071   5.087   4.786  0.3910 -0.4240 -0.3837
12909TIP3   OH260141   2.623   5.667   5.806 -0.1978  0.2301  0.4797
12909TIP3    H160142   2.691   5.667   5.873 -0.0802 -2.5443  0.4204
12909TIP3    H260143   2.667   5.699   5.727  1.5639 -3.0102  0.0290
12910TIP3   OH260144   1.902   0.638   1.924 -0.1125 -0.4199 -0.4106
12910TIP3    H160145   1.833   0.614   1.862 -1.6811 -2.1216  1.8604
12910TIP3    H260146   1.869   0.607   2.008  0.9972  3.6173  1.6461
12911TIP3   OH260147   0.109   1.053  16.998  0.0266 -0.1909 -0.1121
12911TIP3    H160148   0.028   1.047  16.946 -1.3819  2.9909  1.5681
12911TIP3    H260149   0.171   1.097  16.941 -0.2588 -0.2508 -0.4681
12912TIP3   OH260150   1.980   1.494  12.884  0.1906  0.7671 -0.6227
12912TIP3    H160151   2.003   1.582  12.855 -2.9727  1.9078  0.0854
12912TIP3    H260152   2.053   1.467  12.940  1.4800  2.6961 -1.3267
12913TIP3   OH260153   2.682   2.273   2.640 -0.8255  0.2384  0.0814
12913TIP3    H160154   2.666   2.257   2.547 -1.2290 -2.1766  0.5247
12913TIP3    H260155   2.771   2.242   2.654 -0.3625  1.6354  0.2932
12914TIP3   OH260156   3.258   2.668   4.735 -0.2246 -0.4202  0.6023
12914TIP3    H160157   3.292   2.635   4.818 -2.2813  0.0253  1.6630
12914TIP3    H260158   3.262   2.763   4.743 -0.4517 -0.3744  0.1905
12915TIP3   OH260159   5.371   6.065   3.747  0.3893 -0.0185 -0.0065
12915TIP3    H160160   5.371   6.132   3.815 -0.3017 -0.6230  0.5926
12915TIP3    H260161   5.386   6.114   3.666 -0.5048  0.9130  0.3821
12916TIP3   OH260162   0.285   6.442  15.849 -0.3811  0.0619 -0.1420
12916TIP3    H160163   0.272   6.419  15.940 -1.3496 -1.1254 -0.5727
12916TIP3    H260164   0.203   6.417  15.805  0.1425  0.4278 -1.3661
12917TIP3   OH260165   0.595   5.646  11.689  0.6452  0.2724 -0.7566
12917TIP3    H160166   0.602   5.589  11.612  1.2443  0.1515 -0.6149
12917TIP3    H260167   0.585   5.585  11.763  1.1741  0.3588 -0.6177
12918TIP3   OH260168   1.407   5.748  12.484  0.0564 -0.2140 -0.3379
12918TIP3    H160169   1.471   5.677  12.484  0.7305  0.3794  0.8820
12918TIP3    H260170   1.459   5.828  12.481 -0.6530  0.2560 -0.3438
12919TIP3   OH260171   5.348   4.350  16.400 -0.2335 -0.1515 -0.1002
12919TIP3    H160172   5.411   4.296  16.448 -1.2102 -0.7972  0.4772
12919TIP3    H260173   5.267   4.300  16.404 -0.5706  0.2772 -1.5667
12920TIP3   OH260174   5.531   6.267   0.535  0.1535  0.0871  0.0072
12920TIP3    H160175   5.567   6.194   0.485  0.1516  2.2311 -3.2715
12920TIP3    H260176   5.437   6.265   0.516 -0.0014  0.3185  0.7416
12921TIP3   OH260177   3.914   6.294   0.445  0.0906  0.2675  0.7746
12921TIP3    H160178   3.903   6.199   0.440  0.7038  0.1660  1.2491
12921TIP3    H260179   3.933   6.321   0.355  1.4756 -0.2676  0.8981
12922TIP3   OH260180   0.039   2.634  13.461  0.3347 -0.9182  0.0159
12922TIP3    H160181   0.132   2.651  13.444  0.0607 -1.9000 -2.6439
12922TIP3    H260182   0.037   2.542  13.488  0.2837 -0.4590  1.6613
12923TIP3   OH260183   2.808   4.134  14.172 -0.1486 -0.0561 -0.3335
12923TIP3    H160184   2.833   4.194  14.102  0.1247 -1.6608 -1.6539
12923TIP3    H260185   2.861   4.161  14.247  1.2617  0.2529 -1.4158
12924TIP3   OH260186   5.722   3.940  13.914 -0.2193  0.2689  0.7872
12924TIP3    H160187   5.773   3.879  13.967 -1.1258 -0.7734  0.4882
12924TIP3    H260188   5.783   3.969  13.846  0.0614 -0.7495  0.5917
12925TIP3   OH260189   0.726   4.055  17.056  0.4911 -0.1978  0.4552
12925TIP3    H160190   0.739   3.969  17.015  0.5282  0.3176 -0.6222
12925TIP3    H260191   0.646   4.088  17.017  0.3716  0.1833  1.0195
12926TIP3   OH260192   3.099   3.041   0.284  0.5566  0.2825  0.3834
12926TIP3    H160193   3.112   3.136   0.281 -0.4216  0.4513  1.1493
12926TIP3    H260194   3.029   3.024   0.221  1.5495 -0.0918 -0.6354
12927TIP3   OH260195   6.370   3.712   4.711  0.2759  0.5052 -0.4690
12927TIP3    H160196   6.386   3.777   4.643  0.9425  1.1111  0.2421
12927TIP3    H260197   6.310   3.649   4.672 -0.3661  1.5454 -1.1734
12928TIP3   OH260198   4.438   2.460  13.590  0.2236 -0.1440 -0.1873
12928TIP3    H160199   4.510   2.499  13.541  0.7493 -1.5601 -0.5846
12928TIP3    H260200   4.361   2.512  13.567  1.3041  2.0600  1.0837
12929TIP3   OH260201   3.264   1.094  12.360 -0.4188  0.3939 -0.0063
12929TIP3    H160202   3.316   1.169  12.388  0.4699 -0.0495 -0.4501
12929TIP3    H260203   3.251   1.107  12.266 -2.1060  1.0993  0.3160
12930TIP3   OH260204   5.802   3.744   0.117  0.0065 -0.2394 -0.0894
12930TIP3    H160205   5.877   3.684   0.123 -0.0025 -0.3104 -0.6709
12930TIP3    H260206   5.726   3.685   0.107  0.1039 -0.1025 -1.6708
12931TIP3   OH260207   2.857   4.342   0.577  0.0009 -0.0895 -0.1605
12931TIP3    H160208   2.873   4.267   0.634 -0.8369  0.5276  0.8815
12931TIP3    H260209   2.777   4.319   0.529 -0.1651  0.0728  0.0405
12932TIP3   OH260210   5.438   1.870  11.382 -0.5639 -0.0419  0.3990
12932TIP3    H160211   5.446   1.781  11.349  1.1683  0.2382  0.0355
12932TIP3    H260212   5.477   1.867  11.469  2.2746  1.0135 -0.8024
12933TIP3   OH260213   0.242   3.392   3.139 -0.1095 -0.1584  0.1258
12933TIP3    H160214   0.300   3.362   3.069  1.5095  1.5021  0.7181
12933TIP3    H260215   0.227   3.484   3.120 -2.4072 -0.5084  0.1227
12934TIP3   OH260216   5.772   1.370  15.943  0.2474  0.6854  0.1286
12934TIP3    H160217   5.743   1.372  16.034  0.2403  0.7910  0.1250
12934TIP3    H260218   5.692   1.381  15.892  0.0041 -1.2780  0.0736
12935TIP3   OH260219   4.595   4.491   3.369  0.6174 -0.1660  0.3096
12935TIP3    H160220   4.585   4.585   3.355 -0.7293 -0.3029  0.2398
12935TIP3    H260221   4.689   4.478   3.381  0.8735  1.1136 -0.2142
12936TIP3   OH260222   4.187   2.687   2.116  0.3431 -0.1740 -0.2243
12936TIP3    H160223   4.190   2.601   2.157  0.4995 -0.1489 -0.1814
12936TIP3    H260224   4.149   2.744   2.183  0.4678 -0.1609 -0.1647
12937TIP3   OH260225   0.731   0.997   1.981 -0.2628  0.1322  0.0310
12937TIP3    H160226   0.697   0.926   2.035 -1.6526 -0.6013 -1.7436
12937TIP3    H260227   0.744   0.957   1.895 -0.3940  1.8506 -0.7986
12938TIP3   OH260228   0.445   1.862  15.237 -0.3733 -0.9773 -0.2378
12938TIP3    H160229   0.479   1.905  15.159  0.5134 -1.1211  0.0705
12938TIP3    H260230   0.381   1.799  15.203 -0.5103 -0.5387 -0.7956
12939TIP3   OH260231   4.909   1.682   2.440  0.1162 -0.0868  0.0104
12939TIP3    H160232   4.975   1.644   2.382 -0.3186  1.3696 -1.4768
12939TIP3    H260233   4.836   1.703   2.382 -0.4553  1.0899  1.1394
12940TIP3   OH260234   1.049   2.499   3.253 -0.7446  0.6196 -0.5761
12940TIP3    H160235   1.041   2.458   3.340  0.9312  1.9357  0.2135
12940TIP3    H260236   1.072   2.427   3.195 -3.2693 -0.5340 -0.2081
12941TIP3   OH260237   3.625   6.636  16.395 -0.0160 -0.2858 -0.2369
12941TIP3    H160238   3.689   6.601  16.456 -1.0018 -1.4283  0.1682
12941TIP3    H260239   3.656   6.609  16.309  0.8543  0.4848 -0.1708
12942TIP3   OH260240   3.140   0.976  12.644 -0.4005 -0.4407 -0.6889
12942TIP3    H160241   3.231   0.995  12.622 -0.1967  0.5836  0.9734
12942TIP3    H260242   3.090   1.027  12.580  0.1983 -0.2679 -1.0278
12943TIP3   OH260243   0.216   2.923  15.389  0.2845 -0.0016 -0.1005
12943TIP3    H160244   0.154   2.874  15.335 -0.0905  0.1730  0.1685
12943TIP3    H260245   0.273   2.856  15.428 -0.0589 -0.2001  0.0595
12944TIP3   OH260246   1.307   4.824  16.306 -0.1914 -0.1465 -0.2170
12944TIP3    H160247   1.247   4.896  16.326 -0.7005 -0.8949  1.0116
12944TIP3    H260248   1.391   4.852  16.342 -0.4350 -0.2334  0.4337
12945TIP3   OH260249   6.702   2.410  15.384 -0.1341 -0.1885 -0.0794
12945TIP3    H160250   6.793   2.413  15.414  0.6586  1.0111 -2.5087
12945TIP3    H260251   6.651   2.398  15.465  2.0724  0.4251  1.4667
12946TIP3   OH260252   4.981   4.118  14.336 -0.0062 -0.3062  0.7467
12946TIP3    H160253   4.993   4.025  14.321 -0.7128 -0.4398  0.9973
12946TIP3    H260254   5.039   4.139  14.409  0.3800 -0.4824  0.4925
12947TIP3   OH260255   1.130   1.110   0.622  0.1808  0.2164  0.4377
12947TIP3    H160256   1.121   1.195   0.665 -0.6113  0.8476 -0.9524
12947TIP3    H260257   1.093   1.122   0.535 -0.4051 -1.6904  0.3852
12948TIP3   OH260258   0.395   6.337   3.387 -0.3634 -0.9921  0.3755
12948TIP3    H160259   0.301   6.353   3.388 -0.3900 -1.2172  1.0124
12948TIP3    H260260   0.424   6.358   3.476  0.1377 -1.2362  0.2688
12949TIP3   OH260261   5.329   2.309   2.786 -0.4562  0.5044 -0.1448
12949TIP3    H160262   5.320   2.390   2.735  2.8717  0.7994 -0.3865
12949TIP3    H260263   5.392   2.257   2.736 -0.1803 -0.9114  1.6305
12950TIP3   OH260264   2.423   5.407   2.969 -0.5455  1.1743 -0.4479
12950TIP3    H160265   2.421   5.501   2.985 -0.5838  1.0308  0.4135
12950TIP3    H260266   2.384   5.397   2.882  0.1955  2.0197 -0.8988
12951TIP3   OH260267   4.144   0.796   3.852 -0.1708 -0.4568  0.0353
12951TIP3    H160268   4.112   0.746   3.927 -0.8377 -0.4416 -0.2441
12951TIP3    H260269   4.085   0.871   3.846  0.6885  0.2551  0.3106
12952TIP3   OH260270   5.236   1.948  11.071 -0.3844 -0.4724  0.4772
12952TIP3    H160271   5.178   1.968  11.144 -0.6624  0.3519  0.0381
12952TIP3    H260272   5.182   1.963  10.993 -0.3320 -2.0657  0.1143
12953TIP3   OH260273   6.338   2.333   4.523 -0.2236  0.2565  0.5221
12953TIP3    H160274   6.389   2.414   4.521  0.0470  0.1684  2.5117
12953TIP3    H260275   6.292   2.331   4.439  0.2719  2.1413  0.1853
12954TIP3   OH260276   1.586   4.549   3.170 -0.2518  0.0361  0.1241
12954TIP3    H160277   1.553   4.523   3.256  0.9039  0.4082  0.6929
12954TIP3    H260278   1.618   4.638   3.183  0.2778 -0.0469 -0.5969
12955TIP3   OH260279   0.025   5.255  12.763  0.2878 -0.4511 -0.1040
12955TIP3    H160280   0.108   5.287  12.726  0.0885  0.5647  0.3243
12955TIP3    H260281   0.046   5.167  12.796  1.1786 -0.2298 -0.0673
12956TIP3   OH260282   2.713   1.833  17.150 -0.2453 -0.5548  0.3319
12956TIP3    H160283   2.672   1.812  17.234  0.1803  0.0946  0.7048
12956TIP3    H260284   2.792   1.882  17.174 -1.8403  2.5781 -0.5598
12957TIP3   OH260285   1.937   0.488   6.086 -0.2265  0.0891 -0.1007
12957TIP3    H160286   1.902   0.438   6.159 -2.4119  2.0447  0.2348
12957TIP3    H260287   1.907   0.443   6.008 -1.3105  0.2883  0.2034
12958TIP3   OH260288   2.413   0.314  11.057 -0.5218  0.1396 -0.4167
12958TIP3    H160289   2.471   0.307  10.981  0.6561  1.3196  0.3471
12958TIP3    H260290   2.375   0.401  11.051  1.5118  1.2283  1.6500
12959TIP3   OH260291   5.399   4.091   4.097  0.2251 -0.0389  0.6117
12959TIP3    H160292   5.335   4.080   4.167 -0.1378  1.0377  0.4472
12959TIP3    H260293   5.347   4.088   4.016  0.3981  0.6732  0.4725
12960TIP3   OH260294   0.623   6.746  12.115 -0.0824 -0.4434  0.4195
12960TIP3    H160295   0.669   6.829  12.104  0.3782 -0.6467  0.8012
12960TIP3    H260296   0.692   6.680  12.110 -0.7177 -0.9707 -2.2315
12961TIP3   OH260297   1.358   1.602   3.826  0.0387  0.5253 -0.1483
12961TIP3    H160298   1.399   1.671   3.878  2.9519 -0.5502 -0.9440
12961TIP3    H260299   1.373   1.628   3.735 -4.5535  2.1209 -0.6144
12962TIP3   OH260300   5.346   4.887  14.425 -0.2676  0.2260 -0.3801
12962TIP3    H160301   5.357   4.980  14.446  0.7534  0.3917 -1.6046
12962TIP3    H260302   5.391   4.841  14.497 -0.2850  0.6873 -0.0698
12963TIP3   OH260303   5.142   0.948  12.750 -0.5321 -0.3568  0.1329
12963TIP3    H160304   5.237   0.962  12.757 -0.5015 -0.9501  1.0483
12963TIP3    H260305   5.134   0.876  12.687 -0.2360 -1.8338  1.7402
12964TIP3   OH260306   5.696   4.577   2.429 -0.0212  0.1951  0.6165
12964TIP3    H160307   5.642   4.595   2.351 -0.4940 -3.2597  0.0794
12964TIP3    H260308   5.635   4.583   2.502 -0.2351  0.4533  0.4171
12965TIP3   OH260309   6.353   3.814   3.886  0.2099 -0.3459 -0.4782
12965TIP3    H160310   6.383   3.869   3.958  2.1786  0.5626 -1.9558
12965TIP3    H260311   6.306   3.874   3.828 -2.3934 -1.2858  0.5548
12966TIP3   OH260312   1.729   0.256   3.622 -0.2388 -0.0344 -0.1510
12966TIP3    H160313   1.818   0.266   3.588 -0.2761 -0.1553 -0.2871
12966TIP3    H260314   1.680   0.221   3.548 -0.4186  0.1162 -0.1019
12967TIP3   OH260315   0.578   5.583   4.380 -0.6094 -0.2214 -0.0749
12967TIP3    H160316   0.541   5.646   4.319  0.6449  2.3539  1.7111
12967TIP3    H260317   0.592   5.633   4.461 -0.0925 -2.9330  1.5890
12968TIP3   OH260318   5.323   1.536  13.326 -0.4709 -0.2403  0.0356
12968TIP3    H160319   5.289   1.619  13.358  0.3817 -0.5379  1.7697
12968TIP3    H260320   5.299   1.534  13.233 -1.3595  1.4815  0.2152
12969TIP3   OH260321   6.394   3.174   4.264 -0.1902  0.3142  0.2466
12969TIP3    H160322   6.323   3.172   4.200 -0.4436  0.4948  0.5208
12969TIP3    H260323   6.391   3.088   4.306 -1.7491  1.1312  1.8850
12970TIP3   OH260324   1.463   1.822   0.659 -0.1959 -0.3132 -0.2211
12970TIP3    H160325   1.388   1.767   0.640 -0.0373 -0.0275 -1.7276
12970TIP3    H260326   1.520   1.812   0.583 -0.9634  3.2956 -1.3739
12971TIP3   OH260327   5.307   2.723   4.119  0.0284 -0.0585 -0.2963
12971TIP3    H160328   5.245   2.651   4.111  0.0315 -0.3522  2.0303
12971TIP3    H260329   5.387   2.690   4.078 -0.0578 -1.2731  0.4914
12972TIP3   OH260330   2.098   4.820   0.525  0.5021 -0.6800  0.5518
12972TIP3    H160331   2.030   4.822   0.593  0.1667  0.2240  0.2034
12972TIP3    H260332   2.052   4.792   0.446  0.4267  0.3292  0.2202
12973TIP3   OH260333   2.632   2.908  17.215  0.1992  0.1241  0.4222
12973TIP3    H160334   2.575   2.870  17.148 -0.3774  0.2315  0.8535
12973TIP3    H260335   2.698   2.840  17.232  0.5638  0.2357 -0.5067
12974TIP3   OH260336   5.790   1.404  16.734  0.0727  0.0033 -0.5690
12974TIP3    H160337   5.781   1.413  16.829  3.1308 -1.7771 -0.0484
12974TIP3    H260338   5.846   1.477  16.708  0.9555 -0.6930 -0.6601
12975TIP3   OH260339   1.071   5.356  16.454 -0.3077  0.1058 -0.4988
12975TIP3    H160340   1.153   5.405  16.448 -0.0564 -0.4639 -1.7977
12975TIP3    H260341   1.006   5.422  16.479  0.6351  0.4522  1.1521
12976TIP3   OH260342   0.697   3.869  12.857  0.5436 -0.4266 -0.1443
12976TIP3    H160343   0.787   3.875  12.889  0.5299 -1.2887  0.0802
12976TIP3    H260344   0.654   3.810  12.918 -0.1958  0.0406 -0.2106
12977TIP3   OH260345   4.582   0.614   5.565  0.2239 -0.4029  0.6561
12977TIP3    H160346   4.505   0.564   5.538 -1.0244  2.1304 -0.6197
12977TIP3    H260347   4.640   0.611   5.490  0.5968 -0.7501  0.9527
12978TIP3   OH260348   1.596   4.899  14.689  0.1096 -0.6270  0.4614
12978TIP3    H160349   1.571   4.831  14.627 -0.4652 -0.0980  0.1033
12978TIP3    H260350   1.660   4.952  14.643  0.8904 -1.1890  0.8982
12979TIP3   OH260351   2.503   6.068   0.553  0.1805 -0.0241  0.1393
12979TIP3    H160352   2.475   6.007   0.621 -1.9696  0.3750 -0.3691
12979TIP3    H260353   2.426   6.121   0.533  1.3381  1.2537 -1.1552
12980TIP3   OH260354   1.489   3.254   1.888 -0.3438  0.0254  0.1287
12980TIP3    H160355   1.404   3.297   1.901 -0.1061  0.7474 -0.6302
12980TIP3    H260356   1.502   3.256   1.793  1.0761  1.0121  0.3310
12981TIP3   OH260357   5.623   4.807   5.353 -0.0339  0.0373 -0.5474
12981TIP3    H160358   5.573   4.790   5.433 -0.2433 -1.1425 -0.9212
12981TIP3    H260359   5.579   4.883   5.314  0.1300  0.6896  0.4855
12982TIP3   OH260360   3.260   2.515   2.593  0.3664  0.1131 -0.4441
12982TIP3    H160361   3.170   2.487   2.607  0.5291 -0.2567 -0.1163
12982TIP3    H260362   3.292   2.460   2.522  1.0662 -1.4051  1.0044
12983TIP3   OH260363   2.027   1.499  12.595 -0.1664  0.4435 -0.2067
12983TIP3    H160364   2.056   1.557  12.665 -1.8731  0.7810  0.2371
12983TIP3    H260365   1.964   1.441  12.637 -0.1489 -0.2733 -1.1582
12984TIP3   OH260366   2.781   2.008  11.144  0.6398 -0.0382 -0.5589
12984TIP3    H160367   2.807   2.079  11.085  1.5029  1.3284  1.4187
12984TIP3    H260368   2.853   1.945  11.138  0.6888  0.0546 -0.9977
12985TIP3   OH260369   5.806   2.167  17.200 -0.4480 -0.2413 -0.9974
12985TIP3    H160370   5.776   2.246  17.245  1.4898 -0.5393  0.9427
12985TIP3    H260371   5.746   2.099  17.229 -0.8580  0.1164 -1.0071
12986TIP3   OH260372   3.864   4.315   0.089  0.0539 -0.3465  0.0767
12986TIP3    H160373   3.934   4.252   0.073  1.0935  0.9636 -0.6720
12986TIP3    H260374   3.786   4.262   0.103  0.9026 -1.7914 -0.5730
12987TIP3   OH260375   4.156   3.001   0.546  0.1060 -0.0885  0.0088
12987TIP3    H160376   4.226   2.996   0.612 -0.8750  2.6089  1.3346
12987TIP3    H260377   4.203   3.010   0.463  1.3392 -0.3449  0.6592
12988TIP3   OH260378   1.722   2.770  15.296  0.2689 -0.2891  0.0363
12988TIP3    H160379   1.657   2.727  15.351  0.9000  0.2929  1.2717
12988TIP3    H260380   1.746   2.704  15.230 -2.0955 -0.2420 -0.9048
12989TIP3   OH260381   4.517   0.915   5.045  0.2386  0.1805  0.5332
12989TIP3    H160382   4.601   0.925   5.000 -0.2554 -0.6938 -0.5949
12989TIP3    H260383   4.459   0.877   4.980 -0.4781 -1.1390  1.9034
12990TIP3   OH260384   2.295   2.208   5.102  0.7947 -0.3737 -0.1882
12990TIP3    H160385   2.234   2.194   5.030  0.0847  0.9276  0.1295
12990TIP3    H260386   2.370   2.253   5.062  1.0206 -0.9090 -0.3664
12991TIP3   OH260387   5.525   6.398  11.881  0.2076 -0.1942 -0.2297
12991TIP3    H160388   5.485   6.313  11.900 -0.8359  0.4935  0.7342
12991TIP3    H260389   5.619   6.381  11.882  0.1339 -0.7861  2.9571
12992TIP3   OH260390   5.472   3.588   4.260 -0.2720  0.0442  0.2136
12992TIP3    H160391   5.489   3.682   4.266 -1.1878  0.2003  0.5636
12992TIP3    H260392   5.482   3.556   4.350 -0.7205 -0.0474  0.2333
12993TIP3   OH260393   0.826   6.013   1.703 -0.2038  0.1451 -0.2120
12993TIP3    H160394   0.916   5.981   1.708 -0.8840 -1.5581  2.1034
12993TIP3    H260395   0.818   6.047   1.614  2.6862  0.2336 -0.4921
12994TIP3   OH260396   0.468   1.030   4.239  0.1002 -0.3425  0.1678
12994TIP3    H160397   0.392   0.972   4.240 -0.0981 -0.0706  0.6488
12994TIP3    H260398   0.527   0.990   4.175 -0.6527 -0.2898 -0.5746
12995TIP3   OH260399   1.099   1.632   2.994  0.0660  1.2251 -0.2693
12995TIP3    H160400   1.028   1.629   2.930  0.4094 -2.1087 -0.6122
12995TIP3    H260401   1.086   1.554   3.047  2.3350  1.6152  0.9155
12996TIP3   OH260402   4.730   6.656   2.856  0.1009 -0.4639 -0.0007
12996TIP3    H160403   4.732   6.563   2.880 -1.0021 -0.5794 -0.3394
12996TIP3    H260404   4.765   6.658   2.767 -1.2183 -0.7271 -0.5255
12997TIP3   OH260405   1.858   4.802   5.344 -0.4621  0.2806 -0.6453
12997TIP3    H160406   1.794   4.820   5.413 -0.5153 -1.1833 -0.3039
12997TIP3    H260407   1.875   4.888   5.305 -0.3830  1.1393  1.2284
12998TIP3   OH260408   4.730   3.778   0.477  0.2470 -0.1187 -0.3389
12998TIP3    H160409   4.785   3.753   0.551 -1.4976  0.3372  1.1614
12998TIP3    H260410   4.783   3.760   0.400  0.9337 -3.6731  0.8715
12999TIP3   OH260411   4.811   2.975   2.388 -0.4587  0.2075 -0.7434
12999TIP3    H160412   4.838   3.015   2.305 -0.2422 -0.2605 -0.9013
12999TIP3    H260413   4.776   2.890   2.364 -2.8876  1.1480 -0.6135
13000TIP3   OH260414   1.823   4.732  14.511 -0.1579  0.1303 -0.1408
13000TIP3    H160415   1.731   4.707  14.497 -0.7646  2.0447  0.3100
13000TIP3    H260416   1.822   4.827  14.508  1.8659  0.1565 -0.3075
13001TIP3   OH260417   3.302   2.092  15.944  0.4880  0.0547  0.2775
13001TIP3    H160418   3.389   2.127  15.926  0.3914  1.0674  1.6649
13001TIP3    H260419   3.243   2.165  15.926  0.0116 -0.3531  0.1923
13002TIP3   OH260420   5.904   1.098   3.253 -0.0713  0.0686 -0.0217
13002TIP3    H160421   5.986   1.145   3.262  0.5574 -0.9326 -0.4225
13002TIP3    H260422   5.852   1.152   3.193  1.5166 -0.8585 -2.2937
13003TIP3   OH260423   2.891   4.358   4.615  0.1778 -0.5306  0.3100
13003TIP3    H160424   2.931   4.441   4.640 -0.3009  0.2093 -1.3374
13003TIP3    H260425   2.823   4.343   4.681  0.8782 -0.0976  1.1490
13004TIP3   OH260426   1.961   2.238  13.631 -0.2170 -0.4412  0.2121
13004TIP3    H160427   1.927   2.315  13.677  0.3331 -0.3207  0.4121
13004TIP3    H260428   1.889   2.174  13.637 -1.5233  0.7773 -1.8102
13005TIP3   OH260429   0.354   1.570  13.330 -0.2787 -0.3612 -0.2559
13005TIP3    H160430   0.340   1.645  13.272 -1.4972  0.1046  0.6174
13005TIP3    H260431   0.448   1.573  13.351 -0.0928  0.2379 -1.1436
13006TIP3   OH260432   3.868   6.540   4.451 -0.4496 -0.7354  0.3070
13006TIP3    H160433   3.845   6.604   4.383 -0.2521  0.9438  1.7665
13006TIP3    H260434   3.895   6.462   4.402 -0.1628  0.4797 -1.5548
13007TIP3   OH260435   4.577   4.635   3.674  0.1676  0.7237 -0.4790
13007TIP3    H160436   4.600   4.543   3.692 -1.5863  0.5968  1.3223
13007TIP3    H260437   4.612   4.652   3.587 -0.0853 -1.8821 -1.1334
13008TIP3   OH260438   5.110   5.099   3.943 -0.0782 -0.2905  0.0882
13008TIP3    H160439   5.037   5.038   3.936 -1.7278  1.3738  2.0636
13008TIP3    H260440   5.094   5.147   4.024  3.2859  0.0639  0.6127
13009TIP3   OH260441   1.293   3.703  12.238 -0.3691 -0.1095  0.4468
13009TIP3    H160442   1.386   3.724  12.248 -0.1061 -0.6041 -0.8423
13009TIP3    H260443   1.257   3.777  12.190 -1.3635  1.6549  3.7104
13010TIP3   OH260444   5.371   5.865  12.807 -0.5217  0.4182 -0.3631
13010TIP3    H160445   5.411   5.949  12.830  0.6373 -0.0004 -0.8544
13010TIP3    H260446   5.385   5.857  12.713 -0.1109 -0.6134 -0.2101
13011TIP3   OH260447   6.098   0.705  10.653  0.1867 -0.0710  0.3992
13011TIP3    H160448   6.124   0.797  10.646 -0.3714  0.0741  0.1886
13011TIP3    H260449   6.012   0.708  10.695 -1.6721 -0.2269 -3.2174
13012TIP3   OH260450   0.721   6.156   1.244 -0.0479 -0.1108 -0.1336
13012TIP3    H160451   0.677   6.240   1.248  0.0925 -0.0644  0.5060
13012TIP3    H260452   0.770   6.150   1.326  1.1567 -0.1534 -0.8494
13013TIP3   OH260453   4.792   0.772  15.185 -0.0563 -0.4759 -0.1111
13013TIP3    H160454   4.869   0.776  15.242 -1.1626 -0.6080  1.4097
13013TIP3    H260455   4.728   0.720  15.234 -1.4384  0.3931 -0.9547
13014TIP3   OH260456   5.371   2.132  14.606  0.1285 -0.2740 -0.1315
13014TIP3    H160457   5.290   2.153  14.654  1.0235  1.1699  0.8206
13014TIP3    H260458   5.426   2.089  14.671  0.2634 -0.9465 -0.6877
13015TIP3   OH260459   2.504   1.208  12.761 -0.6548  0.1492  0.1959
13015TIP3    H160460   2.450   1.130  12.774  1.8063 -1.3432  1.6837
13015TIP3    H260461   2.546   1.195  12.675  0.6825 -0.7514  0.9758
13016TIP3   OH260462   4.936   5.530  11.768 -0.0202  0.2092  0.3249
13016TIP3    H160463   4.902   5.462  11.826  0.2973 -0.0273  0.2381
13016TIP3    H260464   5.030   5.511  11.762 -0.1171 -0.0246 -0.6026
13017TIP3   OH260465   3.085   4.015  14.632  0.4146 -0.2722  0.5244
13017TIP3    H160466   3.132   3.932  14.642 -1.0183 -1.1937 -0.2671
13017TIP3    H260467   3.118   4.051  14.549  0.5057 -0.3997  0.5048
13018TIP3   OH260468   6.684   1.168  11.505  0.4462  0.0924 -0.0713
13018TIP3    H160469   6.589   1.168  11.520  0.3189  0.1624 -0.8460
13018TIP3    H260470   6.698   1.245  11.450  1.2261  1.2586  1.7016
13019TIP3   OH260471   2.044   0.194  11.065  0.1247 -0.1002 -0.1074
13019TIP3    H160472   2.029   0.221  11.155 -0.3697 -2.2419  0.4730
13019TIP3    H260473   1.981   0.123  11.049 -1.1482  1.5147 -2.7700
13020TIP3   OH260474   6.775   3.372   4.633  0.3289  0.5010 -0.0162
13020TIP3    H160475   6.843   3.427   4.673  0.7347  0.8972 -1.2109
13020TIP3    H260476   6.823   3.314   4.574 -0.4843  1.7965 -2.0031
13021TIP3   OH260477   6.677   1.786  11.128 -0.2830 -0.0024 -0.4829
13021TIP3    H160478   6.598   1.766  11.078 -0.1635 -1.6428 -0.0458
13021TIP3    H260479   6.745   1.731  11.087 -0.2527 -1.6220  1.6400
13022TIP3   OH260480   6.665   5.876   3.735 -0.4227  0.1617 -0.6068
13022TIP3    H160481   6.635   5.922   3.656 -1.0747  0.7979  0.0064
13022TIP3    H260482   6.715   5.802   3.701 -0.2223  0.7473 -1.6148
13023TIP3   OH260483   5.788   2.898  11.147  0.2206  0.5755  0.0649
13023TIP3    H160484   5.696   2.870  11.138  0.9508 -2.6038  1.7169
13023TIP3    H260485   5.792   2.937  11.234  0.4348  0.7301 -0.0175
13024TIP3   OH260486   1.930   4.558  15.607 -0.1753 -0.6052  0.0619
13024TIP3    H160487   1.892   4.645  15.597  0.0634 -0.1903  2.5706
13024TIP3    H260488   2.011   4.561  15.555 -0.3234  0.5509 -0.1059
13025TIP3   OH260489   0.046   0.853   3.525  0.4278  0.1221  0.0743
13025TIP3    H160490   0.099   0.927   3.495  0.9958  0.8515  2.6823
13025TIP3    H260491   0.109   0.784   3.543  0.2680  0.2167  1.0190
13026TIP3   OH260492   1.146   6.098  11.122  0.3181 -0.0667 -0.1776
13026TIP3    H160493   1.142   6.176  11.177  0.5701 -0.1517 -0.0396
13026TIP3    H260494   1.056   6.086  11.091  0.4080  0.6745 -0.7580
13027TIP3   OH260495   5.282   4.861   4.130  0.0936  0.1812  0.7245
13027TIP3    H160496   5.231   4.936   4.161 -0.1220  1.2471 -2.0961
13027TIP3    H260497   5.360   4.899   4.090 -0.6555 -0.9744 -1.9457
13028TIP3   OH260498   2.795   4.667  11.608  0.2972 -0.8164 -0.0361
13028TIP3    H160499   2.765   4.757  11.624 -0.2522 -1.5068  3.4126
13028TIP3    H260500   2.886   4.676  11.580  0.4813  0.8094  1.0092
13029TIP3   OH260501   5.097   0.796  13.955 -0.4300  0.0843  0.2910
13029TIP3    H160502   5.007   0.817  13.977  0.2760  2.7498  0.7936
13029TIP3    H260503   5.143   0.796  14.039  0.9904  3.7929 -0.3889
13030TIP3   OH260504   0.652   3.345  16.391 -0.2214  0.3456  0.1065
13030TIP3    H160505   0.727   3.286  16.381  0.5470  1.5050 -1.0574
13030TIP3    H260506   0.613   3.350  16.304 -1.9548 -0.5966  0.7861
13031TIP3   OH260507   2.553   3.488   4.418  0.0116  0.6691 -0.2107
13031TIP3    H160508   2.531   3.526   4.333  0.6414 -1.5995 -1.4228
13031TIP3    H260509   2.574   3.564   4.473  0.8739  2.1122 -2.4390
13032TIP3   OH260510   1.585   2.255   2.215 -0.4372 -0.4826  0.0957
13032TIP3    H160511   1.583   2.349   2.198  2.9433 -0.3850 -0.0970
13032TIP3    H260512   1.640   2.245   2.292  0.0232 -2.3618 -0.4408
13033TIP3   OH260513   0.448   4.606  11.568  0.3095  0.1932 -0.5014
13033TIP3    H160514   0.429   4.538  11.632  1.0626  0.4462 -0.0016
13033TIP3    H260515   0.488   4.677  11.619  0.5287  0.5674 -1.1800
13034TIP3   OH260516   6.306   5.941  15.689  0.2856  0.2595  0.2551
13034TIP3    H160517   6.332   5.950  15.781 -0.4436 -0.6932  0.5650
13034TIP3    H260518   6.215   5.968  15.687  0.2189  0.0165 -0.1394
13035TIP3   OH260519   0.767   0.969   5.821  0.1426 -0.2342 -0.1028
13035TIP3    H160520   0.861   0.952   5.833 -0.1547 -2.1930 -0.3206
13035TIP3    H260521   0.756   1.061   5.844  1.6471 -0.6714  2.5663
13036TIP3   OH260522   2.645   0.872   3.358  0.4629 -0.0733 -0.1031
13036TIP3    H160523   2.606   0.909   3.438 -0.2282 -0.7017 -0.1452
13036TIP3    H260524   2.571   0.866   3.297  0.7618 -0.6722 -0.4007
13037TIP3   OH260525   5.449   0.178   3.573  0.2479  0.5460 -0.5425
13037TIP3    H160526   5.402   0.106   3.531 -1.1570  0.5017  1.0707
13037TIP3    H260527   5.387   0.251   3.572  1.1889  1.3532 -0.9811
13038TIP3   OH260528   5.848   6.096   5.770 -0.5506  0.2369 -0.4491
13038TIP3    H160529   5.819   6.023   5.825  2.1031 -0.4234  0.1831
13038TIP3    H260530   5.856   6.170   5.830  0.8487 -0.0848 -0.2105
13039TIP3   OH260531   1.487   4.115  16.727  0.2511  0.5673  0.5035
13039TIP3    H160532   1.400   4.104  16.765  0.9843 -1.8001  1.6156
13039TIP3    H260533   1.536   4.163  16.794 -0.3335  2.3887 -0.3587
13040TIP3   OH260534   6.247   0.450   3.781  0.0528  0.1260  0.3220
13040TIP3    H160535   6.324   0.445   3.837  0.2452 -2.3410 -0.0907
13040TIP3    H260536   6.271   0.397   3.704 -1.5080  0.5335 -0.4508
13041TIP3   OH260537   0.907   2.619  14.445 -0.2687 -0.2787 -0.3122
13041TIP3    H160538   0.925   2.661  14.529 -0.9577 -1.6521  0.5294
13041TIP3    H260539   0.881   2.691  14.387 -1.7186  0.4160  1.1834
13042TIP3   OH260540   4.965   2.317  16.633  0.0855  0.7462  0.0490
13042TIP3    H160541   5.043   2.261  16.644 -0.1749  0.2810 -0.4361
13042TIP3    H260542   4.920   2.280  16.557 -1.2920  0.2030  1.1053
13043TIP3   OH260543   4.988   3.305  16.424 -0.6500 -0.5028  0.3341
13043TIP3    H160544   4.982   3.211  16.442  2.1452 -1.0571 -1.2833
13043TIP3    H260545   5.070   3.315  16.375  0.1044  3.0413  2.1469
13044TIP3   OH260546   5.496   0.947  17.178 -0.3717  0.3966  0.3734
13044TIP3    H160547   5.482   0.868  17.127 -0.6916  0.0897  0.9409
13044TIP3    H260548   5.535   0.917  17.260 -1.7822  0.6743  1.1639
13045TIP3   OH260549   0.463   1.722   0.251 -0.2382  0.4425  0.3703
13045TIP3    H160550   0.430   1.798   0.298  1.0292  1.2081  0.0343
13045TIP3    H260551   0.478   1.753   0.162 -2.8797 -1.0586 -0.6764
13046TIP3   OH260552   4.372   5.257  14.902  0.4440 -0.4136  0.3696
13046TIP3    H160553   4.348   5.349  14.915 -0.2091 -0.6096  0.5762
13046TIP3    H260554   4.397   5.227  14.989 -1.1174 -0.9330  0.6410
13047TIP3   OH260555   4.799   0.096  12.726  0.2110 -0.8096  0.6572
13047TIP3    H160556   4.892   0.093  12.749  0.5766  0.4525 -0.5882
13047TIP3    H260557   4.771   0.005  12.731  2.5620 -1.8625 -2.9701
13048TIP3   OH260558   6.513   2.936   4.048  0.0673  0.3159  0.2881
13048TIP3    H160559   6.423   2.942   4.078  0.2495 -0.0223  0.9102
13048TIP3    H260560   6.544   3.027   4.046 -0.4389  0.4788 -0.4144
13049TIP3   OH260561   0.915   2.080   3.540 -0.6435  0.0397  0.2570
13049TIP3    H160562   0.905   2.148   3.474  1.3933  0.2509  0.1490
13049TIP3    H260563   0.854   2.011   3.513 -1.1915  0.9233 -0.7791
13050TIP3   OH260564   5.302   1.368  10.825  0.5530  0.1442 -0.5766
13050TIP3    H160565   5.262   1.362  10.911  0.8623 -0.3182 -0.4699
13050TIP3    H260566   5.298   1.279  10.790  2.2288 -0.0768 -0.2405
13051TIP3   OH260567   6.514   2.698  12.882  0.7191 -0.0963  0.5133
13051TIP3    H160568   6.519   2.683  12.788  0.9545 -0.5944  0.6049
13051TIP3    H260569   6.604   2.719  12.908  0.5546  0.5823  0.5331
13052TIP3   OH260570   6.116   5.567  13.519  0.4099 -0.0854 -0.0762
13052TIP3    H160571   6.047   5.633  13.527  0.0649 -0.3954 -0.4721
13052TIP3    H260572   6.198   5.617  13.527  0.1519  0.4159 -0.5396
13053TIP3   OH260573   6.043   3.705  12.612 -0.1779  0.2092  0.2148
13053TIP3    H160574   5.949   3.685  12.607 -0.5211  1.3034  1.9910
13053TIP3    H260575   6.082   3.625  12.647 -0.8018  0.6302  1.9063
13054TIP3   OH260576   5.579   1.347   3.301  0.3620 -0.4638  0.6143
13054TIP3    H160577   5.534   1.431   3.293 -0.2373 -0.8015  0.4191
13054TIP3    H260578   5.632   1.355   3.380  2.5434  1.1536 -0.9355
13055TIP3   OH260579   6.011   4.088  10.628  0.4379 -0.0357  0.1760
13055TIP3    H160580   6.030   4.157  10.564 -0.8381  0.0946 -0.0943
13055TIP3    H260581   5.940   4.124  10.681  0.8295 -0.5318  1.0310
13056TIP3   OH260582   3.802   2.260   2.775 -0.4820 -0.0050 -0.3195
13056TIP3    H160583   3.833   2.205   2.848 -0.8901 -0.8920 -0.7992
13056TIP3    H260584   3.770   2.340   2.817  0.9301  0.2393  0.3213
13057TIP3   OH260585   6.323   2.877   4.910  0.5173 -0.1505 -0.0707
13057TIP3    H160586   6.371   2.920   4.840  0.1573  0.7915  0.2583
13057TIP3    H260587   6.231   2.889   4.888  0.3962 -3.2968 -1.5221
13058TIP3   OH260588   2.934   0.372   5.120  0.6984 -0.5582  0.1245
13058TIP3    H160589   2.969   0.337   5.039 -0.1484 -1.2781  0.0596
13058TIP3    H260590   2.839   0.357   5.114  0.5668 -0.1303  1.0055
13059TIP3   OH260591   5.613   5.026   3.675  0.0707 -0.1523  0.1889
13059TIP3    H160592   5.684   4.999   3.617  0.9722  2.0250  0.2520
13059TIP3    H260593   5.535   5.021   3.621  0.4905 -1.0347 -0.3462
13060TIP3   OH260594   4.423   6.308   0.656 -0.1506 -0.1227  0.7335
13060TIP3    H160595   4.518   6.307   0.647 -0.1865  0.2423  0.2811
13060TIP3    H260596   4.405   6.249   0.729  0.3610 -0.8863  0.2536
13061TIP3   OH260597   6.093   0.839   4.774  0.2945 -0.1431  0.3284
13061TIP3    H160598   6.036   0.869   4.703 -0.3600  0.6958  1.1947
13061TIP3    H260599   6.179   0.829   4.732 -0.0164  0.6198 -0.5230
13062TIP3   OH260600   3.778   5.850   2.050  0.6254  0.0804  0.7636
13062TIP3    H160601   3.872   5.832   2.063  0.4750 -0.3279  1.3182
13062TIP3    H260602   3.776   5.936   2.008  1.2455  0.1664  0.8986
13063TIP3   OH260603   3.628   1.393  13.083  0.1975 -0.1078  0.3663
13063TIP3    H160604   3.558   1.445  13.120  1.6588  0.8436  1.8746
13063TIP3    H260605   3.645   1.431  12.997  0.3341  1.0465  0.9019
13064TIP3   OH260606   4.016   6.677  14.844  0.0760  0.1926  0.0951
13064TIP3    H160607   4.004   6.647  14.934 -1.8236 -0.5098 -0.3763
13064TIP3    H260608   4.021   6.597  14.792 -0.7886  0.6172 -0.6533
13065TIP3   OH260609   6.066   4.731   4.267  0.3631 -0.4541  0.1182
13065TIP3    H160610   6.109   4.655   4.307  0.6873 -0.2656  0.1308
13065TIP3    H260611   5.978   4.731   4.303 -0.2955 -2.0119 -1.4314
13066TIP3   OH260612   3.338   6.570  14.036  0.5354 -0.3708 -0.0695
13066TIP3    H160613   3.252   6.609  14.048  0.6473  0.6731 -2.4844
13066TIP3    H260614   3.321   6.477  14.021 -0.1793 -0.1519 -0.6163
13067TIP3   OH260615   1.054   4.631  14.787 -0.3505  0.2171 -0.3272
13067TIP3    H160616   1.122   4.589  14.735 -0.7399  0.4033 -0.9997
13067TIP3    H260617   1.073   4.724  14.781  0.3572  0.1594  0.9377
13068TIP3   OH260618   3.439   6.629  12.671 -0.0032 -0.0250 -0.3107
13068TIP3    H160619   3.386   6.569  12.723  1.1668  1.9061  3.2558
13068TIP3    H260620   3.527   6.590  12.671  0.6225  1.3228  1.5182
13069TIP3   OH260621   2.304   4.876   1.846  0.0600 -0.2114 -0.6685
13069TIP3    H160622   2.325   4.895   1.937  0.7416  1.0330 -1.0699
13069TIP3    H260623   2.243   4.946   1.820 -1.6153 -1.6112 -0.6377
13070TIP3   OH260624   0.009   1.765   2.137  0.0199  0.0387  0.3917
13070TIP3    H160625  -0.053   1.710   2.185  0.1552 -0.0468  0.4663
13070TIP3    H260626   0.090   1.716   2.136  0.2602  0.4265  0.8248
13071TIP3   OH260627   4.564   3.761   4.139  0.0460  0.8031 -0.4863
13071TIP3    H160628   4.548   3.823   4.069  1.1372 -1.3308 -2.7060
13071TIP3    H260629   4.547   3.675   4.100  1.2185 -0.4661  1.6670
13072TIP3   OH260630   0.721   1.910  12.145  0.1586  0.5974 -0.0127
13072TIP3    H160631   0.754   1.842  12.086  1.4441  1.8139 -0.7173
13072TIP3    H260632   0.688   1.979  12.087 -0.2737  0.9959  0.6889
13073TIP3   OH260633   5.918   5.592  12.633 -0.0786  0.2150  0.4133
13073TIP3    H160634   5.891   5.627  12.717 -0.1936  1.0632  0.0316
13073TIP3    H260635   5.840   5.548  12.599  0.0937 -0.5081  0.9373
13074TIP3   OH260636   5.668   1.544   5.459 -0.1817 -0.6507 -0.1558
13074TIP3    H160637   5.577   1.553   5.487 -0.2905  0.7410 -0.9157
13074TIP3    H260638   5.691   1.630   5.424  1.5279 -0.8946  0.3126
13075TIP3   OH260639   3.239   3.743  17.014  0.1815 -0.2230 -0.2657
13075TIP3    H160640   3.181   3.736  17.090  0.9041 -0.8178  0.2353
13075TIP3    H260641   3.286   3.825  17.028 -0.2056  0.0275 -0.4353
13076TIP3   OH260642   1.713   4.015   1.153  0.1808  0.2915 -0.0758
13076TIP3    H160643   1.749   4.049   1.071 -0.3121 -1.9580 -1.2715
13076TIP3    H260644   1.662   3.938   1.126  0.0286 -0.4781  2.3362
13077TIP3   OH260645   5.436   3.967  12.446 -0.1856 -0.0083 -0.0572
13077TIP3    H160646   5.441   4.052  12.490  0.7343 -2.1609  4.2663
13077TIP3    H260647   5.380   3.983  12.370 -1.0163  4.1637  1.2859
13078TIP3   OH260648   1.859   2.421  11.498  0.3442 -0.0431 -0.5285
13078TIP3    H160649   1.812   2.453  11.421 -0.0216  0.5857 -0.0439
13078TIP3    H260650   1.943   2.389  11.464 -0.3617 -1.0283 -1.3774
13079TIP3   OH260651   4.380   0.949  15.412  0.5959  0.5141 -0.0008
13079TIP3    H160652   4.287   0.938  15.392  0.5696  0.1017  0.3687
13079TIP3    H260653   4.419   0.973  15.328  0.2478  0.1492 -0.2692
13080TIP3   OH260654   4.413   1.650  16.050  0.1456 -0.0636  0.9243
13080TIP3    H160655   4.344   1.586  16.037 -0.5150  0.6226  0.9837
13080TIP3    H260656   4.409   1.672  16.143 -1.7088  2.3455  0.3216
13081TIP3   OH260657   3.901   5.856   1.310  0.7259  0.4479  0.7997
13081TIP3    H160658   3.989   5.878   1.279  0.6588  1.7692  1.5014
13081TIP3    H260659   3.877   5.778   1.261  1.8484  0.7299 -0.2170
13082TIP3   OH260660   5.373   0.134   3.939  0.2009  0.4229 -0.3050
13082TIP3    H160661   5.341   0.153   4.027  0.4254 -0.5123 -0.0195
13082TIP3    H260662   5.295   0.107   3.890  0.1354  0.5933 -0.2941
13083TIP3   OH260663   2.660   5.111  15.213  0.4248  0.0082 -0.0744
13083TIP3    H160664   2.730   5.102  15.277  0.9419 -1.0928 -0.7735
13083TIP3    H260665   2.702   5.146  15.135 -0.6418  3.7214  0.9021
13084TIP3   OH260666   4.382   6.284   3.514  0.0530 -0.0341 -0.2408
13084TIP3    H160667   4.370   6.341   3.439  1.7962 -0.9742 -1.2637
13084TIP3    H260668   4.379   6.195   3.478  0.1444 -0.5198  0.9208
13085TIP3   OH260669   1.464   1.011   6.384  0.3414  0.3613  0.1895
13085TIP3    H160670   1.403   1.029   6.455  1.5060  1.4385  0.9381
13085TIP3    H260671   1.506   0.929   6.408 -1.7748 -1.1201 -1.0135
13086TIP3   OH260672   2.831   1.229  16.765  0.0638 -0.0373  0.1568
13086TIP3    H160673   2.848   1.318  16.734  0.0733  1.0514  3.1620
13086TIP3    H260674   2.795   1.240  16.853  1.7779 -3.0730  1.3215
13087TIP3   OH260675   0.936   4.048   3.744  0.3190  0.4652  0.4785
13087TIP3    H160676   0.842   4.036   3.762  0.2637  0.3145  0.1030
13087TIP3    H260677   0.977   4.047   3.830 -0.0465  0.7192  0.6608
13088TIP3   OH260678   4.114   1.958  15.527 -0.8269  0.0021 -0.3757
13088TIP3    H160679   4.119   1.925  15.437 -1.7619 -0.1263 -0.3900
13088TIP3    H260680   4.055   1.897  15.571 -1.6195  0.9614 -0.0896
13089TIP3   OH260681   6.653   0.936  11.888 -0.0238 -0.1112 -0.5584
13089TIP3    H160682   6.641   0.883  11.810  1.1024 -0.8385 -0.2518
13089TIP3    H260683   6.706   0.881  11.946 -2.7049 -0.4726  1.6213
13090TIP3   OH260684   5.160   2.474  15.484  0.4033 -0.0656 -0.4751
13090TIP3    H160685   5.220   2.529  15.535  0.2452  1.4229 -1.8830
13090TIP3    H260686   5.073   2.507  15.505  0.3544  0.7461 -1.9389
13091TIP3   OH260687   3.827   1.638  16.064 -0.3453 -0.1740  0.0563
13091TIP3    H160688   3.832   1.733  16.050  0.1140 -0.1702  0.2529
13091TIP3    H260689   3.827   1.601  15.975 -0.6033  0.0118 -0.0255
13092TIP3   OH260690   6.218   1.492   1.436 -0.6034 -0.5610 -0.2742
13092TIP3    H160691   6.217   1.556   1.365 -0.9396 -1.0127 -0.6827
13092TIP3    H260692   6.283   1.427   1.410 -2.1143 -1.7824 -1.1371
13093TIP3   OH260693   4.214   0.587  13.365  0.8019  0.2459 -0.1535
13093TIP3    H160694   4.214   0.532  13.287  1.4789 -1.8495  1.2848
13093TIP3    H260695   4.306   0.606  13.382  0.7152  0.0357  0.5798
13094TIP3   OH260696   5.810   6.036   4.643  0.0001  0.2715 -0.0694
13094TIP3    H160697   5.754   6.088   4.700 -1.2085 -0.2889 -0.7237
13094TIP3    H260698   5.752   5.970   4.606  1.1735 -0.5621 -0.4715
13095TIP3   OH260699   3.715   0.734  11.434 -0.2489 -0.4251  0.1043
13095TIP3    H160700   3.621   0.720  11.424 -0.3514 -1.6753  2.3810
13095TIP3    H260701   3.723   0.806  11.496  0.3367  1.8700 -2.5462
13096TIP3   OH260702   4.025   2.863   0.956 -0.3512  0.1842  0.0683
13096TIP3    H160703   4.097   2.818   1.001  0.3042  0.0086 -1.1291
13096TIP3    H260704   3.951   2.802   0.963 -0.4253  0.4160  1.4048
13097TIP3   OH260705   4.941   3.073   2.153  0.2426 -0.4103  0.0041
13097TIP3    H160706   4.907   2.987   2.131 -0.4730  0.4376 -2.2979
13097TIP3    H260707   4.877   3.135   2.117  1.5627  1.0997  0.1805
13098TIP3   OH260708   3.122   2.414  16.134 -0.1534  0.1279 -0.1408
13098TIP3    H160709   3.130   2.505  16.162  0.5903  0.2381 -0.6998
13098TIP3    H260710   3.111   2.419  16.039 -0.2595 -0.3601 -0.1554
13099TIP3   OH260711   0.477   6.389   5.672  0.3873 -0.3424 -0.6571
13099TIP3    H160712   0.388   6.380   5.705  0.0089 -0.6304 -1.7414
13099TIP3    H260713   0.502   6.479   5.694  0.2006 -0.5665  0.5282
13100TIP3   OH260714   3.817   1.175   1.789 -0.1956 -0.2634  0.1809
13100TIP3    H160715   3.778   1.257   1.757 -1.6933 -1.2275 -0.5214
13100TIP3    H260716   3.887   1.155   1.727  0.3790  0.6303  0.5257
13101TIP3   OH260717   0.553   6.442  15.711 -0.0344 -0.0168  0.0086
13101TIP3    H160718   0.635   6.392  15.720  1.3635  2.1863 -0.1763
13101TIP3    H260719   0.498   6.409  15.782  1.3732 -0.8583  0.7465
13102TIP3   OH260720   6.011   6.649  17.100  0.2235  0.5532  0.2830
13102TIP3    H160721   5.977   6.727  17.056 -2.0111 -0.4343  0.1785
13102TIP3    H260722   5.992   6.578  17.039  0.4965 -0.3277  1.2220
13103TIP3   OH260723   3.545   5.083   0.410 -0.2084 -0.5898 -0.1311
13103TIP3    H160724   3.600   5.045   0.342 -0.5240 -1.6059  0.1686
13103TIP3    H260725   3.599   5.151   0.450  0.8912 -1.6681  0.2549
13104TIP3   OH260726   1.070   0.695   5.446 -0.8055 -0.1887 -0.3838
13104TIP3    H160727   1.153   0.726   5.485 -0.6637 -0.3884 -0.5278
13104TIP3    H260728   1.002   0.742   5.495 -0.5938  0.2344 -0.4952
13105TIP3   OH260729   1.519   0.761   1.903 -0.3315 -0.2480 -0.5904
13105TIP3    H160730   1.551   0.808   1.979 -1.3909  0.1738 -0.3900
13105TIP3    H260731   1.501   0.672   1.935 -0.6059 -0.1203 -0.3948
13106TIP3   OH260732   6.780   2.972  12.590  0.3671  0.2020 -0.7152
13106TIP3    H160733   6.733   2.897  12.625  2.3505  0.0728  1.8379
13106TIP3    H260734   6.745   3.047  12.638  0.2408  0.5792 -1.3881
13107TIP3   OH260735   2.594   5.543  12.188  0.4269  0.0056 -0.4628
13107TIP3    H160736   2.654   5.595  12.242 -0.5889  1.7675 -0.9777
13107TIP3    H260737   2.593   5.589  12.104 -1.3146 -0.2431 -0.5915
13108TIP3   OH260738   4.635   4.226  11.684  0.7778 -0.7022 -0.2305
13108TIP3    H160739   4.679   4.311  11.673  0.7172 -0.4718  1.1773
13108TIP3    H260740   4.670   4.171  11.614  1.6638  0.1460 -0.4654
13109TIP3   OH260741   4.345   3.473  14.125  0.0124  0.5609  0.2716
13109TIP3    H160742   4.277   3.540  14.117  0.0561  0.7359  1.3591
13109TIP3    H260743   4.297   3.391  14.129 -0.1055  0.6437  0.5245
13110TIP3   OH260744   2.382   6.291   1.417 -0.1345 -0.1806 -0.3178
13110TIP3    H160745   2.378   6.213   1.472  2.2117  0.4541  0.8393
13110TIP3    H260746   2.399   6.363   1.478 -2.1452  1.2321 -1.3767
13111TIP3   OH260747   2.991   0.237   4.124 -0.1212 -0.0424 -0.2761
13111TIP3    H160748   3.082   0.236   4.154 -0.5175 -0.3510  0.9326
13111TIP3    H260749   2.997   0.218   4.030  0.9841 -1.1544  0.0011
13112TIP3   OH260750   1.282   6.247   3.913  0.4340 -0.0334 -0.0285
13112TIP3    H160751   1.261   6.268   4.004 -1.9562 -0.5366 -0.4315
13112TIP3    H260752   1.316   6.157   3.916 -2.1006 -1.0205  0.0822
13113TIP3   OH260753   3.508   5.368   3.978 -0.0156 -0.9170 -0.2400
13113TIP3    H160754   3.545   5.456   3.985 -0.9132 -0.6849  2.2910
13113TIP3    H260755   3.570   5.313   4.027 -0.3726 -1.3933 -0.3224
13114TIP3   OH260756   5.124   1.782  12.935 -0.5387  0.6175 -0.4926
13114TIP3    H160757   5.093   1.837  13.006  1.1380 -1.4671  1.9295
13114TIP3    H260758   5.046   1.764  12.883 -1.8494  1.9411  0.9768
13115TIP3   OH260759   1.194   1.717   0.589  0.6706  0.5554  0.3204
13115TIP3    H160760   1.176   1.811   0.588  0.3701  0.4965  0.0517
13115TIP3    H260761   1.109   1.676   0.602  0.6621  0.2864 -0.5414
13116TIP3   OH260762   5.649   1.617   3.664  0.6829  0.0855 -0.1883
13116TIP3    H160763   5.670   1.710   3.674 -1.6863  0.9552 -2.6776
13116TIP3    H260764   5.689   1.592   3.581 -1.4110 -0.2088 -1.1538
13117TIP3   OH260765   6.596   3.893  13.554 -0.6024  0.1931  0.1611
13117TIP3    H160766   6.553   3.961  13.502  1.2475  1.3396  0.0675
13117TIP3    H260767   6.667   3.861  13.497 -0.9715 -1.2672  0.5059
13118TIP3   OH260768   1.580   4.988   0.033 -0.1686 -0.0681 -0.3503
13118TIP3    H160769   1.627   4.915   0.073 -1.0199 -0.4185  0.0235
13118TIP3    H260770   1.643   5.027  -0.027  0.4059 -0.9001 -0.2951
13119TIP3   OH260771   0.486   4.312   1.104 -0.6455  0.3986 -0.1783
13119TIP3    H160772   0.537   4.385   1.069 -1.1980  1.6956  1.6909
13119TIP3    H260773   0.398   4.324   1.067 -0.1892 -0.6285 -1.6731
13120TIP3   OH260774   0.134   0.627   2.837  0.0033  0.0959  0.2631
13120TIP3    H160775   0.074   0.555   2.819  0.6669 -0.4013  0.0155
13120TIP3    H260776   0.080   0.706   2.830 -0.2746 -0.2385 -1.5758
13121TIP3   OH260777   2.302   0.235   3.221 -0.3742  0.9418 -0.5485
13121TIP3    H160778   2.300   0.156   3.166 -1.1171  1.1248 -0.7854
13121TIP3    H260779   2.269   0.207   3.306 -0.6727  1.0091 -0.6435
13122TIP3   OH260780   1.910   4.750   4.946 -0.0212  0.0046  0.4062
13122TIP3    H160781   1.878   4.840   4.952  1.1633  0.3539  1.7408
13122TIP3    H260782   2.005   4.759   4.942  0.1634 -1.2262  1.7011
13123TIP3   OH260783   5.297   2.271  11.267 -0.4681  0.1992  0.2159
13123TIP3    H160784   5.249   2.200  11.310 -2.7808  2.4075  1.4110
13123TIP3    H260785   5.290   2.252  11.174 -2.2016 -0.4703  0.4687
13124TIP3   OH260786   3.127   4.174   4.854 -0.4630  0.4590 -0.3996
13124TIP3    H160787   3.139   4.265   4.880 -0.7367  0.0493  1.1856
13124TIP3    H260788   3.197   4.158   4.790  0.4340  1.3704  0.3392
13125TIP3   OH260789   4.648   3.764  12.609  0.2154 -0.1386 -0.5476
13125TIP3    H160790   4.739   3.763  12.581 -0.1632 -1.2329 -1.7704
13125TIP3    H260791   4.651   3.734  12.700  1.0038 -0.8638 -0.8054
13126TIP3   OH260792   0.152   1.027  12.285 -0.5634 -0.3536  0.1460
13126TIP3    H160793   0.113   0.980  12.359  1.1617  0.8161  1.8510
13126TIP3    H260794   0.234   0.982  12.268  0.0588  0.6946  0.3506
13127TIP3   OH260795   3.156   0.912  11.560  0.1588  0.1811 -0.2307
13127TIP3    H160796   3.168   1.002  11.592  0.2270  0.2371 -0.4103
13127TIP3    H260797   3.105   0.922  11.480  0.4902  0.0921 -0.4558
13128TIP3   OH260798   5.899   3.244   6.031 -0.3809 -0.6076  0.1021
13128TIP3    H160799   5.831   3.192   6.074 -0.2808 -0.4149  0.4911
13128TIP3    H260800   5.924   3.310   6.096 -2.1637  1.4243 -1.1885
13129TIP3   OH260801   1.069   4.931  15.177  0.0731  0.6027 -0.1102
13129TIP3    H160802   0.989   4.885  15.152 -0.9411  1.3993  1.5404
13129TIP3    H260803   1.091   4.985  15.101 -0.9153  0.3214 -0.6058
13130TIP3   OH260804   5.979   0.317   1.042 -0.0258  0.6299 -0.5934
13130TIP3    H160805   5.885   0.300   1.045  0.1119 -0.1064 -0.5736
13130TIP3    H260806   5.997   0.337   0.950 -0.4369  2.1232 -0.3682
13131TIP3   OH260807   1.212   4.582  15.671  0.5022 -0.3883  0.1008
13131TIP3    H160808   1.164   4.565  15.752  0.2801 -2.3569 -0.4132
13131TIP3    H260809   1.298   4.612  15.699  0.1462 -0.2605  1.0576
13132TIP3   OH260810   2.532   3.647  14.732 -0.3235  0.1820 -0.0242
13132TIP3    H160811   2.627   3.645  14.722 -0.2817 -0.5932  0.4677
13132TIP3    H260812   2.513   3.577  14.794 -1.0237  1.6167  1.4380
13133TIP3   OH260813   4.485   4.043   4.957 -0.0652  0.8525  0.4046
13133TIP3    H160814   4.554   4.069   4.895  0.2258  0.7599  0.6885
13133TIP3    H260815   4.408   4.028   4.902  0.9736 -2.1017 -0.3124
13134TIP3   OH260816   2.690   5.283   0.414 -0.0797 -0.0438 -0.0562
13134TIP3    H160817   2.751   5.255   0.483 -0.1005 -0.4184 -0.1904
13134TIP3    H260818   2.744   5.285   0.334 -0.3443 -0.7882 -0.2535
13135TIP3   OH260819   3.626   0.088   1.557  0.1404  0.3421  0.5436
13135TIP3    H160820   3.657   0.013   1.506  2.0770  0.8367  0.9287
13135TIP3    H260821   3.534   0.070   1.573  0.8215 -2.5436  1.5675
13136TIP3   OH260822   2.652   5.361   5.032  0.1798 -0.3371 -0.1842
13136TIP3    H160823   2.685   5.447   5.007 -0.3914  0.7586  2.6351
13136TIP3    H260824   2.570   5.379   5.078 -0.5307 -2.4773 -0.5398
13137TIP3   OH260825   0.732   0.821  11.415 -0.1504  0.5094  0.6892
13137TIP3    H160826   0.640   0.835  11.394 -0.3029 -0.1818  0.8876
13137TIP3    H260827   0.734   0.737  11.460  0.8306 -0.4382 -1.0623
13138TIP3   OH260828   5.515   0.786  14.500  0.2100  0.1748 -0.3004
13138TIP3    H160829   5.456   0.718  14.470 -0.5248  1.4370 -1.8120
13138TIP3    H260830   5.484   0.810  14.587 -0.3513 -0.4644 -0.3281
13139TIP3   OH260831   4.605   4.768   2.443 -0.3964 -0.3474  0.3957
13139TIP3    H160832   4.510   4.783   2.442 -0.2619  0.4673 -0.3042
13139TIP3    H260833   4.620   4.705   2.373 -0.3131  0.1930 -0.0748
13140TIP3   OH260834   4.334   2.140  16.451  0.4983  0.3217  0.0891
13140TIP3    H160835   4.244   2.165  16.431  0.5328  0.2789 -0.1222
13140TIP3    H260836   4.364   2.205  16.514  0.8947  1.3420 -1.1360
13141TIP3   OH260837   3.709   6.546   4.652 -0.1730 -0.5569 -0.2799
13141TIP3    H160838   3.738   6.527   4.741 -0.1431  2.6104  0.4445
13141TIP3    H260839   3.790   6.548   4.601 -0.0506 -1.0244 -0.1078
13142TIP3   OH260840   4.974   2.741  15.374  0.0878 -0.5795  0.3760
13142TIP3    H160841   4.902   2.772  15.320  0.5750 -0.4206 -0.1913
13142TIP3    H260842   5.049   2.738  15.314  0.0583 -2.8112  0.4027
13143TIP3   OH260843   3.129   4.057  16.389 -0.1664 -0.9307 -0.1266
13143TIP3    H160844   3.166   4.026  16.307 -0.1690 -1.2423 -0.0075
13143TIP3    H260845   3.046   4.098  16.363  1.8899  2.9810 -0.8523
13144TIP3   OH260846   5.260   2.880   0.456 -0.0913 -0.1780  0.0958
13144TIP3    H160847   5.252   2.790   0.423 -1.9988 -0.7301  1.9630
13144TIP3    H260848   5.202   2.931   0.399  0.2707 -0.2800 -0.3716
13145TIP3   OH260849   3.118   1.600   3.438 -0.7511  0.1941  0.0005
13145TIP3    H160850   3.107   1.662   3.510  0.8184  0.4924  0.0093
13145TIP3    H260851   3.118   1.514   3.480  0.0556  0.3629  0.3628
13146TIP3   OH260852   1.586   6.729  17.013 -0.0290  0.2439 -0.0438
13146TIP3    H160853   1.555   6.666  16.948  0.3679 -1.7536  1.6255
13146TIP3    H260854   1.563   6.815  16.977 -0.6976 -0.8599 -2.3254
13147TIP3   OH260855   0.525   3.979   6.636  0.0148  0.1869 -0.1060
13147TIP3    H160856   0.559   4.067   6.620 -1.9977  0.6795 -1.7795
13147TIP3    H260857   0.431   3.986   6.618 -0.1418 -2.3350 -0.3362
13148TIP3   OH260858   2.382   0.435  16.325  0.2604  0.4390  0.5784
13148TIP3    H160859   2.341   0.507  16.278 -2.5513 -0.7605  1.0834
13148TIP3    H260860   2.349   0.442  16.414  1.2938 -0.4964  1.0529
13149TIP3   OH260861   3.937   6.245  13.423 -0.3210  0.7383  0.2372
13149TIP3    H160862   3.979   6.331  13.414 -0.9528  0.9746 -0.4817
13149TIP3    H260863   3.942   6.206  13.336 -0.2760  0.1563  0.4991
13150TIP3   OH260864   2.167   1.720   3.771  0.7361 -0.1211  0.4638
13150TIP3    H160865   2.140   1.636   3.733  0.1397  1.1075 -1.9204
13150TIP3    H260866   2.103   1.736   3.841 -0.8057 -0.3978 -0.8393
13151TIP3   OH260867   4.810   3.986   5.941 -0.3055 -0.2529  0.2323
13151TIP3    H160868   4.811   4.026   6.028 -0.1383  3.7009 -1.4757
13151TIP3    H260869   4.902   3.972   5.919 -0.2112  1.1619 -0.3200
13152TIP3   OH260870   5.888   1.110   0.840  0.1378  0.0758 -0.2084
13152TIP3    H160871   5.872   1.028   0.793 -0.2988  2.1425 -3.8252
13152TIP3    H260872   5.979   1.132   0.819  0.2431  0.5564  0.7233
13153TIP3   OH260873   0.852   1.790  11.884 -0.2339  0.1088  0.2620
13153TIP3    H160874   0.772   1.801  11.832  0.5817  0.8883 -0.8394
13153TIP3    H260875   0.861   1.696  11.896 -0.8360 -0.0262 -0.3533
13154TIP3   OH260876   5.828   2.530   4.212 -0.2734 -0.2186  0.0000
13154TIP3    H160877   5.769   2.487   4.274 -2.8247 -1.4796 -3.1723
13154TIP3    H260878   5.844   2.617   4.249 -3.3812 -0.2064  1.3937
13155TIP3   OH260879   5.597   1.088   1.175  0.3188  0.4319 -0.0745
13155TIP3    H160880   5.504   1.109   1.182 -0.1809 -1.2110 -1.5140
13155TIP3    H260881   5.617   1.093   1.082  1.6428  0.6636  0.2076
13156TIP3   OH260882   1.039   1.497   4.170  0.7032 -0.0233  0.3516
13156TIP3    H160883   1.048   1.587   4.137  0.3348  0.5093  1.6413
13156TIP3    H260884   1.035   1.443   4.092  1.1779  1.0668 -0.4444
13157TIP3   OH260885   5.668   6.464  11.204 -0.1198 -0.2750 -0.1658
13157TIP3    H160886   5.640   6.372  11.204 -1.1851  0.0464  0.5916
13157TIP3    H260887   5.759   6.461  11.234  0.2225 -1.1950 -1.2929
13158TIP3   OH260888   0.789   5.735   0.759 -0.3299 -0.1519 -0.3254
13158TIP3    H160889   0.809   5.780   0.677 -0.5612  0.7348  0.0996
13158TIP3    H260890   0.701   5.765   0.782 -0.1493 -0.1629  0.3909
13159TIP3   OH260891   1.453   2.699  11.323  0.1583 -0.1235  0.1898
13159TIP3    H160892   1.363   2.687  11.294 -0.2884  2.1324  0.5682
13159TIP3    H260893   1.446   2.738  11.410  1.5052  0.3840  0.0847
13160TIP3   OH260894   1.380   1.449  12.599 -0.0493 -0.0509 -0.1113
13160TIP3    H160895   1.311   1.454  12.533  0.5138  2.3294 -0.5741
13160TIP3    H260896   1.378   1.534  12.643  2.8136  0.2167 -0.3865
13161TIP3   OH260897   3.180   5.025   2.559  0.1198 -0.0709  0.3932
13161TIP3    H160898   3.193   4.980   2.642 -1.8879  0.9954  1.3262
13161TIP3    H260899   3.158   5.115   2.584 -0.6859  0.2183 -1.2973
13162TIP3   OH260900   0.964   6.604  15.751  0.1394 -0.1628  0.2464
13162TIP3    H160901   0.940   6.605  15.844 -1.0067  0.2956 -0.0577
13162TIP3    H260902   1.018   6.682  15.739  0.0248 -0.0547  0.4443
13163TIP3   OH260903   3.416   6.628  10.839  0.5550 -0.0903 -0.3075
13163TIP3    H160904   3.427   6.546  10.887  2.2516  1.1640  1.5444
13163TIP3    H260905   3.495   6.635  10.785  0.5281  0.4399 -0.2826
13164TIP3   OH260906   1.348   4.910   2.460  0.2528  0.1409 -0.3776
13164TIP3    H160907   1.299   4.896   2.541  1.8567  0.8262  0.7367
13164TIP3    H260908   1.381   4.999   2.467  0.8287  0.0299 -1.5615
13165TIP3   OH260909   2.414   6.347  14.217  0.1025 -0.4017 -0.2447
13165TIP3    H160910   2.437   6.306  14.134 -0.7326  0.8585 -1.1065
13165TIP3    H260911   2.318   6.347  14.217  0.1011 -0.1199  0.5911
13166TIP3   OH260912   0.742   0.175  15.225  0.4998  0.2255 -0.1836
13166TIP3    H160913   0.698   0.209  15.147  0.5596  0.2858 -0.1894
13166TIP3    H260914   0.835   0.177  15.203  0.5236  0.3234 -0.0786
13167TIP3   OH260915   1.272   6.101   5.050 -0.0463 -0.1238  0.0923
13167TIP3    H160916   1.195   6.105   5.107  0.4431 -0.5673  0.7821
13167TIP3    H260917   1.267   6.182   4.998 -1.5518 -0.6376 -0.6043
13168TIP3   OH260918   0.873   0.933   6.513  0.1664  0.0048 -0.3524
13168TIP3    H160919   0.959   0.905   6.481  0.2777 -0.0074 -0.0482
13168TIP3    H260920   0.848   1.005   6.455  0.5888  0.3070 -0.1615
13169TIP3   OH260921   1.535   5.713  16.027  0.4238 -0.3043  0.1760
13169TIP3    H160922   1.567   5.649  15.964  1.1797 -1.2953  1.5306
13169TIP3    H260923   1.579   5.689  16.109 -2.9410 -1.0172  1.8456
13170TIP3   OH260924   3.857   1.185   2.807 -0.5608  0.9990 -0.2329
13170TIP3    H160925   3.814   1.142   2.734 -1.3520  0.1713  0.6983
13170TIP3    H260926   3.931   1.232   2.768 -0.2574 -0.4174 -1.4009
13171TIP3   OH260927   5.554   5.116  15.914  0.0724 -0.1514 -0.0001
13171TIP3    H160928   5.638   5.104  15.870 -1.4639  1.1090 -3.5405
13171TIP3    H260929   5.563   5.199  15.961  0.8786 -0.1256 -0.1942
13172TIP3   OH260930   1.902   4.213   4.599 -0.3143  0.1354  0.2534
13172TIP3    H160931   1.980   4.208   4.544  0.4043 -0.4430  1.3220
13172TIP3    H260932   1.911   4.297   4.645 -1.8495  1.5142 -1.8860
13173TIP3   OH260933   2.921   4.801   3.817 -0.4294 -0.8324  0.2847
13173TIP3    H160934   2.905   4.738   3.888 -1.1594  2.0785  2.8216
13173TIP3    H260935   2.834   4.824   3.785 -0.2956  0.3231  0.7199
13174TIP3   OH260936   4.863   0.016   3.504 -0.9309 -0.0799  0.0826
13174TIP3    H160937   4.885  -0.039   3.579 -0.5571 -1.5319 -1.0708
13174TIP3    H260938   4.930   0.085   3.504  0.4802 -1.4247 -0.2685
13175TIP3   OH260939   5.433   4.251  14.909 -0.2934  0.1146  0.0561
13175TIP3    H160940   5.422   4.263  14.814  0.1399 -1.6024 -0.2291
13175TIP3    H260941   5.525   4.227  14.920  0.0953  2.0063  1.1114
13176TIP3   OH260942   4.627   5.258   3.870  0.0336  0.6855 -0.1506
13176TIP3    H160943   4.612   5.242   3.777 -0.0726 -1.6760  0.2436
13176TIP3    H260944   4.719   5.284   3.875  0.3171 -0.1408 -0.8227
13177TIP3   OH260945   6.662   2.024   3.316  0.0405  0.2366  0.1874
13177TIP3    H160946   6.671   1.981   3.231 -1.4269  1.3810 -0.5638
13177TIP3    H260947   6.583   1.986   3.354  1.3558 -1.1729  1.6146
13178TIP3   OH260948   6.779   3.608  14.896 -0.2494 -0.6004 -0.1266
13178TIP3    H160949   6.685   3.618  14.912 -0.1633  0.1503 -0.0720
13178TIP3    H260950   6.820   3.642  14.975  0.0815 -0.5464 -0.3239
13179TIP3   OH260951   2.187   1.579  14.052 -0.2548  0.2464  0.3672
13179TIP3    H160952   2.125   1.508  14.038  0.1385 -0.0163 -0.0238
13179TIP3    H260953   2.224   1.563  14.139 -0.0336 -0.1223  0.2023
13180TIP3   OH260954   4.201   3.115  13.879  0.2661 -0.5271 -0.0718
13180TIP3    H160955   4.272   3.068  13.922  0.5664  0.5400  0.6370
13180TIP3    H260956   4.183   3.065  13.800 -0.1909 -2.4584  1.2154
13181TIP3   OH260957   2.114   3.417   5.817  0.1112 -0.2566  0.0905
13181TIP3    H160958   2.090   3.367   5.739 -0.8233  2.0126 -1.1315
13181TIP3    H260959   2.073   3.370   5.889 -0.6246 -1.3278 -1.0154
13182TIP3   OH260960   3.851   1.325  16.626  0.2640 -0.6648  0.6349
13182TIP3    H160961   3.793   1.316  16.551  1.3799 -0.5376 -0.2663
13182TIP3    H260962   3.932   1.281  16.598  1.1508  0.5539  1.2384
13183TIP3   OH260963   5.650   2.983  14.995  0.4941 -0.3737 -0.4161
13183TIP3    H160964   5.688   3.017  15.076  0.5704  2.9961 -1.7858
13183TIP3    H260965   5.721   2.989  14.931  0.0826 -1.8684 -1.0188
13184TIP3   OH260966   4.015   0.825  13.015  0.5360 -0.0205  0.0468
13184TIP3    H160967   4.079   0.893  12.994  0.3276 -0.0811 -0.7818
13184TIP3    H260968   4.034   0.802  13.106  0.9343  0.7879  0.1709
13185TIP3   OH260969   3.829   3.424   5.129  0.3942  0.2167  0.3360
13185TIP3    H160970   3.891   3.481   5.083 -1.6403  2.3410  0.1100
13185TIP3    H260971   3.797   3.365   5.061 -0.2799  1.2989 -0.3087
13186TIP3   OH260972   1.210   2.031   6.355  0.2790 -0.1123 -0.3588
13186TIP3    H160973   1.302   2.009   6.342 -0.3686 -2.9640 -0.5025
13186TIP3    H260974   1.202   2.046   6.449  0.7224 -0.7696 -0.2110
13187TIP3   OH260975   5.446   0.932   5.606 -0.2291 -0.4508 -0.1947
13187TIP3    H160976   5.374   0.968   5.659  0.6515  1.4535 -0.2469
13187TIP3    H260977   5.448   0.988   5.528 -0.1287 -1.8985 -1.2334
13188TIP3   OH260978   6.109   0.567  16.160  0.5064 -0.0921 -0.6845
13188TIP3    H160979   6.096   0.600  16.249  0.4382 -1.8218 -0.0350
13188TIP3    H260980   6.198   0.592  16.138 -0.0002  1.7304 -0.7414
13189TIP3   OH260981   4.547   6.418  12.623 -0.7361 -0.1061 -0.0803
13189TIP3    H160982   4.536   6.330  12.657 -1.0032  0.4366  1.2519
13189TIP3    H260983   4.634   6.418  12.583 -1.2876 -1.3634 -1.3423
13190TIP3   OH260984   5.291   2.290   3.611 -0.1777  0.0390  0.7721
13190TIP3    H160985   5.205   2.300   3.571  0.2127  0.1389 -0.0499
13190TIP3    H260986   5.334   2.374   3.599  0.5996 -0.4751 -0.1756
13191TIP3   OH260987   5.554   1.170  11.140 -1.1986 -0.4807  0.1949
13191TIP3    H160988   5.546   1.088  11.190 -1.3420 -1.1547 -0.9272
13191TIP3    H260989   5.526   1.147  11.052  0.7069  0.3028 -0.6333
13192TIP3   OH260990   5.503   3.953  14.307  0.2297  0.5600  0.0938
13192TIP3    H160991   5.538   4.039  14.284  0.0826  0.3986 -0.7544
13192TIP3    H260992   5.417   3.950  14.265  0.2350 -0.0038  0.1163
13193TIP3   OH260993   6.506   0.266  14.202 -0.0516 -0.5687 -0.2160
13193TIP3    H160994   6.580   0.326  14.187 -0.0232  0.1648  2.4912
13193TIP3    H260995   6.523   0.192  14.144  3.0378 -0.5845  0.6156
13194TIP3   OH260996   5.848   1.454   2.285  0.4526  0.0171  0.3170
13194TIP3    H160997   5.801   1.383   2.327  0.6504  1.2480  2.6608
13194TIP3    H260998   5.831   1.531   2.339 -0.0256  1.8628 -2.3392
13195TIP3   OH260999   4.506   2.467  12.434 -0.2064  0.7856 -0.0980
13195TIP3    H161000   4.582   2.521  12.415 -1.0578  2.4054  0.9572
13195TIP3    H261001   4.462   2.457  12.350 -0.2105  2.0130 -0.2486
13196TIP3   OH261002   1.665   4.661   5.897  0.4995 -0.1517 -0.0258
13196TIP3    H161003   1.707   4.746   5.884  0.7642 -0.4548 -1.2117
13196TIP3    H261004   1.627   4.666   5.985  0.6566  1.1248 -0.0210
13197TIP3   OH261005   5.258   4.954   6.445  0.2745 -0.3148  0.0406
13197TIP3    H161006   5.309   5.034   6.448 -0.9249  0.4224  1.6337
13197TIP3    H261007   5.297   4.898   6.512 -0.1093 -0.3026  0.2762
13198TIP3   OH261008   4.967   1.742  14.302 -0.1560 -0.2015 -0.1557
13198TIP3    H161009   5.022   1.665  14.320 -0.2134 -0.1058  0.4224
13198TIP3    H261010   4.981   1.800  14.376 -1.5776 -0.4814  0.3579
13199TIP3   OH261011   3.601   3.351  13.784  0.3252  0.4278  0.1540
13199TIP3    H161012   3.510   3.323  13.797  0.7414 -0.0321  2.1483
13199TIP3    H261013   3.640   3.280  13.733 -0.1622  0.1400  0.1741
13200TIP3   OH261014   1.021   2.265  11.166  0.4003  0.0215  0.1687
13200TIP3    H161015   1.065   2.183  11.186  0.7748  0.4601  1.1835
13200TIP3    H261016   1.034   2.278  11.072  1.7010 -0.2832  0.3078
13201TIP3   OH261017   0.609   6.644   3.148 -0.4676  0.1411  0.3277
13201TIP3    H161018   0.680   6.637   3.211 -1.9201 -0.0065  2.0025
13201TIP3    H261019   0.574   6.555   3.139 -1.1055  0.3876  0.3117
13202TIP3   OH261020   5.696   3.004  16.283  0.4832 -0.2643  0.0217
13202TIP3    H161021   5.676   3.090  16.245  1.3572 -0.1471 -0.1667
13202TIP3    H261022   5.767   2.970  16.229 -0.5904 -1.5807 -0.5879
13203TIP3   OH261023   4.341   6.009   4.255 -0.0919  0.2121 -0.4892
13203TIP3    H161024   4.422   6.007   4.204  1.4402  2.3434  1.8019
13203TIP3    H261025   4.350   5.937   4.317  0.4880  1.0533  0.4081
13204TIP3   OH261026   4.693   2.001   4.911  0.4063 -0.2422  0.1260
13204TIP3    H161027   4.769   1.944   4.926  0.9176 -0.3419 -2.6190
13204TIP3    H261028   4.718   2.085   4.950  2.5596  0.1726 -2.0739
13205TIP3   OH261029   2.386   0.609   0.617  0.2063  0.2663  0.2617
13205TIP3    H161030   2.315   0.608   0.552 -0.5995 -0.1718  1.1297
13205TIP3    H261031   2.421   0.698   0.612 -0.4184  0.4969 -0.1658
13206TIP3   OH261032   3.011   0.672   4.295 -0.2902  0.0104  0.5169
13206TIP3    H161033   3.061   0.754   4.287  0.4894 -0.3481  1.5473
13206TIP3    H261034   2.951   0.673   4.221  2.7065 -0.5508 -2.0525
13207TIP3   OH261035   6.268   6.469  11.687  0.5517  0.2403  0.2078
13207TIP3    H161036   6.303   6.418  11.760  0.6902  1.5319  1.0564
13207TIP3    H261037   6.269   6.408  11.613 -0.3691 -1.3454  1.4526
13208TIP3   OH261038   3.555   6.061   2.455  0.4096 -0.5930  0.1054
13208TIP3    H161039   3.516   6.048   2.368  1.4769  3.4921 -1.0797
13208TIP3    H261040   3.607   5.982   2.470  0.5504 -1.1748 -3.1407
13209TIP3   OH261041   2.505   1.522   0.393 -0.5699  0.1961  0.6940
13209TIP3    H161042   2.502   1.471   0.474 -0.3559 -1.6253 -0.4166
13209TIP3    H261043   2.414   1.541   0.373 -0.7590 -1.1464  0.2577
13210TIP3   OH261044   1.854   3.232  14.611 -0.3268 -0.1133 -0.5468
13210TIP3    H161045   1.789   3.296  14.640 -0.2625 -0.2352 -0.1336
13210TIP3    H261046   1.815   3.147  14.632 -0.3464 -0.2040 -0.9549
13211TIP3   OH261047   1.148   5.557   5.150  0.8117 -0.0516 -0.2505
13211TIP3    H161048   1.129   5.592   5.063  1.2561 -0.1301 -0.3776
13211TIP3    H261049   1.068   5.575   5.200  1.1656  1.4635 -0.2041
13212TIP3   OH261050   5.168   4.803  14.245  0.3597  0.4715 -0.0262
13212TIP3    H161051   5.223   4.749  14.188 -0.9001 -0.5745 -0.2508
13212TIP3    H261052   5.228   4.833  14.314  0.9749 -1.5498  0.3431
13213TIP3   OH261053   0.808   1.453   4.528  0.0757  0.5172  0.6394
13213TIP3    H161054   0.814   1.399   4.449  1.8606 -0.2688  1.2858
13213TIP3    H261055   0.808   1.390   4.600 -1.4160  1.2426  1.2802
13214TIP3   OH261056   5.639   3.589   6.458  0.1965  1.2634 -0.4231
13214TIP3    H161057   5.592   3.541   6.527  1.8126  0.1964 -0.0240
13214TIP3    H261058   5.607   3.552   6.376  1.1031 -0.2369 -0.1234
13215TIP3   OH261059   2.737   4.665  12.556  0.1992 -0.2814 -0.1665
13215TIP3    H161060   2.800   4.600  12.526  2.4024  1.9399 -0.4438
13215TIP3    H261061   2.693   4.695  12.476  0.4330 -0.1348 -0.2385
13216TIP3   OH261062   3.389   4.390   4.212 -0.2717  0.4309 -0.4515
13216TIP3    H161063   3.320   4.455   4.197  0.6584  2.3616  3.1736
13216TIP3    H261064   3.462   4.419   4.158 -0.0721  2.1424  0.6895
13217TIP3   OH261065   3.005   4.458  11.991 -0.6679  0.2282 -0.0420
13217TIP3    H161066   2.949   4.493  12.061 -1.4524  1.9748 -1.4906
13217TIP3    H261067   3.049   4.383  12.031 -0.3851  1.7336  2.6126
13218TIP3   OH261068   5.448   6.360   6.143 -0.1485  0.2030 -0.2743
13218TIP3    H161069   5.529   6.310   6.140 -0.1617  0.1114  0.6628
13218TIP3    H261070   5.475   6.450   6.161 -0.2531  0.1593  0.1177
13219TIP3   OH261071   4.653   4.599   6.640 -0.1495  0.4575 -0.9315
13219TIP3    H161072   4.675   4.577   6.731 -0.1818 -0.2023 -1.0792
13219TIP3    H261073   4.707   4.675   6.620  2.1603 -1.2343 -1.3339
13220TIP3   OH261074   3.419   6.672   4.619  0.1120  0.2696  0.6199
13220TIP3    H161075   3.416   6.708   4.531 -2.1759 -1.8252 -0.2322
13220TIP3    H261076   3.479   6.598   4.614 -0.7539 -0.4407  0.5571
13221TIP3   OH261077   2.413   4.756  14.584  0.2045  0.2386 -0.1584
13221TIP3    H161078   2.323   4.727  14.573  0.2485  0.8545 -2.3481
13221TIP3    H261079   2.463   4.707  14.519  1.5955 -0.6328  1.5099
13222TIP3   OH261080   4.416   0.839  11.314  0.1996  0.0810  0.1839
13222TIP3    H161081   4.329   0.842  11.273 -0.1469 -0.8080  0.8415
13222TIP3    H261082   4.452   0.755  11.286  0.2832 -0.1746  1.0601
13223TIP3   OH261083   5.380   5.686  12.291 -0.7963  0.0106  0.4099
13223TIP3    H161084   5.289   5.715  12.281 -1.3380 -1.5750  0.6816
13223TIP3    H261085   5.407   5.658  12.203 -0.1281  1.6783  0.0563
13224TIP3   OH261086   1.148   0.336  12.607 -0.5240 -0.3808  0.0274
13224TIP3    H161087   1.205   0.286  12.549 -1.0549 -0.0065 -0.8196
13224TIP3    H261088   1.116   0.272  12.670 -0.3269 -0.8821 -0.3784
13225TIP3   OH261089   6.757   2.359   1.619  0.0709  0.4360  0.1717
13225TIP3    H161090   6.679   2.305   1.604  0.6156  0.0065 -1.2291
13225TIP3    H261091   6.804   2.315   1.690 -1.3777  1.1724  1.6175
13226TIP3   OH261092   1.544   0.616  16.175  0.2557 -0.3403  0.5962
13226TIP3    H161093   1.515   0.605  16.084  0.4889 -1.1813  0.6134
13226TIP3    H261094   1.591   0.535  16.194 -1.5182 -1.0419  2.0956
13227TIP3   OH261095   3.125   0.704  10.263 -0.2869 -0.1215 -0.0116
13227TIP3    H161096   3.132   0.722  10.169 -0.7301 -0.5403 -0.1247
13227TIP3    H261097   3.216   0.688  10.291 -0.1667 -0.0959 -0.3855
13228TIP3   OH261098   0.038   5.516   2.121  0.4272  0.0232 -0.2872
13228TIP3    H161099  -0.018   5.461   2.067 -0.0650  0.5115 -0.2804
13228TIP3    H261100   0.077   5.579   2.060 -1.4699  1.6853  0.1446
13229TIP3   OH261101   2.725   6.517  11.052  0.3418  0.1862 -0.2099
13229TIP3    H161102   2.794   6.468  11.097  0.2050  1.3565  1.2897
13229TIP3    H261103   2.771   6.588  11.007  0.4264 -0.7139 -1.5614
13230TIP3   OH261104   4.488   4.506  16.547  0.2197 -0.2783  0.7507
13230TIP3    H161105   4.536   4.577  16.505  0.1294  0.6583  2.2155
13230TIP3    H261106   4.490   4.435  16.482 -0.0232  1.1584 -0.8761
13231TIP3   OH261107   3.591   5.604  12.124  0.3257 -0.5240  0.0803
13231TIP3    H161108   3.640   5.589  12.205 -1.4436  0.7861  1.4319
13231TIP3    H261109   3.605   5.525  12.072  0.9390 -1.6707  1.9509
13232TIP3   OH261110   0.158   3.653   1.347 -0.3832 -0.3632  0.1506
13232TIP3    H161111   0.205   3.686   1.423 -2.9515 -0.1900  1.7380
13232TIP3    H261112   0.107   3.728   1.316 -1.4872 -1.1791 -0.0451
13233TIP3   OH261113   3.846   3.321   0.869 -0.0611 -0.4479  0.5691
13233TIP3    H161114   3.850   3.232   0.835  2.3266 -0.6017  1.1903
13233TIP3    H261115   3.880   3.314   0.958  0.8269  1.2054  0.3682
13234TIP3   OH261116   1.831   0.714   5.378 -0.3517  0.4904 -0.3925
13234TIP3    H161117   1.766   0.669   5.432  1.3932 -0.6031  0.8765
13234TIP3    H261118   1.915   0.681   5.410  0.8372  1.9823 -1.8834
13235TIP3   OH261119   3.470   2.776  16.376  0.3908  0.4688 -0.1197
13235TIP3    H161120   3.402   2.843  16.365  0.3165  0.2095 -1.3186
13235TIP3    H261121   3.552   2.823  16.360  0.3255  0.2398 -1.1700
13236TIP3   OH261122   6.404   6.510  12.493 -0.5954  0.0637 -0.4821
13236TIP3    H161123   6.399   6.606  12.486 -0.0462  0.1389  0.1264
13236TIP3    H261124   6.496   6.490  12.479 -1.0785 -0.5902 -2.9994
13237TIP3   OH261125   0.248   6.045   4.041 -0.0191 -0.0354  0.5990
13237TIP3    H161126   0.208   5.964   4.073 -2.3692  0.4953 -0.7991
13237TIP3    H261127   0.191   6.115   4.075  0.1995  0.8169 -0.7216
13238TIP3   OH261128   5.201   4.367  13.091  0.4085 -0.1146 -0.0785
13238TIP3    H161129   5.135   4.299  13.107  0.8639 -0.9152 -1.4944
13238TIP3    H261130   5.261   4.359  13.165 -2.2658  2.1716  2.4942
13239TIP3   OH261131   1.989   0.316   2.668  0.1962  0.2027 -0.3295
13239TIP3    H161132   1.990   0.376   2.593 -2.4838 -0.4671 -0.9498
13239TIP3    H261133   2.068   0.263   2.657  1.0704  1.6578 -1.3721
13240TIP3   OH261134   2.826   5.019  17.005  0.0318  0.0106 -0.0342
13240TIP3    H161135   2.821   5.023  17.100  0.4774  0.8523 -0.0398
13240TIP3    H261136   2.773   5.093  16.975  1.3389  0.8239 -0.3836
13241TIP3   OH261137   5.263   1.980   3.577 -0.1126 -0.6052 -0.7047
13241TIP3    H161138   5.190   2.006   3.520  0.1156  0.5718 -0.4644
13241TIP3    H261139   5.332   1.952   3.516  0.0908  0.5440 -1.0198
13242TIP3   OH261140   3.368   3.487  14.252 -0.1388  0.1318  0.0787
13242TIP3    H161141   3.289   3.499  14.199  0.4160  0.4554 -0.6751
13242TIP3    H261142   3.428   3.439  14.195  0.2157 -0.1155  0.6565
13243TIP3   OH261143   2.265   3.355   1.750 -0.0392 -0.1469 -0.6693
13243TIP3    H161144   2.192   3.401   1.791 -0.4453 -0.5096 -0.9793
13243TIP3    H261145   2.343   3.392   1.792 -0.2494  2.1026 -2.1427
13244TIP3   OH261146   5.751   4.394   2.110  0.3706 -0.0975  0.2576
13244TIP3    H161147   5.781   4.385   2.201  1.5588  0.2916 -0.0880
13244TIP3    H261148   5.813   4.342   2.059 -1.0059 -1.3062 -0.2150
13245TIP3   OH261149   2.403   2.716  11.028  0.1107 -0.2937  0.0210
13245TIP3    H161150   2.432   2.630  10.997 -0.4495  0.0482 -1.5205
13245TIP3    H261151   2.347   2.749  10.957  0.5764  1.4804  0.4612
13246TIP3   OH261152   4.924   6.200  13.437  0.6711 -0.2382 -0.1364
13246TIP3    H161153   4.983   6.157  13.499 -0.3159 -2.5608 -0.7528
13246TIP3    H261154   4.967   6.187  13.352 -0.6406 -1.8817 -0.5798
13247TIP3   OH261155   1.032   0.900   5.885 -0.2650  0.4396  0.5902
13247TIP3    H161156   1.066   0.989   5.887  1.0301 -0.0525  1.0011
13247TIP3    H261157   1.028   0.874   5.977 -2.6083  0.7981  0.6071
13248TIP3   OH261158   3.673   5.625  16.457 -0.1174 -0.0218 -0.4955
13248TIP3    H161159   3.586   5.587  16.443 -0.8745  1.8265 -0.9458
13248TIP3    H261160   3.673   5.653  16.549 -0.3434  0.8121 -0.7457
13249TIP3   OH261161   6.708   0.295   6.427 -0.1687  0.0608 -0.3913
13249TIP3    H161162   6.777   0.340   6.477 -0.1428  0.0324 -0.4008
13249TIP3    H261163   6.747   0.211   6.404 -0.6840 -0.5119  0.7732
13250TIP3   OH261164   1.450   1.904   0.115  0.1166  0.5783  0.2130
13250TIP3    H161165   1.402   1.837   0.163 -0.0252  1.1042  0.8098
13250TIP3    H261166   1.383   1.947   0.061 -0.5933  2.9188  2.8262
13251TIP3   OH261167   1.052   4.227  11.163 -0.8506 -0.3865 -0.0815
13251TIP3    H161168   1.074   4.145  11.118 -1.0939 -1.9832  2.6158
13251TIP3    H261169   0.964   4.248  11.132 -1.2761 -1.8150  0.1115
13252TIP3   OH261170   6.673   2.519   4.698  0.2610 -0.1832  0.2329
13252TIP3    H161171   6.603   2.584   4.700  0.0366 -0.3653 -1.1891
13252TIP3    H261172   6.651   2.458   4.769 -0.8202 -0.0262  0.0403
13253TIP3   OH261173   4.639   5.527   3.576 -0.2940  0.6391 -0.4462
13253TIP3    H161174   4.549   5.542   3.605 -0.1662  3.3455 -1.3222
13253TIP3    H261175   4.692   5.551   3.652 -0.2939 -1.6218  0.3092
13254TIP3   OH261176   6.429   2.170   0.617  0.7893 -0.2889 -0.3993
13254TIP3    H161177   6.483   2.119   0.557 -0.9912 -2.3746 -0.2685
13254TIP3    H261178   6.428   2.119   0.698 -3.4457 -1.7088 -1.1894
13255TIP3   OH261179   2.217   5.674   6.190  0.0229 -0.5258  0.2219
13255TIP3    H161180   2.279   5.743   6.210  0.7808 -0.9630 -0.5974
13255TIP3    H261181   2.131   5.715   6.200  0.4002  2.0403 -5.1798
13256TIP3   OH261182   6.500   0.568  14.055 -0.0023  0.0066  0.7154
13256TIP3    H161183   6.495   0.663  14.056  1.6398  0.1128  2.2494
13256TIP3    H261184   6.410   0.539  14.049 -0.5754  1.6553  1.0863
13257TIP3   OH261185   1.162   3.094  13.397  0.0998 -0.8087 -0.2774
13257TIP3    H161186   1.219   3.088  13.474 -0.9399  0.8292  0.6480
13257TIP3    H261187   1.223   3.108  13.324  0.9033  1.7144  0.8096
13258TIP3   OH261188   1.762   5.092  12.904  0.3560  0.2461 -0.4092
13258TIP3    H161189   1.685   5.144  12.928 -0.1071 -0.7512  0.3190
13258TIP3    H261190   1.800   5.138  12.830 -1.1348  0.5784 -0.9912
13259TIP3   OH261191   0.240   1.327   5.869 -0.1109  0.3019  0.1784
13259TIP3    H161192   0.286   1.246   5.888  0.1263  0.8954  2.2480
13259TIP3    H261193   0.150   1.312   5.900 -0.1284  0.7367  0.3490
13260TIP3   OH261194   2.484   3.719  16.896  0.3106  0.0021  0.2290
13260TIP3    H161195   2.524   3.767  16.823  0.7691 -2.3826 -1.1395
13260TIP3    H261196   2.559   3.687  16.947  0.1029 -1.8299 -0.5873
13261TIP3   OH261197   5.287   3.884  13.062  0.4899 -0.0614 -0.8988
13261TIP3    H161198   5.290   3.790  13.079  2.2762 -0.1436 -1.5954
13261TIP3    H261199   5.232   3.919  13.133  0.2108 -1.5521 -0.3550
13262TIP3   OH261200   0.194   2.787  10.754 -0.4607 -0.0187  0.1327
13262TIP3    H161201   0.250   2.756  10.683  2.2590  2.2705  1.1614
13262TIP3    H261202   0.225   2.739  10.831 -0.9492  0.1667  0.4481
13263TIP3   OH261203   0.054   3.337   5.654  0.6473 -0.1924  0.0242
13263TIP3    H161204   0.096   3.389   5.722  1.3552  1.0418 -1.3159
13263TIP3    H261205   0.062   3.391   5.575 -1.7034 -0.8193 -0.6668
13264TIP3   OH261206   6.663   6.720   4.067  0.2918  0.7934 -0.7637
13264TIP3    H161207   6.626   6.655   4.127  0.2768  0.9517 -0.6055
13264TIP3    H261208   6.739   6.756   4.113 -0.0662  1.3360 -0.6017
13265TIP3   OH261209   4.885   0.503  11.796  0.0705  0.2394 -0.1879
13265TIP3    H161210   4.945   0.476  11.865 -0.9471  0.0056  0.6190
13265TIP3    H261211   4.895   0.436  11.728  1.5180  0.8039 -0.5494
13266TIP3   OH261212   2.870   3.346   5.537  0.6200 -0.2842  0.3334
13266TIP3    H161213   2.840   3.285   5.469  0.7179 -1.0299  0.9447
13266TIP3    H261214   2.966   3.344   5.530  0.6304 -0.3869  0.5156
13267TIP3   OH261215   4.107   5.157   4.636 -0.7070 -1.3165  0.5115
13267TIP3    H161216   4.106   5.251   4.654  0.0513 -0.9666 -1.1305
13267TIP3    H261217   4.150   5.118   4.711  0.1396 -0.2078  0.6115
13268TIP3   OH261218   6.170   1.993   5.740  0.2299 -0.3605  0.4444
13268TIP3    H161219   6.224   1.959   5.668  0.0533 -1.3448  0.7825
13268TIP3    H261220   6.234   2.032   5.800  0.3480  0.8117 -0.4218
13269TIP3   OH261221   1.293   5.065   2.930 -0.3927  0.2461 -0.7825
13269TIP3    H161222   1.353   4.997   2.961 -0.3607  0.0893 -1.1870
13269TIP3    H261223   1.207   5.039   2.964  0.0232  1.3195  1.1595
13270TIP3   OH261224   1.300   4.028  14.671 -0.4913 -0.1308 -0.5068
13270TIP3    H161225   1.342   4.109  14.699  0.5825 -0.4297 -1.2258
13270TIP3    H261226   1.354   3.997  14.598  0.4539 -2.6784  1.1917
13271TIP3   OH261227   4.303   6.559   1.776 -0.5079  0.1384 -0.6535
13271TIP3    H161228   4.287   6.631   1.837  0.2001 -0.5877  0.4317
13271TIP3    H261229   4.350   6.494   1.829  0.2438 -0.4530 -2.0295
13272TIP3   OH261230   4.276   0.376  12.086 -0.8439  0.8074  0.2082
13272TIP3    H161231   4.270   0.328  12.168  0.9011  1.9758  1.0418
13272TIP3    H261232   4.335   0.323  12.032  2.5162  2.8378  1.7710
13273TIP3   OH261233   4.768   2.592   0.011  0.6472 -0.2177 -0.0517
13273TIP3    H161234   4.756   2.635  -0.073  1.9084  0.7728  0.2541
13273TIP3    H261235   4.783   2.500  -0.011 -0.8434 -0.2933 -0.7823
13274TIP3   OH261236   0.713   3.313   1.396 -0.0023  0.4776  0.0719
13274TIP3    H161237   0.744   3.361   1.473 -2.4309 -0.3966  1.6511
13274TIP3    H261238   0.771   3.340   1.326  2.9765  0.5050  2.4447
13275TIP3   OH261239   2.092   2.217   5.369 -0.0965  0.1093  0.0990
13275TIP3    H161240   2.038   2.296   5.369  0.8193  0.7431  0.6717
13275TIP3    H261241   2.140   2.222   5.286 -0.4594 -0.1488 -0.1305
13276TIP3   OH261242   6.006   0.958  12.273 -0.2740  0.0272  0.2939
13276TIP3    H161243   6.047   0.880  12.237  1.7007 -0.2200  2.9378
13276TIP3    H261244   5.928   0.971  12.219 -0.1987 -3.2524 -0.7140
13277TIP3   OH261245   2.110   5.229   0.807  0.2841 -0.5496 -0.3706
13277TIP3    H161246   2.162   5.150   0.822  1.1156 -0.5018 -2.8308
13277TIP3    H261247   2.173   5.301   0.811 -0.1580 -0.1799 -0.0037
13278TIP3   OH261248   1.053   5.921   0.898 -0.9106 -0.3381 -0.1011
13278TIP3    H161249   0.997   5.933   0.822  0.2340  1.5760 -0.6741
13278TIP3    H261250   1.018   5.981   0.963  0.9933  1.5551 -0.7772
13279TIP3   OH261251   5.963   6.322  15.343 -0.0809  0.5948 -0.3495
13279TIP3    H161252   6.037   6.288  15.394 -0.5429  0.8708  0.5228
13279TIP3    H261253   5.930   6.246  15.295  0.9459  0.5335 -0.9647
13280TIP3   OH261254   2.774   2.732  13.057  0.1823 -0.4291 -0.8568
13280TIP3    H161255   2.747   2.645  13.030  0.8189 -0.7322 -0.5389
13280TIP3    H261256   2.721   2.792  13.004 -0.5068 -1.0053 -0.8212
13281TIP3   OH261257   1.987   6.493   3.223 -0.2021 -0.0219 -0.0785
13281TIP3    H161258   2.062   6.475   3.279 -0.5935 -0.3758  0.3311
13281TIP3    H261259   1.915   6.514   3.283 -0.2492  1.0599 -0.4878
13282TIP3   OH261260   2.166   6.756  16.900  0.3701 -0.5945  0.3800
13282TIP3    H161261   2.234   6.735  16.965  2.1337 -1.2523 -1.6176
13282TIP3    H261262   2.085   6.760  16.951  1.5393 -2.2193  2.4650
13283TIP3   OH261263   3.471   5.960   6.068 -0.0071  0.5159  0.5424
13283TIP3    H161264   3.405   5.993   6.007  0.2143 -0.5248 -0.2693
13283TIP3    H261265   3.434   5.977   6.154 -2.0040 -1.3925  0.0822
13284TIP3   OH261266   0.063   0.006   2.342  0.3881  0.0216  0.3030
13284TIP3    H161267  -0.008   0.068   2.329  1.6342  1.1448 -1.3598
13284TIP3    H261268   0.040  -0.040   2.422 -1.4284  1.4335  0.6267
13285TIP3   OH261269   0.128   2.892   3.626  0.1482 -0.5592  0.2517
13285TIP3    H161270   0.135   2.798   3.611 -2.0769 -0.3670 -2.4245
13285TIP3    H261271   0.157   2.931   3.544  2.7968  1.2313  1.9416
13286TIP3   OH261272   5.337   4.639  14.071  0.8048 -0.1647 -0.0669
13286TIP3    H161273   5.380   4.565  14.027  0.3956 -0.1015 -0.5730
13286TIP3    H261274   5.351   4.713  14.013 -0.6561 -0.3083 -0.6290
13287TIP3   OH261275   1.014   2.175  12.126 -0.2142  0.1726  0.3570
13287TIP3    H161276   1.074   2.201  12.196 -0.4787  0.3339  0.5245
13287TIP3    H261277   0.927   2.199  12.159 -0.3838 -0.2102  0.1822
13288TIP3   OH261278   3.429   2.516  10.672  0.4124  0.0876  0.0396
13288TIP3    H161279   3.476   2.477  10.598  0.0225 -1.2481  0.4726
13288TIP3    H261280   3.480   2.593  10.695  1.8012 -0.7485 -0.1776
13289TIP3   OH261281   5.959   5.082  11.312 -0.2200  0.2121  1.2917
13289TIP3    H161282   6.022   5.084  11.384 -0.0520 -1.9420  1.2349
13289TIP3    H261283   6.012   5.067  11.234 -0.1452  4.6727  0.3179
13290TIP3   OH261284   6.776   4.342   2.693  0.1561  0.0158 -0.0229
13290TIP3    H161285   6.858   4.361   2.646 -0.0233 -1.2036 -0.8434
13290TIP3    H261286   6.725   4.290   2.631 -1.9243  2.1223 -0.1440
13291TIP3   OH261287   3.861   3.020   3.034 -0.7354 -0.1554  0.8798
13291TIP3    H161288   3.776   3.039   3.073 -0.4282 -0.2529  1.5921
13291TIP3    H261289   3.920   3.011   3.108 -0.3457 -1.3155  0.4367
13292TIP3   OH261290   3.110   1.043   1.447 -0.3958  0.3498 -0.5062
13292TIP3    H161291   3.140   1.088   1.368 -0.4765  0.1269 -0.6640
13292TIP3    H261292   3.063   1.110   1.496 -1.4482  0.1655 -1.2510
13293TIP3   OH261293   3.208   1.256   2.600 -0.2689  0.5486  0.2049
13293TIP3    H161294   3.239   1.345   2.619 -1.7991  1.0593  0.3757
13293TIP3    H261295   3.208   1.251   2.504 -0.8844  0.9899  0.1801
13294TIP3   OH261296   5.788   5.964   6.126 -0.4720  0.0087 -0.4250
13294TIP3    H161297   5.882   5.981   6.139 -0.3054 -2.1741  1.4422
13294TIP3    H261298   5.747   6.050   6.140  1.0229  0.4908  1.2806
13295TIP3   OH261299   2.441   1.130   4.789 -1.5564 -0.5106  0.6685
13295TIP3    H161300   2.393   1.113   4.708  0.2044 -0.0721 -0.4902
13295TIP3    H261301   2.446   1.226   4.794  0.7083 -0.5642 -0.1516
13296TIP3   OH261302   1.667   0.007  13.426 -0.5838  0.3260 -0.0563
13296TIP3    H161303   1.619  -0.067  13.464 -0.1234 -0.1486 -0.3820
13296TIP3    H261304   1.647   0.003  13.332 -1.6251  1.4246  0.1130
13297TIP3   OH261305   0.200   1.070  12.662 -0.5051  0.0650  0.6620
13297TIP3    H161306   0.138   1.055  12.733  1.7719 -0.1253  2.6768
13297TIP3    H261307   0.193   1.164  12.644 -2.3811 -0.2063 -0.1211
13298TIP3   OH261308   2.846   2.615  16.543 -0.0838 -0.3448  0.6241
13298TIP3    H161309   2.822   2.581  16.457 -0.9638 -0.3175  0.8596
13298TIP3    H261310   2.941   2.604  16.548  0.6308  3.6355 -2.1123
13299TIP3   OH261311   1.533   4.951  12.553 -0.0714 -0.1111  0.1150
13299TIP3    H161312   1.628   4.948  12.550 -0.0778 -0.2185 -0.0251
13299TIP3    H261313   1.508   4.879  12.611  0.0471  1.8507  2.6774
13300TIP3   OH261314   5.753   2.662  14.648 -0.1922 -0.3337  0.1804
13300TIP3    H161315   5.660   2.652  14.625 -0.2741 -0.9228  0.7612
13300TIP3    H261316   5.782   2.738  14.597 -1.5132  1.1044  1.4962
13301TIP3   OH261317   1.946   0.751  11.766 -0.7142 -0.5016 -0.4548
13301TIP3    H161318   1.973   0.727  11.677 -0.5995  0.0303 -0.5636
13301TIP3    H261319   1.855   0.724  11.771 -1.1330  0.7356 -1.2087
13302TIP3   OH261320   5.671   1.740   4.948 -0.4292  0.4007 -0.1537
13302TIP3    H161321   5.583   1.777   4.954 -1.7366 -2.4178 -0.9802
13302TIP3    H261322   5.679   1.685   5.026  0.4934  0.4116 -0.2378
13303TIP3   OH261323   2.932   6.680   2.450 -0.3566 -0.2930 -0.0719
13303TIP3    H161324   2.931   6.749   2.516 -1.2442 -0.7465  0.3904
13303TIP3    H261325   3.015   6.693   2.403  0.9970 -0.8898  2.0844
13304TIP3   OH261326   2.060   1.349  17.162  0.2244  0.3434 -0.4092
13304TIP3    H161327   2.145   1.305  17.163  0.5666  0.9808 -0.8783
13304TIP3    H261328   2.067   1.416  17.230  0.3685  0.8902 -0.9604
13305TIP3   OH261329   6.264   0.474  11.349 -0.1519  0.5207 -0.4981
13305TIP3    H161330   6.302   0.463  11.262 -0.0121  2.7478 -0.7615
13305TIP3    H261331   6.276   0.567  11.368 -4.2669  1.0476 -0.0425
13306TIP3   OH261332   2.099   0.417   2.911 -0.6286 -0.4111 -0.2504
13306TIP3    H161333   2.050   0.388   2.834 -1.3712  0.5125 -0.1337
13306TIP3    H261334   2.145   0.496   2.883 -0.4508 -0.3900  0.0887
13307TIP3   OH261335   1.400   3.634  14.536  0.4853 -0.7187  0.0506
13307TIP3    H161336   1.366   3.607  14.621 -0.1353 -1.6131 -0.4687
13307TIP3    H261337   1.446   3.557  14.503  0.6465 -0.4067 -0.4635
13308TIP3   OH261338   0.896   0.389  16.674 -0.3160  0.4819 -0.2893
13308TIP3    H161339   0.938   0.363  16.592  0.6908 -0.0906  0.3959
13308TIP3    H261340   0.956   0.452  16.714 -0.3690  0.0998  0.4201
13309TIP3   OH261341   5.427   1.091   2.182  0.4583 -0.1296  0.0135
13309TIP3    H161342   5.447   1.005   2.145 -0.8652  0.0734 -1.2548
13309TIP3    H261343   5.512   1.128   2.204  1.0330 -1.8611  0.8096
13310TIP3   OH261344   1.501   2.868  13.501  0.3500  0.1949  0.3423
13310TIP3    H161345   1.584   2.820  13.493  0.1599  0.0930 -1.2372
13310TIP3    H261346   1.512   2.945  13.446 -1.1734 -0.6669 -1.2607
13311TIP3   OH261347   3.643   1.726   0.428 -0.0085  0.0347 -0.3253
13311TIP3    H161348   3.721   1.760   0.472  0.6130 -0.5224 -0.9817
13311TIP3    H261349   3.654   1.751   0.336  0.5639 -2.1067 -0.8583
13312TIP3   OH261350   0.890   1.769   6.100 -0.5222  0.8816 -0.2337
13312TIP3    H161351   0.923   1.832   6.164  0.7163  1.1492 -1.1398
13312TIP3    H261352   0.965   1.746   6.046 -0.7151 -2.1433  0.6955
13313TIP3   OH261353   2.230   6.188   3.518 -0.9851  0.0217 -0.2173
13313TIP3    H161354   2.159   6.236   3.562 -1.8848 -0.5051 -1.0576
13313TIP3    H261355   2.276   6.256   3.469 -0.3935  0.5033  0.9756
13314TIP3   OH261356   5.727   2.287  15.192  0.2831  0.4397 -0.4592
13314TIP3    H161357   5.719   2.346  15.267 -1.6008 -1.0276  0.5241
13314TIP3    H261358   5.811   2.311  15.152  0.5628  2.3107  1.1668
13315TIP3   OH261359   1.033   0.675  11.478  0.3190  0.3005  0.4483
13315TIP3    H161360   0.941   0.700  11.471  0.2231 -0.2926 -0.7004
13315TIP3    H261361   1.051   0.630  11.395  1.2548 -0.8312  1.2511
13316TIP3   OH261362   2.298   1.420   3.291 -0.0748 -0.4516 -0.0928
13316TIP3    H161363   2.311   1.382   3.204 -0.8215  0.3818 -0.5694
13316TIP3    H261364   2.273   1.511   3.275  2.9594  0.6646  1.0720
13317TIP3   OH261365   0.716   5.619  16.227 -0.3160 -0.1486 -0.0303
13317TIP3    H161366   0.755   5.703  16.202  1.1084 -1.1007 -1.1302
13317TIP3    H261367   0.702   5.573  16.143 -0.0133 -1.4658  0.6194
13318TIP3   OH261368   4.326   4.943   6.363 -0.1705  0.4554  0.0668
13318TIP3    H161369   4.339   4.934   6.457  0.3605  1.1992  0.0685
13318TIP3    H261370   4.329   5.037   6.348  0.2380  0.3100 -0.7682
13319TIP3   OH261371   2.592   5.420   1.112 -0.1016  0.2275 -0.7291
13319TIP3    H161372   2.595   5.371   1.030  0.6950 -0.0543 -0.5351
13319TIP3    H261373   2.514   5.387   1.156  0.9108 -1.5597 -0.1929
13320TIP3   OH261374   4.179   6.235  17.098 -0.4361  0.7393  0.1228
13320TIP3    H161375   4.191   6.157  17.152 -1.0663  0.4261 -0.1784
13320TIP3    H261376   4.124   6.206  17.026 -1.9386  1.8047  0.8032
13321TIP3   OH261377   5.176   1.928  13.996 -1.0074 -0.3113  0.1193
13321TIP3    H161378   5.192   1.875  13.918 -0.7014  0.0875 -0.0930
13321TIP3    H261379   5.082   1.922  14.010 -1.1845  0.2757 -0.7652
13322TIP3   OH261380   1.923   3.862  13.656 -0.0380  0.4996  0.4528
13322TIP3    H161381   1.829   3.849  13.671  0.2736 -1.6068  0.7873
13322TIP3    H261382   1.939   3.824  13.570  0.5117  0.8147  0.4156
13323TIP3   OH261383   1.006   2.018  12.737  0.0400  0.3293  0.6168
13323TIP3    H161384   1.039   1.984  12.653 -0.7182 -0.7847  0.7642
13323TIP3    H261385   0.911   2.009  12.730  0.1095 -3.9142  3.2855
13324TIP3   OH261386   1.327   1.580   4.153  0.5113  0.0237  0.1461
13324TIP3    H161387   1.372   1.647   4.102  0.6192 -0.0265  0.1767
13324TIP3    H261388   1.244   1.622   4.178  0.0813 -0.2429 -0.7930
13325TIP3   OH261389   2.906   4.833   1.923  0.0755 -0.2108  0.1763
13325TIP3    H161390   2.813   4.820   1.905 -0.4537  2.5925  0.7159
13325TIP3    H261391   2.933   4.902   1.862  1.4499  0.0838  1.0882
13326TIP3   OH261392   1.557   4.810  14.130 -0.1502  0.2095 -0.3951
13326TIP3    H161393   1.631   4.871  14.124  0.3538 -0.5858 -2.3229
13326TIP3    H261394   1.595   4.729  14.162 -1.0627  1.2528  3.6452
13327TIP3   OH261395   5.231   6.353   0.570  0.3026 -0.1409  0.8629
13327TIP3    H161396   5.246   6.259   0.577  1.0868  0.0408  1.6775
13327TIP3    H261397   5.266   6.377   0.485 -3.2289 -1.2193 -0.9815
13328TIP3   OH261398   6.754   5.992  13.988  0.3574 -0.6629  0.1078
13328TIP3    H161399   6.842   6.029  13.977 -0.4089  0.6275 -2.0555
13328TIP3    H261400   6.709   6.054  14.047  0.4838 -0.5730  0.1108
13329TIP3   OH261401   0.937   5.034   0.463 -0.1031  0.8884  0.5476
13329TIP3    H161402   0.881   5.030   0.386 -0.4210 -1.0499  0.8548
13329TIP3    H261403   1.013   5.085   0.435  1.1724 -2.2033 -2.0129
13330TIP3   OH261404   2.716   1.162  12.931 -0.1939 -0.2150 -0.3032
13330TIP3    H161405   2.642   1.190  12.877  0.2440 -0.1609 -0.8775
13330TIP3    H261406   2.764   1.244  12.950 -1.2641  0.0146  1.5677
13331TIP3   OH261407   5.996   4.078  16.054 -0.0731  0.1514  0.5223
13331TIP3    H161408   5.919   4.134  16.061  2.2662  3.5946 -0.3765
13331TIP3    H261409   6.004   4.059  15.961  0.3297  0.0061  0.5863
13332TIP3   OH261410   0.633   5.721   4.099 -0.1451 -0.2573 -0.1006
13332TIP3    H161411   0.548   5.754   4.130 -0.1997 -1.1739  0.7314
13332TIP3    H261412   0.698   5.768   4.151 -0.1593 -0.0912 -0.2309
13333TIP3   OH261413   6.200   3.149   0.659 -0.2179 -0.2768 -0.0245
13333TIP3    H161414   6.156   3.064   0.662 -0.2542 -0.2233  1.1503
13333TIP3    H261415   6.174   3.192   0.740  2.9558 -0.7188  1.2730
13334TIP3   OH261416   3.784   0.698   5.463 -0.4498  0.0236  0.1793
13334TIP3    H161417   3.767   0.731   5.551 -1.2407 -1.7419  0.7060
13334TIP3    H261418   3.786   0.603   5.472 -0.9774 -0.2065 -1.7837
13335TIP3   OH261419   6.389   1.058  10.879 -0.1754 -0.0798 -1.0373
13335TIP3    H161420   6.372   0.985  10.939 -0.7533  0.4337 -0.5737
13335TIP3    H261421   6.309   1.110  10.881  0.7547  1.3573 -0.2483
13336TIP3   OH261422   4.348   4.085  17.105  0.6986  0.6444  0.0802
13336TIP3    H161423   4.286   4.139  17.155  0.5447  0.1333  0.4399
13336TIP3    H261424   4.339   3.997  17.141 -0.7758 -0.1316 -2.1301
13337TIP3   OH261425   3.341   4.118   4.624  0.3394  0.6862  0.1819
13337TIP3    H161426   3.248   4.112   4.604  0.2936  0.5824  0.4252
13337TIP3    H261427   3.380   4.155   4.545  0.1691  0.2257 -0.1146
13338TIP3   OH261428   3.068   5.665  13.676 -0.2371 -0.4149  0.5653
13338TIP3    H161429   3.031   5.580  13.653 -1.4977 -0.0506  1.1637
13338TIP3    H261430   3.101   5.653  13.765 -0.7881 -0.1798  0.8073
13339TIP3   OH261431   2.185   3.354   1.343  0.0169  0.3720 -0.3729
13339TIP3    H161432   2.214   3.403   1.266 -0.0149  3.0840  1.2687
13339TIP3    H261433   2.100   3.392   1.365  0.8844  0.9425  2.0910
13340TIP3   OH261434   5.421   6.728   3.727  0.0436  0.1583 -0.2030
13340TIP3    H161435   5.447   6.742   3.818 -4.3543  1.1326  0.9958
13340TIP3    H261436   5.457   6.804   3.680  0.1615  0.9765  1.1798
13341TIP3   OH261437   0.644   0.700  15.829  0.0095  0.0876 -0.1574
13341TIP3    H161438   0.614   0.788  15.854  2.6087  0.9655  0.0267
13341TIP3    H261439   0.717   0.716  15.769  0.6717 -1.9564  0.0609
13342TIP3   OH261440   3.791   5.638   3.034 -0.4437  0.2394  0.5062
13342TIP3    H161441   3.758   5.636   3.124  0.4659 -0.2748  0.8334
13342TIP3    H261442   3.712   5.637   2.979 -0.9595 -1.0586  1.2672
13343TIP3   OH261443   4.884   6.098  16.619  0.4025  0.4726 -0.5051
13343TIP3    H161444   4.893   6.140  16.705 -1.6950  1.2406 -0.6364
13343TIP3    H261445   4.810   6.038  16.629  1.4137 -0.9146 -1.2174
13344TIP3   OH261446   4.430   3.147  15.718  0.2057  0.6907  0.3316
13344TIP3    H161447   4.496   3.169  15.783 -1.3420  0.1344  2.1348
13344TIP3    H261448   4.387   3.231  15.699 -0.1184  0.6609  0.9151
13345TIP3   OH261449   5.415   4.593  17.205  0.2865  0.1280 -0.4380
13345TIP3    H161450   5.414   4.676  17.157  1.8379 -0.0367 -0.7832
13345TIP3    H261451   5.484   4.603  17.270  1.5390 -1.4299 -1.4946
13346TIP3   OH261452   1.111   3.967  14.858  0.1243  0.0462 -0.0961
13346TIP3    H161453   1.087   4.059  14.871  2.0497  0.2872  2.2507
13346TIP3    H261454   1.191   3.971  14.805 -0.7648 -0.3734 -1.4836
13347TIP3   OH261455   4.688   0.372   0.641  0.3960  0.3166 -0.7955
13347TIP3    H161456   4.622   0.431   0.605  0.1746  0.1713 -0.6206
13347TIP3    H261457   4.728   0.331   0.564  0.4044  0.5340 -0.9069
13348TIP3   OH261458   1.486   0.098   0.716 -0.1002  1.0609  0.1575
13348TIP3    H161459   1.438   0.130   0.639 -0.3280  0.2106 -0.0561
13348TIP3    H261460   1.555   0.043   0.681 -0.0005  0.9372  0.5440
13349TIP3   OH261461   5.610   1.057   0.895  0.2693  0.1186  0.4831
13349TIP3    H161462   5.595   0.967   0.865  0.5980 -0.3750  1.8036
13349TIP3    H261463   5.705   1.069   0.887  0.4088 -0.1445  1.6672
13350TIP3   OH261464   4.771   2.792   4.541  0.6191  0.8975 -0.9443
13350TIP3    H161465   4.791   2.735   4.615 -1.2113 -1.1298 -1.9285
13350TIP3    H261466   4.844   2.779   4.480  2.2421  2.7503  0.5683
13351TIP3   OH261467   0.530   4.874  14.292  0.1433  0.1831 -0.3564
13351TIP3    H161468   0.533   4.792  14.342  2.2144 -0.8053 -2.0372
13351TIP3    H261469   0.481   4.851  14.213 -0.5975  0.9870 -0.1345
13352TIP3   OH261470   2.722   1.499   2.587 -0.4591 -0.5266  0.1895
13352TIP3    H161471   2.747   1.589   2.606 -1.6932  0.0553 -0.8706
13352TIP3    H261472   2.691   1.464   2.670  0.6607 -0.1892  0.7504
13353TIP3   OH261473   6.530   3.255  17.196  0.3216 -0.3979  0.2828
13353TIP3    H161474   6.486   3.270  17.113  0.9100 -0.8432 -0.1167
13353TIP3    H261475   6.595   3.324  17.202 -0.2601  0.1159  0.7578
13354TIP3   OH261476   1.596   0.984   5.178 -0.4689 -0.4609  0.0279
13354TIP3    H161477   1.530   0.947   5.120  0.9451  0.2524 -2.0996
13354TIP3    H261478   1.651   0.910   5.203 -0.7588 -0.6803  0.0188
13355TIP3   OH261479   4.287   2.938  12.796  0.0437 -0.0076  0.1457
13355TIP3    H161480   4.199   2.916  12.829 -0.2952  0.7342 -0.2568
13355TIP3    H261481   4.346   2.893  12.856 -0.5620  1.5921  1.9962
13356TIP3   OH261482   3.586   1.092  14.195  0.0591 -0.4348  0.0794
13356TIP3    H161483   3.675   1.062  14.212  0.7547  1.4819 -0.0682
13356TIP3    H261484   3.560   1.136  14.276 -0.3652 -0.0818 -0.2443
13357TIP3   OH261485   0.932   5.109  15.534 -0.3800  0.2301 -0.6342
13357TIP3    H161486   0.987   5.185  15.553  0.6929 -0.3515 -1.3887
13357TIP3    H261487   0.880   5.097  15.614  1.6136 -0.0819  0.6422
13358TIP3   OH261488   6.629   0.103   5.881  0.0614  0.3619  0.1996
13358TIP3    H161489   6.636   0.011   5.909 -1.8006  0.0331 -0.3683
13358TIP3    H261490   6.598   0.149   5.958  2.8025  0.8604  1.0459
13359TIP3   OH261491   6.471   1.002  12.368 -0.2685 -0.7897 -0.0073
13359TIP3    H161492   6.475   1.089  12.330  0.0721 -0.3306  1.0636
13359TIP3    H261493   6.468   0.942  12.293  2.2919 -0.0138 -0.7578
13360TIP3   OH261494   1.182   3.894   1.369  0.2091 -0.0970 -0.1856
13360TIP3    H161495   1.233   3.973   1.353 -0.6204  0.1000 -1.9383
13360TIP3    H261496   1.106   3.902   1.311  0.0680 -2.1213 -0.3043
13361TIP3   OH261497   0.809   3.546  13.315  0.1174 -0.0404  0.4396
13361TIP3    H161498   0.824   3.636  13.288  0.2288 -0.3214 -0.4715
13361TIP3    H261499   0.829   3.544  13.409  0.5697  0.7684  0.3580
13362TIP3   OH261500   6.070   5.870  16.274 -0.0125  0.1644  0.0714
13362TIP3    H161501   6.140   5.837  16.217 -0.1531 -0.7421  0.4209
13362TIP3    H261502   5.995   5.814  16.254  0.0705 -0.4518  1.4934
13363TIP3   OH261503   5.265   6.467  10.459 -0.3754 -0.3267  0.1293
13363TIP3    H161504   5.265   6.548  10.408  0.4583 -0.6996 -0.4781
13363TIP3    H261505   5.174   6.454  10.484 -0.7143  0.1325 -0.8387
13364TIP3   OH261506   4.897   3.401  13.840  0.1060  0.2669  0.5017
13364TIP3    H161507   4.909   3.368  13.750  2.3692 -0.4404  1.0220
13364TIP3    H261508   4.856   3.329  13.887 -0.9035  0.5666  0.0855
13365TIP3   OH261509   4.097   1.438  13.612 -0.8446 -0.3545 -0.5282
13365TIP3    H161510   4.010   1.447  13.651 -1.1685 -0.6279 -1.1953
13365TIP3    H261511   4.083   1.389  13.531 -0.3290  1.2553 -1.6151
13366TIP3   OH261512   6.109   2.365  12.456  0.1906  0.1647  0.0696
13366TIP3    H161513   6.097   2.352  12.362  0.5216 -0.2529  0.0789
13366TIP3    H261514   6.186   2.311  12.477 -0.0074  0.0967  0.6148
13367TIP3   OH261515   4.599   4.717   1.447  0.7897 -0.3431 -0.0686
13367TIP3    H161516   4.576   4.806   1.474  2.3126 -0.0256  0.2822
13367TIP3    H261517   4.570   4.710   1.357  2.7653  1.3595 -0.8965
13368TIP3   OH261518   5.736   1.129   3.782  0.3936 -0.0317 -0.1904
13368TIP3    H161519   5.679   1.156   3.853  0.8909  0.0915  0.1603
13368TIP3    H261520   5.774   1.046   3.812  0.8314  0.1718 -0.1885
13369TIP3   OH261521   2.301   0.443  14.964 -0.2777 -0.1382 -0.2390
13369TIP3    H161522   2.262   0.489  14.889 -0.4519  2.2944  1.3058
13369TIP3    H261523   2.389   0.418  14.933 -0.2681  1.0093 -1.1959
13370TIP3   OH261524   3.289   2.526   4.219 -0.0716 -0.3455  0.2414
13370TIP3    H161525   3.287   2.479   4.136 -0.9389  1.2361 -0.6538
13370TIP3    H261526   3.379   2.558   4.227  0.0843 -0.7321  0.0571
13371TIP3   OH261527   0.183   2.890   1.454 -0.5227  0.5004 -0.1946
13371TIP3    H161528   0.185   2.975   1.410  0.7869  0.8233  0.4709
13371TIP3    H261529   0.266   2.885   1.502  0.2015 -1.8897 -1.6068
13372TIP3   OH261530   4.327   5.702   2.970 -0.2502 -0.2479  0.3170
13372TIP3    H161531   4.236   5.693   2.998 -0.3614 -0.6784 -0.1735
13372TIP3    H261532   4.328   5.667   2.881  0.6123 -1.1980  0.6956
13373TIP3   OH261533   3.327   5.150  13.249 -0.0067  0.3021  0.2459
13373TIP3    H161534   3.393   5.208  13.288  1.3134 -1.2141  0.3132
13373TIP3    H261535   3.326   5.175  13.157  2.2509 -1.1192 -0.1912
13374TIP3   OH261536   2.530   6.765   5.617 -0.0845 -0.1244  0.4211
13374TIP3    H161537   2.611   6.761   5.567 -0.0854  0.9463  0.3166
13374TIP3    H261538   2.542   6.841   5.675  0.0132 -1.4784  2.1961
13375TIP3   OH261539   5.364   5.245   2.152 -0.8314  0.3734  0.0067
13375TIP3    H161540   5.400   5.197   2.226 -1.8872  0.8229  0.8361
13375TIP3    H261541   5.429   5.311   2.131  0.6069 -1.3480 -1.0998
13376TIP3   OH261542   6.371   0.128   1.992  0.2054  0.3503  0.0396
13376TIP3    H161543   6.284   0.167   1.988 -0.5211 -1.1881  0.4123
13376TIP3    H261544   6.387   0.093   1.905 -1.4601 -3.3039  1.0975
13377TIP3   OH261545   0.006   5.440  12.298 -0.7217 -0.2314  0.7681
13377TIP3    H161546  -0.035   5.472  12.378  2.0853  2.0753  1.3820
13377TIP3    H261547   0.082   5.497  12.286 -0.9241 -0.6981 -3.4035
13378TIP3   OH261548   0.804   4.527   5.421  0.2901  0.0173  0.0728
13378TIP3    H161549   0.710   4.529   5.440  0.7446  0.4768  2.3314
13378TIP3    H261550   0.838   4.454   5.472  1.4406  0.8887  0.5844
13379TIP3   OH261551   6.006   3.966  12.582  0.4864 -0.1694 -0.1497
13379TIP3    H161552   6.027   3.873  12.577  0.8867 -0.0440 -1.0360
13379TIP3    H261553   6.027   4.000  12.494  1.2719  0.9452  0.4441
13380TIP3   OH261554   4.497   4.661   1.198 -0.2417 -0.2256  0.0352
13380TIP3    H161555   4.526   4.571   1.205  4.2769  1.1828  1.0083
13380TIP3    H261556   4.532   4.691   1.114 -1.4507  0.7627 -0.1431
13381TIP3   OH261557   4.206   0.005  12.463  0.2000  0.4910  0.2228
13381TIP3    H161558   4.266   0.065  12.508 -0.5173  1.9169 -0.6762
13381TIP3    H261559   4.234  -0.082  12.490  1.2476  1.2357  1.5779
13382TIP3   OH261560   0.291   2.407   1.703  0.1781 -0.0928  0.6132
13382TIP3    H161561   0.288   2.454   1.620 -0.9127 -1.3738 -0.0814
13382TIP3    H261562   0.357   2.339   1.690 -0.1140 -0.4011  0.7446
13383TIP3   OH261563   0.560   0.321   0.683 -0.6937 -0.1504 -0.5710
13383TIP3    H161564   0.509   0.367   0.616  0.7255  2.1523 -0.1065
13383TIP3    H261565   0.636   0.288   0.636 -1.5242 -1.7790 -0.8247
13384TIP3   OH261566   0.462   5.963   5.085 -0.9524 -0.8344 -0.3414
13384TIP3    H161567   0.423   6.043   5.049  2.1141  0.0651 -1.7749
13384TIP3    H261568   0.463   5.977   5.180  0.0282  1.0333 -0.6211
13385TIP3   OH261569   2.868   5.142  12.331 -0.3890  0.0040  0.2537
13385TIP3    H161570   2.881   5.081  12.404  1.7717  1.3024  0.9984
13385TIP3    H261571   2.854   5.227  12.373  0.3948  0.6793 -0.8348
13386TIP3   OH261572   5.382   2.889  15.694 -0.5611  0.1797  0.3475
13386TIP3    H161573   5.342   2.943  15.626 -0.1111  0.4397  0.2861
13386TIP3    H261574   5.414   2.952  15.759  0.1560 -0.0002  0.1720
13387TIP3   OH261575   1.750   1.984  14.900 -0.1220  0.1677 -0.0746
13387TIP3    H161576   1.745   2.001  14.994 -1.1963 -0.3806 -0.0236
13387TIP3    H261577   1.816   1.916  14.891 -1.8365 -1.6455  0.5651
13388TIP3   OH261578   4.697   2.630  14.345 -0.5410 -0.4501  0.5946
13388TIP3    H161579   4.771   2.679  14.309  1.3354 -2.1864  1.9577
13388TIP3    H261580   4.709   2.541  14.313 -3.3236 -0.3107 -0.9865
13389TIP3   OH261581   2.484   5.897  15.484 -0.3367 -0.4087 -0.2193
13389TIP3    H161582   2.466   5.931  15.572 -1.4278 -1.7728  0.1038
13389TIP3    H261583   2.405   5.849  15.460  0.4682 -1.1859 -1.3938
13390TIP3   OH261584   6.404   2.043   5.905  0.8899 -0.3257 -0.1687
13390TIP3    H161585   6.499   2.052   5.911  0.8834 -0.8838  0.8527
13390TIP3    H261586   6.375   2.124   5.864  2.0439 -1.2477 -2.9590
13391TIP3   OH261587   5.432   6.312  10.619  0.2161  0.4055  0.2103
13391TIP3    H161588   5.368   6.369  10.576  1.8110  2.6241  0.7271
13391TIP3    H261589   5.503   6.303  10.556  0.5709  0.0600  0.6541
13392TIP3   OH261590   4.897   1.296  10.277 -0.2752 -0.3473 -0.1791
13392TIP3    H161591   4.955   1.316  10.204 -0.0030  0.1784  0.1738
13392TIP3    H261592   4.810   1.318  10.246 -0.2060 -0.4996 -0.4792
13393TIP3   OH261593   1.239   2.128  16.659 -0.4564  0.4304  0.0478
13393TIP3    H161594   1.274   2.140  16.570  0.9482  0.0188  0.5248
13393TIP3    H261595   1.146   2.112  16.646 -0.0477 -0.8910 -1.4592
13394TIP3   OH261596   5.943   3.510   5.657 -0.5999 -0.2103 -0.2292
13394TIP3    H161597   5.917   3.594   5.619  0.3987  0.6132  0.9149
13394TIP3    H261598   5.909   3.445   5.595  0.3923  1.0931 -2.1827
13395TIP3   OH261599   3.677   4.339   1.117 -0.0445  0.5442 -0.5401
13395TIP3    H161600   3.658   4.267   1.177  1.3364 -0.9506 -1.8757
13395TIP3    H261601   3.764   4.369   1.143  0.4902 -0.0064 -1.6916
13396TIP3   OH261602   2.230   0.897   5.446 -0.0388 -0.3020  0.0296
13396TIP3    H161603   2.301   0.958   5.424  0.7345 -0.4813  1.9004
13396TIP3    H261604   2.270   0.811   5.435 -0.1043 -0.4072  0.5904
13397TIP3   OH261605   6.308   4.319  16.753  0.6095  0.1280 -0.3289
13397TIP3    H161606   6.365   4.244  16.737  0.0440 -0.0998 -1.3073
13397TIP3    H261607   6.366   4.395  16.740  0.8613 -0.1140 -0.6470
13398TIP3   OH261608   0.215   0.884   4.187 -0.1241  0.4540  0.0252
13398TIP3    H161609   0.218   0.790   4.173  0.2661  0.5448 -0.5320
13398TIP3    H261610   0.168   0.895   4.270  0.9368 -0.2972  0.7555
13399TIP3   OH261611   2.908   5.733   4.451 -0.0680  0.1829 -0.6762
13399TIP3    H161612   2.937   5.716   4.540 -0.9175  0.7524 -0.2886
13399TIP3    H261613   2.953   5.667   4.398  0.1433 -0.3956  0.2229
13400TIP3   OH261614   1.125   1.085  13.484  0.1335 -0.6002  0.1883
13400TIP3    H161615   1.138   1.163  13.539  0.8416  0.5895 -1.6223
13400TIP3    H261616   1.185   1.020  13.522  1.3172  0.5056  0.2567
13401TIP3   OH261617   5.814   2.103   0.746  0.6968  0.0201 -0.6145
13401TIP3    H161618   5.782   2.041   0.680 -0.9488  0.8947 -0.6783
13401TIP3    H261619   5.824   2.050   0.826  0.2786 -0.5455 -0.9294
13402TIP3   OH261620   4.472   4.243   3.257 -0.3925  0.0817  0.0039
13402TIP3    H161621   4.513   4.278   3.178  0.3755 -0.8810 -0.0290
13402TIP3    H261622   4.544   4.224   3.316 -0.8444 -0.8355  0.2686
13403TIP3   OH261623   2.415   0.533  15.982 -0.4677  0.1303  0.1423
13403TIP3    H161624   2.435   0.590  16.056 -0.6727 -0.0925  0.3696
13403TIP3    H261625   2.349   0.582  15.932 -1.0506 -0.1453  0.6309
13404TIP3   OH261626   3.735   0.540   4.653  0.6310 -0.2754  0.3583
13404TIP3    H161627   3.678   0.466   4.673  1.0527  0.2377  3.7075
13404TIP3    H261628   3.736   0.592   4.733  2.5136  1.9236 -1.0316
13405TIP3   OH261629   5.919   1.180  12.443  0.5107 -0.8091 -0.2780
13405TIP3    H161630   5.965   1.114  12.392 -0.3538 -2.7071  1.3418
13405TIP3    H261631   5.888   1.134  12.521 -1.7110  1.0436  0.0205
13406TIP3   OH261632   5.816   5.312   4.433  0.0761  0.6040 -0.1835
13406TIP3    H161633   5.846   5.390   4.480  0.8672 -0.6377  1.3883
13406TIP3    H261634   5.765   5.347   4.360  0.0583  2.5907  0.7461
13407TIP3   OH261635   3.251   0.880   3.389 -0.4651  0.5327  0.1880
13407TIP3    H161636   3.343   0.879   3.362 -0.6546  0.1900 -0.4464
13407TIP3    H261637   3.202   0.888   3.308 -0.9742  1.7912  0.6061
13408TIP3   OH261638   4.481   4.760  16.339  0.5659  0.1597 -0.2977
13408TIP3    H161639   4.420   4.762  16.413  0.1843 -1.8455 -0.5272
13408TIP3    H261640   4.525   4.845  16.342 -0.1066  0.4641  1.6726
13409TIP3   OH261641   1.979   4.464   4.800 -0.2183 -0.0735  0.4517
13409TIP3    H161642   2.037   4.533   4.831 -1.1724  1.9163 -2.0598
13409TIP3    H261643   1.912   4.509   4.750 -2.6450 -2.5584  1.3518
13410TIP3   OH261644   3.205   5.167  17.088 -0.2216  0.4528 -0.3125
13410TIP3    H161645   3.251   5.234  17.139  0.6135 -0.2850 -0.0870
13410TIP3    H261646   3.162   5.112  17.153 -0.0188  0.1312 -0.4475
13411TIP3   OH261647   2.585   3.781  15.204  0.1606  0.0392 -0.0734
13411TIP3    H161648   2.534   3.823  15.273 -1.0549 -0.3646 -0.7154
13411TIP3    H261649   2.549   3.692  15.199  0.4319 -0.0162 -1.0443
13412TIP3   OH261650   1.320   0.891  14.374  0.3225 -0.2588  0.6170
13412TIP3    H161651   1.393   0.839  14.407  1.6414 -0.1217 -1.9256
13412TIP3    H261652   1.307   0.859  14.284 -0.0380  2.5122 -0.3663
13413TIP3   OH261653   0.085   0.306  12.793  0.2046 -0.0496 -0.5174
13413TIP3    H161654   0.152   0.252  12.752  1.1108  0.9803 -0.4412
13413TIP3    H261655   0.073   0.380  12.734 -1.6848 -0.7681 -1.0717
13414TIP3   OH261656   3.477   2.329  13.611 -0.3461 -0.3505 -0.5793
13414TIP3    H161657   3.495   2.288  13.695 -0.0037  1.0602  0.0564
13414TIP3    H261658   3.499   2.262  13.546  1.1465 -0.8300  0.3913
13415TIP3   OH261659   2.826   5.956   3.411 -0.2103 -0.6393 -0.0870
13415TIP3    H161660   2.888   5.948   3.339  0.1750 -2.2569  0.3935
13415TIP3    H261661   2.774   5.875   3.407 -0.4220 -0.5789  1.2301
13416TIP3   OH261662   1.801   4.821   0.975  0.2168  0.3681  0.1953
13416TIP3    H161663   1.712   4.819   1.010 -0.2961  0.2958 -1.0832
13416TIP3    H261664   1.813   4.735   0.934  1.0874  0.1598  0.8624
13417TIP3   OH261665   5.620   1.895   4.198 -0.1975 -0.3693 -0.2202
13417TIP3    H161666   5.591   1.804   4.211  1.2683 -1.0866 -1.7422
13417TIP3    H261667   5.538   1.945   4.191 -1.0157 -1.4404  1.4301
13418TIP3   OH261668   1.236   3.025   5.132  0.1124 -0.1376 -0.2708
13418TIP3    H161669   1.269   3.115   5.122 -0.1871  0.1174  0.8904
13418TIP3    H261670   1.254   3.004   5.224  0.7993 -1.5220 -0.7169
13419TIP3   OH261671   5.936   6.781  10.930  0.0599 -0.4215 -0.1093
13419TIP3    H161672   5.847   6.758  10.903 -0.2556 -1.9530  1.9999
13419TIP3    H261673   5.990   6.761  10.854 -1.2208 -0.8656 -0.9340
13420TIP3   OH261674   4.676   2.364   0.704  0.0309 -0.3725  0.1130
13420TIP3    H161675   4.724   2.420   0.765 -1.1092 -1.0399  1.6645
13420TIP3    H261676   4.609   2.422   0.667  0.3105 -0.1290 -0.0108
13421TIP3   OH261677   3.580   1.638  10.938 -0.2876  0.3086  0.9757
13421TIP3    H161678   3.574   1.552  10.895  2.1835  0.8137 -0.4577
13421TIP3    H261679   3.630   1.621  11.018 -0.2171  0.3281  0.9351
13422TIP3   OH261680   0.935   0.188  16.152 -0.3017  0.2583  0.6764
13422TIP3    H161681   1.005   0.180  16.087  1.5606 -1.1660  2.7887
13422TIP3    H261682   0.952   0.272  16.194  0.1826 -0.1020  1.2101
13423TIP3   OH261683   5.991   5.164   5.464  0.8970 -0.9429 -0.4318
13423TIP3    H161684   5.948   5.078   5.457  0.5579 -0.9148  1.1557
13423TIP3    H261685   5.919   5.226   5.469  1.1326 -0.4310 -2.6360
13424TIP3   OH261686   0.101   5.732  16.845 -0.2049  0.1423  0.2337
13424TIP3    H161687   0.148   5.648  16.840  1.3397  0.9776  0.2629
13424TIP3    H261688   0.065   5.744  16.757  1.5581  0.5417 -0.4615
13425TIP3   OH261689   6.712   0.134   4.358  0.0342  0.2916 -0.3763
13425TIP3    H161690   6.758   0.190   4.421 -0.8913 -0.6987  1.2339
13425TIP3    H261691   6.782   0.088   4.310  0.7513  0.6858  0.2856
13426TIP3   OH261692   5.310   1.861  11.868  0.0932 -0.5296  0.1056
13426TIP3    H161693   5.332   1.828  11.781  2.4806  0.1636  0.4151
13426TIP3    H261694   5.315   1.784  11.925 -0.2645 -0.7484 -0.1552
13427TIP3   OH261695   1.091   5.933   0.071  0.0207  0.2168  0.0243
13427TIP3    H161696   1.022   5.894   0.018  0.5886  2.1601 -2.2294
13427TIP3    H261697   1.171   5.886   0.045 -0.0044 -0.1392  0.5847
13428TIP3   OH261698   2.765   3.395   4.254  0.6669 -0.1076 -0.2506
13428TIP3    H161699   2.692   3.412   4.313  2.1862 -0.6899  1.8572
13428TIP3    H261700   2.815   3.477   4.252  0.1181  0.2113 -1.4911
13429TIP3   OH261701   0.605   5.899  13.561 -0.2325 -0.3196 -0.0500
13429TIP3    H161702   0.532   5.959  13.546 -0.5121 -0.8329 -0.7519
13429TIP3    H261703   0.655   5.901  13.480  0.8090  0.3866  0.5913
13430TIP3   OH261704   6.372   1.007  15.215 -0.4239  0.2574 -0.1114
13430TIP3    H161705   6.449   0.950  15.206 -0.8012  0.1036 -2.7975
13430TIP3    H261706   6.299   0.951  15.189 -1.0448  1.3120 -0.6512
13431TIP3   OH261707   3.522   2.939  10.821  0.0832 -0.3138 -0.3544
13431TIP3    H161708   3.562   2.852  10.817 -1.5080 -1.1344  0.7781
13431TIP3    H261709   3.434   2.923  10.854 -0.1160  1.7725  0.2034
13432TIP3   OH261710   4.319   0.380  11.018 -0.0907  0.3512  0.1647
13432TIP3    H161711   4.264   0.357  11.092  1.6305 -0.7590  1.1403
13432TIP3    H261712   4.352   0.468  11.038  1.5006 -0.5177  1.4174
13433TIP3   OH261713   5.209   6.500  11.480 -0.7961  0.1454  0.8177
13433TIP3    H161714   5.238   6.524  11.568  0.2763  1.3193  0.1563
13433TIP3    H261715   5.174   6.581  11.443  0.9418  0.2277 -0.6741
13434TIP3   OH261716   5.563   2.602  15.371 -0.4042 -0.4708  0.3272
13434TIP3    H161717   5.620   2.645  15.435 -1.7277 -0.7677  1.7305
13434TIP3    H261718   5.592   2.637  15.287 -0.8788  2.5841  1.3592
13435TIP3   OH261719   6.157   4.391   2.955  0.4768  0.1383 -0.1141
13435TIP3    H161720   6.205   4.309   2.942 -0.3348 -0.0946 -1.8483
13435TIP3    H261721   6.183   4.446   2.881 -1.0174  0.4371 -0.4445
13436TIP3   OH261722   2.960   5.620  12.145 -0.2285  0.9831  0.2023
13436TIP3    H161723   2.927   5.530  12.140 -0.5342  1.0091  1.5738
13436TIP3    H261724   2.919   5.656  12.224 -0.3869  2.4434 -0.5420
13437TIP3   OH261725   6.728   1.326   0.907  0.4451 -0.8221  0.2717
13437TIP3    H161726   6.734   1.388   0.980  0.6117 -0.1420 -0.3127
13437TIP3    H261727   6.793   1.259   0.927  2.3228  0.7292 -0.5488
13438TIP3   OH261728   1.879   5.005   5.156  0.4414  0.4742 -0.8462
13438TIP3    H161729   1.921   5.091   5.161 -2.3203  1.8215  0.4587
13438TIP3    H261730   1.828   5.007   5.075  0.5606 -0.0101 -0.9370
13439TIP3   OH261731   3.103   3.250  11.776  0.1393  0.3676 -0.3747
13439TIP3    H161732   3.083   3.328  11.829 -1.0332 -0.0057 -0.2573
13439TIP3    H261733   3.121   3.181  11.840 -2.6501 -0.4433 -0.4157
13440TIP3   OH261734   4.204   2.256   3.002  0.3362  1.4043 -0.0877
13440TIP3    H161735   4.113   2.284   2.997 -0.0901  0.1641  0.6757
13440TIP3    H261736   4.233   2.282   3.089  0.3308  0.6622  0.1380
13441TIP3   OH261737   2.151   1.169  16.752  0.1875  0.0221 -0.2302
13441TIP3    H161738   2.112   1.236  16.696 -1.2458  0.4038  1.2006
13441TIP3    H261739   2.079   1.139  16.808  1.6313 -0.2004  1.5518
13442TIP3   OH261740   6.054   3.617   0.090  0.5497  0.1708 -0.6191
13442TIP3    H161741   6.118   3.623   0.019  0.2137 -0.5355 -0.9863
13442TIP3    H261742   6.049   3.523   0.109  0.2144  0.3059 -0.0536
13443TIP3   OH261743   5.681   5.606  13.232 -0.3152  0.1804 -0.5471
13443TIP3    H161744   5.616   5.625  13.164  1.0502  2.0986 -1.3977
13443TIP3    H261745   5.759   5.579  13.183  0.0339 -0.4692  0.3588
13444TIP3   OH261746   4.726   1.824  13.194 -0.4376  0.2346  0.3895
13444TIP3    H161747   4.818   1.830  13.169 -0.7906  0.9528 -0.8060
13444TIP3    H261748   4.710   1.730  13.205 -0.5114 -0.2465 -3.2094
13445TIP3   OH261749   0.374   6.589   1.015 -0.7348  0.6741 -0.3008
13445TIP3    H161750   0.465   6.567   1.036 -1.5726 -2.2655  0.3356
13445TIP3    H261751   0.374   6.601   0.920  0.2777  0.5174 -0.3257
13446TIP3   OH261752   5.207   5.090  12.471  0.1742 -0.0800 -0.2871
13446TIP3    H161753   5.262   5.166  12.491 -1.7954  0.8664  1.7551
13446TIP3    H261754   5.156   5.116  12.395 -1.0047  0.9470  0.8347
13447TIP3   OH261755   6.172   3.441  13.630 -0.4551  0.2616  0.5032
13447TIP3    H161756   6.093   3.495  13.633  0.1987  1.4476 -2.0371
13447TIP3    H261757   6.148   3.366  13.577  0.2642  0.9165 -0.7740
13448TIP3   OH261758   2.961   3.543  12.388 -0.3132  0.4498 -0.0895
13448TIP3    H161759   2.910   3.511  12.462 -2.8758  5.1070  0.3739
13448TIP3    H261760   3.047   3.561  12.424 -1.1519  1.4082  1.4732
13449TIP3   OH261761   3.770   4.717   5.959 -0.1706  0.0897 -0.3438
13449TIP3    H161762   3.854   4.754   5.930 -0.6695  0.6106 -1.1620
13449TIP3    H261763   3.742   4.774   6.030  0.5402 -0.5480  0.4554
13450TIP3   OH261764   1.463   5.404  11.939  0.3138 -0.7766 -0.3469
13450TIP3    H161765   1.385   5.457  11.959  0.8435  0.1199 -0.6139
13450TIP3    H261766   1.430   5.315  11.930 -0.6571 -0.4308 -0.2658
13451TIP3   OH261767   6.497   2.758   1.867 -0.4497  0.2918 -0.1546
13451TIP3    H161768   6.500   2.854   1.870 -0.8451  0.2782  1.4126
13451TIP3    H261769   6.557   2.730   1.936 -2.6719 -0.5140  1.5215
13452TIP3   OH261770   5.359   3.382  16.733 -0.1401  0.1571  0.1032
13452TIP3    H161771   5.410   3.399  16.812  0.9910  1.3613 -0.8645
13452TIP3    H261772   5.381   3.291  16.710 -2.1601 -0.9510  2.3540
13453TIP3   OH261773   1.030   6.564  16.654 -0.5420  0.4101 -0.6269
13453TIP3    H161774   1.036   6.611  16.571 -0.1717  1.2796 -0.1056
13453TIP3    H261775   0.964   6.613  16.704  0.3499  0.7806  0.1807
13454TIP3   OH261776   1.990   5.482   6.275  0.0594  0.5816  0.0932
13454TIP3    H161777   2.070   5.479   6.222 -0.9295  3.8513 -1.7776
13454TIP3    H261778   2.016   5.530   6.354  0.2754  0.4316  0.1143
13455TIP3   OH261779   5.095   1.619   5.744 -0.5711  0.1706 -0.2351
13455TIP3    H161780   5.131   1.705   5.764  0.4504 -0.1405 -0.7121
13455TIP3    H261781   5.159   1.557   5.779 -0.4177 -0.3852 -1.4515
13456TIP3   OH261782   6.516   2.236  14.311 -0.0529 -0.1554  0.1003
13456TIP3    H161783   6.592   2.230  14.369  0.4431 -0.2748 -0.5627
13456TIP3    H261784   6.545   2.291  14.239 -0.4845 -0.4832 -0.3241
13457TIP3   OH261785   3.695   1.270  15.257 -0.5702  0.4297 -0.1668
13457TIP3    H161786   3.661   1.187  15.221 -0.0794  0.2459 -0.2065
13457TIP3    H261787   3.763   1.297  15.195 -0.2679  0.5198  0.2042
13458TIP3   OH261788   4.608   0.209   1.244 -0.3596 -0.3952 -0.1691
13458TIP3    H161789   4.630   0.151   1.317 -0.7905  0.4915  0.6860
13458TIP3    H261790   4.614   0.154   1.166  1.4174 -1.0320  0.3990
13459TIP3   OH261791   1.530   5.888  16.425  0.0041  0.2340  0.1583
13459TIP3    H161792   1.558   5.980  16.426  0.6378  0.0437  0.6605
13459TIP3    H261793   1.546   5.858  16.514  0.2632 -0.5052 -0.1370
13460TIP3   OH261794   3.281   2.331  16.336  0.3772 -0.0021  0.2721
13460TIP3    H161795   3.352   2.303  16.278  0.5806  1.4361 -0.1906
13460TIP3    H261796   3.204   2.335  16.280  0.5044  1.0554  0.1502
13461TIP3   OH261797   5.229   4.497   0.176  0.0500 -1.3447 -0.1957
13461TIP3    H161798   5.297   4.561   0.157 -0.3428 -1.1437 -0.9283
13461TIP3    H261799   5.167   4.543   0.232 -1.0375 -0.5819 -1.9754
13462TIP3   OH261800   0.492   6.389  13.078 -0.0989 -0.0062 -0.2624
13462TIP3    H161801   0.397   6.396  13.071 -0.3559 -1.3400  1.5811
13462TIP3    H261802   0.516   6.452  13.146  0.3560  0.4019 -0.7932
13463TIP3   OH261803   1.875   3.548  10.753 -0.6785  0.2572 -0.0501
13463TIP3    H161804   1.957   3.577  10.792 -0.4319  1.3414 -1.3195
13463TIP3    H261805   1.807   3.590  10.805 -0.3600  1.4956 -0.6023
13464TIP3   OH261806   4.002   2.175   5.503  0.2176 -0.4113 -0.0947
13464TIP3    H161807   4.008   2.257   5.553  0.2756 -0.8109  0.5675
13464TIP3    H261808   3.927   2.130   5.541 -2.1587  0.9677 -2.9451
13465TIP3   OH261809   2.656   4.120   2.293  0.1505 -0.0519 -0.0095
13465TIP3    H161810   2.728   4.175   2.324 -1.2504  1.1333  1.2183
13465TIP3    H261811   2.651   4.049   2.357 -0.5160  0.5069  0.5645
13466TIP3   OH261812   6.212   5.044   2.302  0.5328 -0.0475 -0.3815
13466TIP3    H161813   6.247   5.024   2.215 -0.1432  0.4904 -0.7784
13466TIP3    H261814   6.237   5.135   2.318 -0.8936  0.4216 -0.7779
13467TIP3   OH261815   3.759   3.667  11.790 -0.1081 -0.6450  0.2167
13467TIP3    H161816   3.714   3.626  11.864  0.7223 -0.7821  0.6572
13467TIP3    H261817   3.713   3.635  11.713 -0.8743 -0.6388  0.6698
13468TIP3   OH261818   5.451   4.176   1.834 -0.4550  0.1838  0.2223
13468TIP3    H161819   5.393   4.101   1.850 -0.1832 -0.4723 -1.6643
13468TIP3    H261820   5.430   4.238   1.904 -2.0358 -0.8608  0.7192
13469TIP3   OH261821   5.050   6.738  11.108 -0.3437 -0.3687 -0.1319
13469TIP3    H161822   5.093   6.653  11.107  1.5999  0.5914 -0.9915
13469TIP3    H261823   5.099   6.789  11.172 -0.4483  0.6109 -0.8127
13470TIP3   OH261824   1.943   0.003   1.097 -0.3396  0.3689 -0.1934
13470TIP3    H161825   1.877   0.055   1.052 -0.5332 -1.5036 -2.1554
13470TIP3    H261826   2.016  -0.002   1.035 -0.3569 -1.7160 -0.0851
13471TIP3   OH261827   2.741   1.431  14.597 -0.5690 -0.0088  0.3017
13471TIP3    H161828   2.833   1.440  14.623 -0.6562 -1.5565  1.1848
13471TIP3    H261829   2.738   1.468  14.508  0.9058  0.0391  0.2539
13472TIP3   OH261830   1.439   1.291   4.487  0.4415  0.2608 -0.0495
13472TIP3    H161831   1.408   1.208   4.523  0.6838 -0.1960 -0.8651
13472TIP3    H261832   1.533   1.291   4.502  0.5120  0.1654 -0.4698
13473TIP3   OH261833   5.947   4.266  11.275  0.2674 -0.6707 -0.2553
13473TIP3    H161834   5.919   4.225  11.193 -0.0723  0.7295 -0.8562
13473TIP3    H261835   5.909   4.212  11.344 -1.7329 -0.2779 -1.0405
13474TIP3   OH261836   1.851   2.829   0.039 -0.1093  0.2709  0.0094
13474TIP3    H161837   1.905   2.855   0.113  0.1808  0.2953 -0.2076
13474TIP3    H261838   1.801   2.755   0.070 -0.2605  0.5142  0.3453
13475TIP3   OH261839   4.460   1.288  15.663 -0.2884 -0.5050  0.7734
13475TIP3    H161840   4.503   1.229  15.601  0.7247  1.0722 -0.0661
13475TIP3    H261841   4.369   1.259  15.665 -0.2108 -0.9392 -1.0433
13476TIP3   OH261842   2.411   4.095   6.522 -0.0297 -0.0030  1.0595
13476TIP3    H161843   2.319   4.099   6.546 -0.4804  0.0364 -0.5922
13476TIP3    H261844   2.441   4.011   6.554 -1.6588 -1.7358 -1.7478
13477TIP3   OH261845   2.856   4.922  15.868  0.6481 -0.0925 -0.0672
13477TIP3    H161846   2.842   4.897  15.959  0.6862  0.2419  0.0314
13477TIP3    H261847   2.943   4.963  15.868  1.0621 -0.9611 -0.4289
13478TIP3   OH261848   4.783   3.471  13.260 -0.0579 -0.0412 -0.1676
13478TIP3    H161849   4.781   3.530  13.185 -0.1387 -1.2823 -1.1449
13478TIP3    H261850   4.700   3.423  13.255 -0.6987  0.8421  1.5142
13479TIP3   OH261851   6.025   1.603   1.627  0.2061  0.4673 -0.4255
13479TIP3    H161852   6.093   1.600   1.695  1.1586  0.8637 -1.3373
13479TIP3    H261853   6.068   1.568   1.549 -1.6615 -2.4737 -0.2028
13480TIP3   OH261854   6.262   3.754  13.857  0.0314 -0.2391  0.0514
13480TIP3    H161855   6.185   3.728  13.806  0.6282 -0.6899 -0.6329
13480TIP3    H261856   6.253   3.849  13.866 -1.0559 -0.4036  0.7295
13481TIP3   OH261857   2.993   2.149  15.087 -0.4384 -0.0520 -0.1458
13481TIP3    H161858   2.902   2.155  15.060 -0.0656 -1.6572 -1.8228
13481TIP3    H261859   2.996   2.072  15.144 -0.2975  0.5260  0.6371
13482TIP3   OH261860   0.859   4.204   2.865  0.0959  0.0710 -0.3546
13482TIP3    H161861   0.886   4.256   2.790 -1.8562  1.4124 -0.1519
13482TIP3    H261862   0.895   4.251   2.941  2.5031 -1.5539 -0.4204
13483TIP3   OH261863   3.141   2.295   3.251 -0.7043  0.2211  0.3238
13483TIP3    H161864   3.221   2.256   3.287 -0.0949  1.5789  0.4657
13483TIP3    H261865   3.167   2.324   3.164 -1.6997 -1.4565 -0.5592
13484TIP3   OH261866   4.126   1.961   2.344  0.1764 -0.3974 -0.0082
13484TIP3    H161867   4.034   1.990   2.345  0.3897  0.3094 -0.3022
13484TIP3    H261868   4.124   1.874   2.384 -0.9657 -1.4857 -2.3574
13485TIP3   OH261869   5.920   4.257   0.170  0.4089  0.0561  0.4038
13485TIP3    H161870   5.983   4.214   0.228  0.8494 -2.1373 -1.6294
13485TIP3    H261871   5.971   4.284   0.094 -0.7674 -0.1334 -0.4742
13486TIP3   OH261872   3.309   3.788   5.758 -0.3959 -0.0506  0.3363
13486TIP3    H161873   3.270   3.858   5.812  0.5472  1.0442 -0.3747
13486TIP3    H261874   3.275   3.804   5.670  2.6883  1.8101 -0.6090
13487TIP3   OH261875   0.006   5.595   4.884  0.4074  0.0854  0.1011
13487TIP3    H161876  -0.084   5.623   4.867  0.5311 -0.1131 -0.9062
13487TIP3    H261877   0.058   5.675   4.883  0.4756  0.0262 -0.8636
13488TIP3   OH261878   5.790   6.370   3.434  0.1450 -0.4744 -0.5127
13488TIP3    H161879   5.767   6.346   3.524 -0.7403  0.7752 -0.3908
13488TIP3    H261880   5.856   6.439   3.443 -3.8483  3.6381 -0.6432
13489TIP3   OH261881   2.405   5.001   1.402  0.0495 -0.0819  0.3367
13489TIP3    H161882   2.418   4.919   1.451 -2.4267 -1.0924 -0.6083
13489TIP3    H261883   2.348   4.976   1.329 -0.7851  2.5192  0.0712
13490TIP3   OH261884   2.826   2.725  11.110 -0.3848 -0.3052  0.8444
13490TIP3    H161885   2.922   2.723  11.107 -0.4225 -0.0410 -1.1876
13490TIP3    H261886   2.804   2.817  11.100 -0.8586 -0.3961  1.0575
13491TIP3   OH261887   5.627   3.314   1.050 -0.1606 -0.2426  0.7808
13491TIP3    H161888   5.586   3.259   0.983 -1.0357  0.3677  0.8032
13491TIP3    H261889   5.553   3.348   1.101  0.3169  1.4289  0.3982
13492TIP3   OH261890   4.818   6.429   0.048 -0.1347  0.0971 -0.5236
13492TIP3    H161891   4.738   6.474   0.073 -0.8994 -0.5642 -1.7384
13492TIP3    H261892   4.854   6.482  -0.024  1.2968  1.2050  0.9803
13493TIP3   OH261893   0.361   5.489   1.327 -0.2571 -0.8148 -0.1598
13493TIP3    H161894   0.437   5.540   1.299 -0.6972  0.8917  1.6037
13493TIP3    H261895   0.398   5.412   1.371  0.4234 -1.1449 -1.2910
13494TIP3   OH261896   1.824   4.864   1.740 -0.4031  0.2008 -0.4028
13494TIP3    H161897   1.851   4.788   1.792  0.9110  1.3559  0.6532
13494TIP3    H261898   1.823   4.936   1.803 -0.6395  1.2503 -1.5999
13495TIP3   OH261899   6.391   5.874  16.442 -0.5037 -0.5449  0.3606
13495TIP3    H161900   6.385   5.858  16.348 -0.1177 -1.4640  0.4956
13495TIP3    H261901   6.355   5.963  16.453  0.6816  0.0971 -0.8184
13496TIP3   OH261902   3.473   4.949  12.483  0.1176 -0.0351 -0.1311
13496TIP3    H161903   3.384   4.954  12.446 -0.4095  2.6542  1.3472
13496TIP3    H261904   3.531   4.957  12.407 -0.8581 -2.5035 -1.1897
13497TIP3   OH261905   0.276   3.674  14.043 -0.1109  0.1052  0.3720
13497TIP3    H161906   0.256   3.760  14.079 -0.0154  1.0482 -1.7213
13497TIP3    H261907   0.281   3.616  14.119 -1.3260  1.7115  1.7075
13498TIP3   OH261908   4.505   5.232  16.679  0.3196 -1.0436  0.2335
13498TIP3    H161909   4.450   5.159  16.650 -0.1163 -1.0244  1.0145
13498TIP3    H261910   4.444   5.299  16.708  0.7236 -0.3703 -0.4517
13499TIP3   OH261911   3.158   3.649  15.766  0.5755 -0.0216  0.0289
13499TIP3    H161912   3.146   3.564  15.809 -2.2663  0.0576 -0.5211
13499TIP3    H261913   3.072   3.692  15.771  1.8566  2.6790 -0.0314
13500TIP3   OH261914   1.265   1.598   1.792 -0.4618 -0.1680 -0.2476
13500TIP3    H161915   1.242   1.683   1.755  0.5382 -0.0193 -0.5566
13500TIP3    H261916   1.255   1.609   1.886 -0.2969  0.3063 -0.2838
13501TIP3   OH261917   6.151   6.508  15.238  0.3615  0.2428 -0.1898
13501TIP3    H161918   6.095   6.583  15.256 -0.5705 -0.0523 -1.7539
13501TIP3    H261919   6.111   6.436  15.287  0.4754  0.4596  0.2243
13502TIP3   OH261920   5.181   4.816  12.510  0.1400  0.3490 -0.3990
13502TIP3    H161921   5.201   4.908  12.495 -0.2178  0.1971 -1.8329
13502TIP3    H261922   5.086   4.810  12.496  0.2043 -0.2865 -0.5504
13503TIP3   OH261923   4.415   1.254  10.825 -0.1538  0.4156 -0.1124
13503TIP3    H161924   4.409   1.236  10.731 -0.2641 -0.7913  0.1141
13503TIP3    H261925   4.399   1.348  10.833 -1.5064  0.2967 -1.1836
13504TIP3   OH261926   4.824   5.721  11.584  0.2784  0.1948  0.0210
13504TIP3    H161927   4.918   5.734  11.576  0.1657  1.1507  0.2678
13504TIP3    H261928   4.812   5.678  11.668  0.3234  1.8780  0.8964
13505TIP3   OH261929   4.770   5.673  15.071 -0.3171  0.2138  0.4803
13505TIP3    H161930   4.846   5.729  15.056 -0.1603  0.3379  1.7499
13505TIP3    H261931   4.698   5.734  15.090  0.3200 -0.0271  4.0280
13506TIP3   OH261932   5.773   5.491   0.313  0.1615 -0.1255  0.2545
13506TIP3    H161933   5.795   5.526   0.227  0.5726  0.9499  0.7835
13506TIP3    H261934   5.730   5.407   0.295 -3.1788  1.7998 -1.1469
13507TIP3   OH261935   2.411   3.996   2.139 -0.7423 -0.8535 -0.0449
13507TIP3    H161936   2.498   4.019   2.171 -0.8485 -0.2476 -0.1965
13507TIP3    H261937   2.416   3.901   2.125 -0.1904 -0.8649  0.1991
13508TIP3   OH261938   4.039   2.616   3.307  0.0085 -0.3599  0.1288
13508TIP3    H161939   4.082   2.650   3.229 -1.5591 -1.3593 -1.2116
13508TIP3    H261940   3.977   2.684   3.332  1.9209  0.8377  1.7314
13509TIP3   OH261941   5.094   0.504  13.379 -0.0534  0.0139 -0.1121
13509TIP3    H161942   5.152   0.554  13.437 -0.1953 -0.1300  0.1530
13509TIP3    H261943   5.142   0.500  13.296  0.7489 -0.9227  0.3859
13510TIP3   OH261944   3.216   5.101  15.252 -0.4313 -0.8537 -0.7386
13510TIP3    H161945   3.261   5.172  15.297 -0.6036 -0.9414 -0.4296
13510TIP3    H261946   3.226   5.025  15.309  0.3526 -1.2524 -1.4043
13511TIP3   OH261947   2.019   3.180  13.180  0.4276  0.3454 -0.4523
13511TIP3    H161948   2.062   3.137  13.106  0.1822  1.3492 -1.1980
13511TIP3    H261949   2.091   3.200  13.240  0.5753 -0.8346 -0.2336
13512TIP3   OH261950   5.521   4.820   4.691  0.3893 -0.6679 -0.1291
13512TIP3    H161951   5.506   4.874   4.613 -1.0642  1.1822  1.3916
13512TIP3    H261952   5.611   4.840   4.717  0.5912 -0.6411 -0.8486
13513TIP3   OH261953   0.140   6.138   5.947  0.0944 -0.0067  0.0125
13513TIP3    H161954   0.100   6.202   6.006  0.7192 -0.1996  0.6530
13513TIP3    H261955   0.068   6.107   5.892 -0.8157 -1.0324  1.7574
13514TIP3   OH261956   3.681   2.026   6.175  0.2980 -0.1840  0.2645
13514TIP3    H161957   3.613   1.983   6.227 -0.5702 -0.0361 -0.7337
13514TIP3    H261958   3.762   1.984   6.203 -0.3361 -1.2017  0.6084
13515TIP3   OH261959   5.781   0.599  13.329  0.0402  0.3391 -0.1692
13515TIP3    H161960   5.831   0.672  13.365 -0.0259  0.6769 -0.7572
13515TIP3    H261961   5.839   0.558  13.265 -0.0410  0.0667 -0.0723
13516TIP3   OH261962   3.930   3.450  17.023  0.1401 -0.8474  0.2617
13516TIP3    H161963   3.843   3.488  17.023  0.3504 -0.3625 -0.0674
13516TIP3    H261964   3.954   3.444  17.115  0.7321  1.2563  0.2508
13517TIP3   OH261965   6.125   4.417  14.099 -0.1286 -0.3962 -0.7401
13517TIP3    H161966   6.078   4.335  14.086  2.1386 -1.6932 -0.9628
13517TIP3    H261967   6.193   4.397  14.162 -1.6812  2.2060  1.9063
13518TIP3   OH261968   1.127   4.337  11.683 -0.1627  0.5425 -0.1971
13518TIP3    H161969   1.054   4.316  11.624 -1.1063 -0.4107  1.2937
13518TIP3    H261970   1.174   4.255  11.693 -0.0456  0.6836  0.4415
13519TIP3   OH261971   1.085   3.179   1.308  0.3926  0.3746  0.4412
13519TIP3    H161972   1.010   3.125   1.330 -0.3871  1.2641 -0.0037
13519TIP3    H261973   1.056   3.269   1.324  1.1711  0.7669 -0.2871
13520TIP3   OH261974   3.484   4.380   2.049 -0.3778 -0.4795 -0.4266
13520TIP3    H161975   3.488   4.318   2.121  1.1463 -1.0843 -1.0128
13520TIP3    H261976   3.397   4.421   2.057 -0.5094 -1.0594  1.2896
13521TIP3   OH261977   3.011   3.090   4.374  0.4927 -0.5613 -0.2189
13521TIP3    H161978   3.041   3.169   4.418  0.3868 -0.6404 -0.0064
13521TIP3    H261979   2.967   3.121   4.295 -1.8666 -0.2673  1.1629
13522TIP3   OH261980   6.112   2.273   4.356 -0.0402  0.0989 -0.3798
13522TIP3    H161981   6.033   2.286   4.408  0.5697  0.8674  0.3755
13522TIP3    H261982   6.090   2.304   4.269 -0.4473  0.6722 -0.0721
13523TIP3   OH261983   4.712   1.269  11.565  0.0906 -0.3228 -0.3487
13523TIP3    H161984   4.628   1.300  11.599  0.0786 -0.6009 -0.1226
13523TIP3    H261985   4.759   1.349  11.541 -0.9250 -0.2286 -2.1152
13524TIP3   OH261986   5.125   5.139  11.219  0.1118 -0.3680 -0.4798
13524TIP3    H161987   5.061   5.187  11.272 -0.3955 -1.0394 -0.4744
13524TIP3    H261988   5.112   5.172  11.130  1.6300  1.4672 -0.0528
13525TIP3   OH261989   0.398   3.994  13.798  0.0920  0.4811  0.6356
13525TIP3    H161990   0.474   3.952  13.757  1.2871  1.5933  1.6720
13525TIP3    H261991   0.394   4.080  13.756 -0.6872  0.3631  0.4744
13526TIP3   OH261992   4.033   1.946   5.119  0.1728  0.1615 -0.1908
13526TIP3    H161993   4.104   1.991   5.072  1.2836 -1.1396  0.2356
13526TIP3    H261994   4.055   1.853   5.113 -0.6430 -0.1467  1.3393
13527TIP3   OH261995   2.339   3.246  12.663  0.1746  0.1664  0.0590
13527TIP3    H161996   2.254   3.216  12.631  0.4983  2.5810 -3.2865
13527TIP3    H261997   2.397   3.172  12.648 -0.5663 -0.1772 -1.2464
13528TIP3   OH261998   1.121   1.300  11.160  0.5395  0.0867  0.0576
13528TIP3    H161999   1.116   1.316  11.065 -0.2904  0.5762  0.1793
13528TIP3    H262000   1.033   1.269  11.183  0.4556  0.8883  0.8307
13529TIP3   OH262001   0.160   6.082   0.257 -0.2362 -0.0437 -0.0870
13529TIP3    H162002   0.140   5.989   0.249  0.8660 -0.2261 -0.8381
13529TIP3    H262003   0.136   6.120   0.173 -0.1687  0.2498  0.0229
13530TIP3   OH262004   6.482   1.322   4.632  0.0915  0.7143  0.1132
13530TIP3    H162005   6.548   1.298   4.697  0.6624 -0.5009 -0.8802
13530TIP3    H262006   6.531   1.372   4.567 -0.0595  0.2458 -0.3678
13531TIP3   OH262007   2.927   4.412  12.793  0.6528 -0.1681 -0.5220
13531TIP3    H162008   2.997   4.419  12.729  0.0046 -1.0397 -1.3418
13531TIP3    H262009   2.963   4.356  12.863  1.0892  0.1365 -0.5054
13532TIP3   OH262010   6.330   3.028   5.537 -1.2260 -0.2793  0.2506
13532TIP3    H162011   6.323   3.023   5.442  0.6137 -1.1324  0.1529
13532TIP3    H262012   6.312   2.939   5.568  0.2329 -0.4742  0.5580
13533TIP3   OH262013   3.307   4.845  11.699  0.0022  1.1464  0.5121
13533TIP3    H162014   3.401   4.847  11.718 -0.2049  1.4035  1.5325
13533TIP3    H262015   3.286   4.935  11.672  0.3621  0.7057 -1.3126
13534TIP3   OH262016   2.661   1.892  10.721  0.5634 -0.0606  0.0577
13534TIP3    H162017   2.671   1.912  10.814  0.4937 -0.8958  0.2570
13534TIP3    H262018   2.632   1.974  10.681 -1.4402 -0.2081  1.1148
13535TIP3   OH262019   3.039   5.098  11.973 -0.5874  0.7500  0.0078
13535TIP3    H162020   3.086   5.024  12.011  0.6996  1.3653 -0.3524
13535TIP3    H262021   3.034   5.078  11.879  0.9769  1.7496 -0.3046
13536TIP3   OH262022   5.171   5.640  15.607 -0.4838 -0.3786  0.6330
13536TIP3    H162023   5.099   5.700  15.587  2.3476  3.3705  1.1806
13536TIP3    H262024   5.149   5.604  15.693 -1.6591  0.7848  0.8282
13537TIP3   OH262025   1.592   5.340   0.499  0.2025  0.0617 -0.3968
13537TIP3    H162026   1.632   5.329   0.413 -0.2933 -1.5071 -0.4384
13537TIP3    H262027   1.652   5.397   0.547  0.3544  1.1495 -1.8582
13538TIP3   OH262028   5.608   2.086   5.775  0.4557  0.1880  0.0378
13538TIP3    H162029   5.542   2.040   5.722  0.5901  1.2788 -1.0970
13538TIP3    H262030   5.598   2.178   5.751 -1.2235  1.0503  3.8524
13539TIP3   OH262031   4.995   4.976   4.728  0.1150  0.4611  0.8851
13539TIP3    H162032   5.057   4.995   4.799  0.7640 -0.3048  0.5375
13539TIP3    H262033   5.043   4.916   4.670  0.2328  2.4414 -1.1147
13540TIP3   OH262034   4.341   1.611  13.151 -0.4892  0.3147  0.3411
13540TIP3    H162035   4.257   1.636  13.114 -0.1556 -0.8860 -1.2986
13540TIP3    H262036   4.398   1.686  13.133 -0.3868 -0.1680 -1.4462
13541TIP3   OH262037   4.077   4.216   3.836  0.0603  0.6065 -0.2665
13541TIP3    H162038   4.029   4.285   3.882  0.9296 -0.2175  1.9354
13541TIP3    H262039   4.127   4.172   3.905  2.3594  0.1233 -2.2113
13542TIP3   OH262040   3.193   5.610  13.936 -0.2619 -0.5209 -0.8316
13542TIP3    H162041   3.186   5.525  13.979 -1.2104  0.1086  0.2952
13542TIP3    H262042   3.267   5.653  13.978  0.6215 -1.0317 -1.8467
13543TIP3   OH262043   2.525   5.808  12.366 -0.2407 -0.0278 -0.0843
13543TIP3    H162044   2.592   5.782  12.429 -0.3874 -1.7197 -0.6061
13543TIP3    H262045   2.562   5.884  12.321  0.5369  0.1955  0.9237
13544TIP3   OH262046   6.718   6.107   5.780 -0.2999  0.6272 -0.6578
13544TIP3    H162047   6.693   6.113   5.688 -0.3414  0.3807 -0.6625
13544TIP3    H262048   6.635   6.092   5.826 -0.5717  2.7461 -0.3702
13545TIP3   OH262049   6.562   6.356   1.334 -0.1887  0.1962 -0.1301
13545TIP3    H162050   6.566   6.438   1.285  1.5564  0.8319  1.0595
13545TIP3    H262051   6.547   6.289   1.267  2.5971  0.9963 -1.6073
13546TIP3   OH262052   4.141   4.164   4.614 -0.4231  0.2321  0.4935
13546TIP3    H162053   4.106   4.106   4.546  0.8897  1.6112 -1.4020
13546TIP3    H262054   4.065   4.214   4.644 -0.9332 -0.0707 -0.2725
13547TIP3   OH262055   1.801   4.370   3.959 -0.3868  0.0777  0.0349
13547TIP3    H162056   1.748   4.302   3.918 -0.5962 -1.0968  2.1900
13547TIP3    H262057   1.883   4.369   3.909 -0.5030 -1.5752 -0.1684
13548TIP3   OH262058   1.475   4.161   2.308 -0.2150 -0.0944 -0.9635
13548TIP3    H162059   1.497   4.204   2.225 -1.8116 -0.2399 -1.4829
13548TIP3    H262060   1.411   4.095   2.284 -1.1989  0.3147  0.4855
13549TIP3   OH262061   5.128   5.978   4.704  0.1812  0.1763  0.1340
13549TIP3    H162062   5.076   6.023   4.637 -1.0273 -3.4733 -1.5264
13549TIP3    H262063   5.216   5.974   4.668  0.5962  2.1830  0.8418
13550TIP3   OH262064   2.724   4.278  11.549  0.0357 -0.0166 -0.3541
13550TIP3    H162065   2.780   4.319  11.615 -0.8048 -0.4811  0.6697
13550TIP3    H262066   2.680   4.351  11.507  1.3431  0.3462 -1.1147
13551TIP3   OH262067   5.836   5.075  15.829 -0.8025  1.0250 -0.1134
13551TIP3    H162068   5.911   5.067  15.770 -0.1579  2.0118  0.5469
13551TIP3    H262069   5.813   5.168  15.827 -0.8304  1.0623  1.0906
13552TIP3   OH262070   1.927   6.175   6.364 -0.5614 -0.0509 -0.1980
13552TIP3    H162071   2.020   6.180   6.344  0.1348 -2.7757  2.0693
13552TIP3    H262072   1.917   6.227   6.444 -0.4560 -1.8943  1.0507
13553TIP3   OH262073   5.102   0.609  14.744 -0.2009 -0.0875  0.5232
13553TIP3    H162074   5.062   0.670  14.806 -1.0378 -1.7732  1.6626
13553TIP3    H262075   5.194   0.606  14.770 -0.4848 -0.5467  1.4872
13554TIP3   OH262076   4.697   0.058  11.590 -0.0905 -0.3250 -0.4304
13554TIP3    H162077   4.696   0.028  11.499 -1.1470 -3.0511  0.4392
13554TIP3    H262078   4.606   0.076  11.610 -0.3378 -2.8960  1.0363
13555TIP3   OH262079   4.828   3.702   4.404 -0.4267 -0.3450 -0.2484
13555TIP3    H162080   4.742   3.697   4.362 -0.3948 -2.6675 -0.1078
13555TIP3    H262081   4.859   3.611   4.407  1.6085  0.3379  0.5911
13556TIP3   OH262082   5.629   3.319   4.831 -0.0272 -0.1961  0.2315
13556TIP3    H162083   5.558   3.260   4.803 -0.1297 -0.3617  0.8321
13556TIP3    H262084   5.621   3.323   4.926  1.7698 -1.5026  0.4714
13557TIP3   OH262085   2.948   3.279  11.091  0.0779  0.2122  0.8959
13557TIP3    H162086   2.857   3.304  11.106 -0.5496 -1.1158 -0.5451
13557TIP3    H262087   2.967   3.308  11.002  0.9201  0.0782  1.0257
13558TIP3   OH262088   3.570   5.095   2.531 -0.2600  0.3697  0.0567
13558TIP3    H162089   3.661   5.104   2.501  0.2729 -0.2803  1.4245
13558TIP3    H262090   3.538   5.017   2.486  0.9970 -1.4512  2.1921
13559TIP3   OH262091   5.641   0.237   3.995 -0.1307 -0.9059  0.3285
13559TIP3    H162092   5.708   0.199   3.939 -0.0807 -1.1609  0.5608
13559TIP3    H262093   5.567   0.176   3.989 -0.5257 -0.3682 -0.3195
13560TIP3   OH262094   1.180   3.805   2.450 -0.5321 -0.0947  0.1508
13560TIP3    H162095   1.170   3.721   2.495  2.0917 -0.2313  0.5589
13560TIP3    H262096   1.099   3.853   2.469 -0.9508 -1.5196  2.0790
13561TIP3   OH262097   0.413   2.153  11.185  0.1801  0.0059  0.2667
13561TIP3    H162098   0.482   2.099  11.146  2.3628  1.1167  2.4293
13561TIP3    H262099   0.424   2.140  11.279 -2.3302  0.5569  0.6658
13562TIP3   OH262100   2.860   6.060   0.463 -0.2556  0.0188 -0.9425
13562TIP3    H162101   2.839   5.974   0.427 -1.3146 -0.3913  0.5898
13562TIP3    H262102   2.887   6.043   0.553  1.9589  1.0646 -1.3763
13563TIP3   OH262103   2.131   2.006  15.101 -0.3056  0.3225 -0.3463
13563TIP3    H162104   2.138   2.101  15.102  0.0886  0.3001 -0.7238
13563TIP3    H262105   2.092   1.985  15.016  1.9058  0.0040 -1.3014
13564TIP3   OH262106   4.620   2.975  14.200 -0.1866 -0.0434 -0.0406
13564TIP3    H162107   4.682   2.908  14.173 -0.9820  0.1090 -2.4081
13564TIP3    H262108   4.664   3.023  14.270  1.6495 -1.0492 -0.4944
13565TIP3   OH262109   6.525   5.315   5.492 -0.6381 -0.1783 -0.1709
13565TIP3    H162110   6.599   5.301   5.433 -1.2627  0.9905 -1.2621
13565TIP3    H262111   6.476   5.234   5.488  0.3460 -0.8084  0.2330
13566TIP3   OH262112   4.620   4.836  11.521  0.3733  0.6460  0.6276
13566TIP3    H162113   4.550   4.835  11.457  0.4513  1.7485  0.5051
13566TIP3    H262114   4.700   4.827  11.470  0.2881 -1.8781  0.8717
13567TIP3   OH262115   5.363   4.579   0.848 -0.3386 -0.4803 -0.6890
13567TIP3    H162116   5.347   4.670   0.822  0.8147  0.3569  1.5068
13567TIP3    H262117   5.458   4.572   0.857 -0.5036 -1.6057  0.2700
13568TIP3   OH262118   0.399   4.899  12.371 -0.8588  0.0682  0.2063
13568TIP3    H162119   0.335   4.828  12.369 -1.4694  0.6136 -2.4124
13568TIP3    H262120   0.414   4.915  12.464 -1.1905 -3.0166  0.8503
13569TIP3   OH262121   3.763   2.193  12.304 -0.4606 -0.4844  0.5075
13569TIP3    H162122   3.846   2.176  12.260 -0.6136 -1.6910  0.6554
13569TIP3    H262123   3.785   2.254  12.375  0.5672 -1.8706  1.4094
13570TIP3   OH262124   6.596   2.390  10.222 -0.2902  0.0541 -0.4211
13570TIP3    H162125   6.592   2.351  10.310  0.9307 -1.8705 -1.1989
13570TIP3    H262126   6.508   2.425  10.209 -0.2909  1.0359  1.8556
13571TIP3   OH262127   0.082   5.921   0.630  0.4814 -0.2452 -0.6194
13571TIP3    H162128   0.087   5.829   0.603  1.6770 -0.1246 -0.8327
13571TIP3    H262129   0.130   5.924   0.713 -1.0003 -0.1262  0.2496
13572TIP3   OH262130   3.634   1.433  14.223 -0.3094  0.0598 -0.2315
13572TIP3    H162131   3.710   1.486  14.197 -0.5066  0.9090  0.8681
13572TIP3    H262132   3.560   1.494  14.218 -0.6446 -0.2897  0.3683
13573TIP3   OH262133   1.854   2.964   0.887 -0.3579  0.3443 -0.0193
13573TIP3    H162134   1.808   3.046   0.906 -0.5182  0.2834 -0.1437
13573TIP3    H262135   1.796   2.917   0.827  0.4043  0.7933 -1.1285
13574TIP3   OH262136   5.934   6.429  16.954 -0.6660 -0.1008 -0.0490
13574TIP3    H162137   5.843   6.425  16.985 -0.6375 -1.9453 -0.1338
13574TIP3    H262138   5.936   6.369  16.880  0.7002 -0.3148  0.1580
13575TIP3   OH262139   5.194   2.648   4.666 -0.0123 -0.2017  0.4615
13575TIP3    H162140   5.115   2.650   4.612 -0.1800 -1.0960  0.6647
13575TIP3    H262141   5.189   2.727   4.719 -0.9201 -0.4027  0.6782
13576TIP3   OH262142   4.018   3.650  11.618  0.6367 -0.4014 -0.4641
13576TIP3    H162143   3.946   3.685  11.565 -0.6224 -0.5659  1.0877
13576TIP3    H262144   3.997   3.676  11.707  1.7913 -1.6489  0.1923
13577TIP3   OH262145   5.135   2.594  15.800  0.0084  0.6421  0.0026
13577TIP3    H162146   5.216   2.545  15.785 -1.1981 -1.2985 -0.3419
13577TIP3    H262147   5.106   2.567  15.888 -0.4402  1.0443 -0.0196
13578TIP3   OH262148   2.953   5.782  15.212 -0.4812 -0.2159  0.2043
13578TIP3    H162149   2.867   5.747  15.237 -0.4873 -0.7860 -0.5865
13578TIP3    H262150   3.011   5.758  15.285 -0.6887 -1.0911  0.0850
13579TIP3   OH262151   5.442   5.456   4.731  0.0571 -0.2823  0.4338
13579TIP3    H162152   5.437   5.541   4.775 -0.2550 -0.3947  0.6184
13579TIP3    H262153   5.535   5.434   4.733  0.5764  1.4821 -2.3483
13580TIP3   OH262154   2.809   4.339  11.020 -0.3950  0.5208 -0.4248
13580TIP3    H162155   2.851   4.383  11.095  1.3559  0.9491 -1.6301
13580TIP3    H262156   2.866   4.264  11.002 -1.6245 -0.4290 -0.4039
13581TIP3   OH262157   1.913   5.282   0.964  0.5535 -0.3703 -0.1550
13581TIP3    H162158   1.973   5.341   1.010 -0.0944 -0.2390  0.5226
13581TIP3    H262159   1.958   5.262   0.882  1.0698  0.5536 -0.1054
13582TIP3   OH262160   3.102   4.479  11.427 -0.4705 -0.0294  0.1216
13582TIP3    H162161   3.072   4.558  11.471  0.9352 -0.1001  1.2374
13582TIP3    H262162   3.125   4.419  11.498 -1.3916 -1.4018 -0.7063
13583TIP3   OH262163   6.345   6.728  16.630 -0.0764 -0.2562 -0.1414
13583TIP3    H162164   6.410   6.776  16.580 -0.5268  1.3614  0.8039
13583TIP3    H262165   6.307   6.666  16.567  0.7396  0.3882 -1.2696
13584TIP3   OH262166   2.261   0.932  16.658  0.3279  0.3381  0.0497
13584TIP3    H162167   2.231   1.015  16.697  0.1894  0.0472  0.5703
13584TIP3    H262168   2.338   0.908  16.710  0.9244  0.6135 -0.6924
13585TIP3   OH262169   5.038   1.126  13.956 -0.4332 -0.0424 -0.1959
13585TIP3    H162170   5.075   1.106  13.871  0.2477  0.0060  0.0850
13585TIP3    H262171   5.114   1.140  14.013 -0.8668  1.8161 -0.0220
13586TIP3   OH262172   5.985   4.696   6.357 -0.2054  0.1245  0.2506
13586TIP3    H162173   5.928   4.677   6.431 -0.5194 -0.5645 -0.1652
13586TIP3    H262174   5.928   4.736   6.292 -0.6846 -2.4960 -0.9971
13587TIP3   OH262175   4.793   1.794  12.331  0.0593 -0.4999  0.3527
13587TIP3    H162176   4.877   1.774  12.288  0.4772  0.6667  0.6117
13587TIP3    H262177   4.802   1.885  12.359 -0.3086 -1.1522  2.6829
13588TIP3   OH262178   3.435   4.831   0.484  0.0525 -0.2384 -0.0773
13588TIP3    H162179   3.463   4.920   0.462 -0.9603 -0.1970 -1.2211
13588TIP3    H262180   3.499   4.774   0.441 -0.8931 -0.1158 -1.6868
13589TIP3   OH262181   0.945   2.016  13.298 -0.1710 -0.2342  0.0412
13589TIP3    H162182   0.948   1.986  13.207 -0.2725  1.1050 -0.4063
13589TIP3    H262183   0.997   2.096  13.299 -0.1444 -0.2536  1.1772
13590TIP3   OH262184   5.935   2.023   4.455  0.2540 -0.0179  0.0301
13590TIP3    H162185   5.957   1.959   4.388 -1.8381 -3.1401  2.1697
13590TIP3    H262186   5.859   2.070   4.419  0.7914  0.1520 -0.8912
13591TIP3   OH262187   4.764   2.387  13.123  0.1049  0.4399 -0.0148
13591TIP3    H162188   4.795   2.457  13.065 -0.2441  1.3372  0.8691
13591TIP3    H262189   4.703   2.430  13.182 -0.4634 -0.7104  0.2462
13592TIP3   OH262190   6.043   0.522  16.667 -0.2306 -0.1217 -0.2128
13592TIP3    H162191   6.025   0.467  16.743  1.3745 -0.4296 -0.0417
13592TIP3    H262192   6.066   0.607  16.703  0.4159 -0.2340 -0.3417
13593TIP3   OH262193   0.274   5.751   4.966  0.1783 -0.3776  0.0571
13593TIP3    H162194   0.300   5.659   4.958  1.1223  0.0413 -1.8880
13593TIP3    H262195   0.313   5.780   5.048 -1.6815 -2.1942  1.6510
13594TIP3   OH262196   1.769   1.114   0.937 -0.2357 -0.3554  0.3934
13594TIP3    H162197   1.746   1.022   0.944  0.2415 -0.6861 -2.0051
13594TIP3    H262198   1.812   1.134   1.020 -2.0013 -1.7843  1.6892
13595TIP3   OH262199   1.322   5.123   0.036  0.3051 -0.0021 -0.0839
13595TIP3    H162200   1.258   5.052   0.038  0.3578 -0.0402  0.5266
13595TIP3    H262201   1.406   5.079   0.022  0.2606  0.0003 -0.3588
13596TIP3   OH262202   0.139   5.640  13.089 -0.0604 -0.0881  0.1288
13596TIP3    H162203   0.231   5.664  13.088 -0.2450  0.6777  1.1440
13596TIP3    H262204   0.134   5.561  13.034  1.0831  0.2332 -0.4375
13597TIP3   OH262205   0.540   1.157   0.048  0.7135  0.4021 -0.2180
13597TIP3    H162206   0.534   1.075   0.096  1.0297 -0.8764 -2.2986
13597TIP3    H262207   0.611   1.143  -0.016 -0.3866  1.6398 -1.7670
13598TIP3   OH262208   4.122   1.069   1.337 -0.1818  1.1544 -0.1752
13598TIP3    H162209   4.044   1.113   1.303 -0.3718  0.2675 -0.9202
13598TIP3    H262210   4.114   0.979   1.306  0.8306  0.9000  0.2715
13599TIP3   OH262211   3.109   5.879  13.113 -0.3164  0.9260  0.2369
13599TIP3    H162212   3.104   5.839  13.026  2.5431  1.5463 -0.2877
13599TIP3    H262213   3.102   5.805  13.173 -0.1082  0.2109 -0.5919
13600TIP3   OH262214   0.979   1.578  11.785 -0.2612 -0.1964  0.2109
13600TIP3    H162215   0.923   1.630  11.728 -0.1815  0.3551  0.6281
13600TIP3    H262216   1.068   1.596  11.754 -0.1074  1.3568  1.5199
13601TIP3   OH262217   0.704   6.652  15.247 -0.6510  0.1811 -0.1144
13601TIP3    H162218   0.794   6.662  15.278 -0.2295 -1.3766 -0.7729
13601TIP3    H262219   0.667   6.740  15.251  1.3432  1.0901 -1.2487
13602TIP3   OH262220   1.159   2.536  16.193  0.0419 -0.5941 -0.3044
13602TIP3    H162221   1.254   2.529  16.194  0.2694  2.0440 -0.5145
13602TIP3    H262222   1.129   2.451  16.158  2.3200 -1.1782 -0.9178
13603TIP3   OH262223   2.649   4.948  14.911 -0.2632  0.3819 -0.4277
13603TIP3    H162224   2.558   4.917  14.912 -0.0310 -0.2683  0.4891
13603TIP3    H262225   2.680   4.925  14.823 -0.4849 -0.8458 -0.1969
13604TIP3   OH262226   5.223   3.154  14.028 -0.1549  0.7156  0.2965
13604TIP3    H162227   5.171   3.193  14.098 -0.9963 -0.6677  0.4587
13604TIP3    H262228   5.222   3.218  13.958 -3.2590  0.1521 -0.2438
13605TIP3   OH262229   2.031   2.456  11.855 -0.5004  0.3535 -0.5150
13605TIP3    H162230   1.995   2.545  11.861 -0.0379  0.5375 -0.3956
13605TIP3    H262231   2.084   2.458  11.775 -0.9140  0.0247 -0.8009
13606TIP3   OH262232   1.122   4.587   4.406  0.0486  0.1332 -0.2211
13606TIP3    H162233   1.063   4.656   4.375  0.5065  0.7899  0.3676
13606TIP3    H262234   1.088   4.507   4.366 -0.7950  0.6218 -0.4848
13607TIP3   OH262235   0.202   1.478  11.155 -0.1698  0.3352  0.1326
13607TIP3    H162236   0.214   1.440  11.242 -1.2729  0.0972  0.1975
13607TIP3    H262237   0.275   1.445  11.103 -1.7907 -2.9591 -0.1747
13608TIP3   OH262238   0.668   0.965   0.415 -0.0221  0.0096 -0.6309
13608TIP3    H162239   0.637   0.919   0.337 -1.9870  1.1627 -0.5555
13608TIP3    H262240   0.742   0.913   0.445 -0.7055 -1.7670 -1.9258
13609TIP3   OH262241   4.572   2.768   3.847  0.0479 -0.0401  0.3843
13609TIP3    H162242   4.566   2.740   3.939  1.2373 -0.7139  0.2716
13609TIP3    H262243   4.528   2.698   3.798 -1.2808  0.7077  0.4993
13610TIP3   OH262244   5.304   4.707   4.598  0.4823  0.3170 -0.3172
13610TIP3    H162245   5.345   4.681   4.516 -0.3477 -0.4205 -0.5007
13610TIP3    H262246   5.371   4.761   4.642  1.1313  0.2605 -1.2155
13611TIP3   OH262247   0.956   3.001   2.717 -0.1562  0.4352  0.4364
13611TIP3    H162248   0.942   3.080   2.770 -0.3596  1.8740 -1.6886
13611TIP3    H262249   0.926   3.026   2.629 -1.4203 -2.4212 -0.0039
13612TIP3   OH262250   1.321   4.966  11.716 -0.0658 -0.7594 -0.0504
13612TIP3    H162251   1.324   4.937  11.625  0.1191  0.3781 -0.4100
13612TIP3    H262252   1.389   5.032  11.723  1.4793 -2.4907  1.5203
13613TIP3   OH262253   2.727   3.035  11.653 -0.2552  0.5495  0.5086
13613TIP3    H162254   2.632   3.033  11.659 -0.2821  2.1270  1.0195
13613TIP3    H262255   2.757   3.045  11.744  0.3734  0.5245  0.3104
13614TIP3   OH262256   5.940   1.927  14.093  0.4010  0.1798 -0.2857
13614TIP3    H162257   6.005   1.945  14.025 -2.3740  2.0158 -2.5723
13614TIP3    H262258   5.953   1.997  14.157 -0.7009  1.8087 -1.8090
13615TIP3   OH262259   0.607   4.794  15.222 -0.0087  0.0598 -0.0435
13615TIP3    H162260   0.513   4.812  15.232  0.6074  2.5927  1.9502
13615TIP3    H262261   0.628   4.735  15.294 -0.4471 -2.2189 -1.7450
13616TIP3   OH262262   5.716   0.584   3.593  0.0813  0.4782  0.2515
13616TIP3    H162263   5.638   0.638   3.582 -0.7902 -0.8526 -0.1961
13616TIP3    H262264   5.710   0.551   3.683  0.5829  1.0700  0.5054
13617TIP3   OH262265   2.323   4.449  14.665 -0.6080  0.2010 -0.2466
13617TIP3    H162266   2.275   4.532  14.664  1.3597  1.3977  0.8787
13617TIP3    H262267   2.328   4.425  14.757 -0.5657 -0.8231 -0.5082
13618TIP3   OH262268   0.806   1.703   3.903  0.5165  0.0428  0.0643
13618TIP3    H162269   0.874   1.684   3.968 -0.4737 -3.6700  0.1151
13618TIP3    H262270   0.751   1.625   3.902 -0.8916  0.9772 -3.5463
13619TIP3   OH262271   3.129   5.585  16.623 -0.2986 -0.3239  0.0346
13619TIP3    H162272   3.153   5.678  16.621  1.6149 -0.7925  0.3523
13619TIP3    H262273   3.148   5.554  16.535  1.1283 -0.8925  0.5235
13620TIP3   OH262274   4.719   4.457   0.626 -0.0491 -0.2278  0.1611
13620TIP3    H162275   4.626   4.460   0.647  0.2741  1.3968  1.4369
13620TIP3    H262276   4.757   4.531   0.673  2.1418 -1.7250  0.8145
13621TIP3   OH262277   3.769   0.105   5.534  0.0834  0.9529  0.4771
13621TIP3    H162278   3.706   0.178   5.539  0.0560  0.9041  0.8789
13621TIP3    H262279   3.735   0.040   5.596  1.0187  1.3019  1.3684
13622TIP3   OH262280   3.022   2.160  16.986  0.3564  0.4530 -0.0620
13622TIP3    H162281   3.066   2.209  17.056  0.8496 -0.3162  0.1699
13622TIP3    H262282   3.015   2.222  16.914 -4.3872  2.8572  2.1847
13623TIP3   OH262283   1.792   6.325  15.911 -0.0667 -0.1236 -0.3280
13623TIP3    H162284   1.871   6.283  15.944 -1.1175 -2.3215 -0.5253
13623TIP3    H262285   1.786   6.407  15.960  2.6322  0.3555 -0.7297
13624TIP3   OH262286   0.811   5.238  12.971 -0.1071 -0.0202  0.5020
13624TIP3    H162287   0.792   5.253  12.878 -0.0310 -2.0015  0.1282
13624TIP3    H262288   0.733   5.194  13.004  1.4133 -3.0284  0.3356
13625TIP3   OH262289   0.657   6.510  14.215  0.2773  0.4419  0.4128
13625TIP3    H162290   0.712   6.571  14.166  1.1621 -0.4742  0.2548
13625TIP3    H262291   0.692   6.512  14.304  0.0650  0.4498  0.4966
13626TIP3   OH262292   1.337   5.123  15.092  0.0219 -0.5100  0.6467
13626TIP3    H162293   1.429   5.107  15.069 -0.2892 -2.1228  0.5046
13626TIP3    H262294   1.287   5.080  15.023 -0.8469 -0.2687  1.1211
13627TIP3   OH262295   3.550   1.829  11.443 -0.2674  0.2883  0.2744
13627TIP3    H162296   3.478   1.770  11.420  0.3369 -0.8495  1.2923
13627TIP3    H262297   3.613   1.818  11.371  1.1086 -2.4303  1.8139
13628TIP3   OH262298   0.327   6.193   1.310 -0.4820  0.2680  0.0230
13628TIP3    H162299   0.357   6.259   1.373  1.1798 -0.0024 -0.4651
13628TIP3    H262300   0.257   6.237   1.262  1.1280  1.9966 -0.8506
13629TIP3   OH262301   1.221   6.640  11.157  0.2992 -0.6220  0.2186
13629TIP3    H162302   1.279   6.566  11.138  2.5756  1.2707 -0.4859
13629TIP3    H262303   1.225   6.649  11.252 -0.4757 -1.7550  0.3754
13630TIP3   OH262304   3.676   1.186  16.232  0.1666  0.0332 -0.0706
13630TIP3    H162305   3.677   1.159  16.324  1.2662 -1.0354 -0.3868
13630TIP3    H262306   3.631   1.270  16.233 -0.3299 -0.2233  1.3750
13631TIP3   OH262307   2.716   6.697  17.145 -0.3500  0.1665  0.5838
13631TIP3    H162308   2.787   6.761  17.155 -0.6038  0.3788  1.0956
13631TIP3    H262309   2.637   6.751  17.138 -0.3573 -0.0397 -1.0307
13632TIP3   OH262310   4.774   6.731   5.060  0.3067  0.3450  0.1898
13632TIP3    H162311   4.802   6.798   4.998 -1.1467  1.5976  0.8549
13632TIP3    H262312   4.697   6.768   5.103 -1.6799 -2.4980 -0.7613
13633TIP3   OH262313   5.418   6.110   1.852  0.8809 -0.1845  0.1819
13633TIP3    H162314   5.499   6.106   1.903 -0.3150 -1.5917  2.0580
13633TIP3    H262315   5.367   6.179   1.895  0.6559 -0.0454 -0.3153
13634TIP3   OH262316   0.168   1.687   1.720  0.0079  0.0973  0.2772
13634TIP3    H162317   0.236   1.656   1.781  1.6931  0.1754 -1.5081
13634TIP3    H262318   0.217   1.717   1.643 -2.0153  1.0489 -0.6757
13635TIP3   OH262319   5.096   5.325  16.706  0.4299 -0.0727 -0.4556
13635TIP3    H162320   5.055   5.331  16.792  1.9693 -0.4292  0.3154
13635TIP3    H262321   5.131   5.236  16.702 -0.6853 -0.4785 -1.9492
13636TIP3   OH262322   1.797   4.642   2.666  0.1990  0.7417 -0.0599
13636TIP3    H162323   1.818   4.604   2.580 -2.4757  0.8152 -0.7830
13636TIP3    H262324   1.805   4.736   2.652  0.7755  0.7135  0.0622
13637TIP3   OH262325   5.509   6.739   4.905  0.2549  0.0945 -0.4983
13637TIP3    H162326   5.571   6.808   4.930  1.3282 -0.9135 -0.3695
13637TIP3    H262327   5.538   6.712   4.818  0.1062 -0.5297 -0.3524
13638TIP3   OH262328   4.152   3.826  16.031  0.6540 -0.0996 -0.4657
13638TIP3    H162329   4.163   3.881  15.953  0.1417  1.2861  0.4250
13638TIP3    H262330   4.089   3.759  16.004  1.5999 -0.5246 -1.6927
13639TIP3   OH262331   4.653   4.403   4.173 -0.4312  0.3706  0.1839
13639TIP3    H162332   4.704   4.395   4.092 -3.7584  0.3502 -1.9879
13639TIP3    H262333   4.645   4.497   4.186 -0.5753  0.3755  0.0590
13640TIP3   OH262334   2.863   2.762   4.109 -0.2897  0.0462 -0.5119
13640TIP3    H162335   2.938   2.809   4.071 -0.8500  0.5984 -0.9629
13640TIP3    H262336   2.864   2.786   4.202 -0.8185  1.3185 -0.8162
13641TIP3   OH262337   4.474   4.673  14.077 -0.0114  0.8590  0.3949
13641TIP3    H162338   4.568   4.692  14.086  0.0659  0.7007 -0.0543
13641TIP3    H262339   4.460   4.597  14.134  0.0564  1.1270  0.7639
13642TIP3   OH262340   6.104   3.269  15.204 -0.0731  0.1422  0.0114
13642TIP3    H162341   6.063   3.332  15.263  1.3347  0.7264  0.3892
13642TIP3    H262342   6.186   3.244  15.247 -0.1205 -1.1663 -0.6192
13643TIP3   OH262343   0.237   6.485   6.131 -0.3720  0.2411 -0.7184
13643TIP3    H162344   0.158   6.431   6.136 -1.5338  2.0392  0.9498
13643TIP3    H262345   0.308   6.425   6.150 -1.4747 -1.0853 -0.6640
13644TIP3   OH262346   1.758   1.994   0.610  0.0434 -0.0523  0.4109
13644TIP3    H162347   1.754   2.080   0.652 -0.0889  0.5721 -0.8374
13644TIP3    H262348   1.667   1.964   0.607  0.1033 -0.2832  0.9514
13645TIP3   OH262349   0.648   6.666   3.970  0.1401 -0.3521  0.0335
13645TIP3    H162350   0.723   6.689   4.025 -0.0061 -2.0937  1.0227
13645TIP3    H262351   0.682   6.668   3.881  0.6287  1.5804  0.2352
13646TIP3   OH262352   5.884   6.299  14.966  0.3701 -0.0445  0.3011
13646TIP3    H162353   5.818   6.229  14.962  0.1732  0.1381  0.3303
13646TIP3    H262354   5.832   6.380  14.971  0.5902  0.1339 -0.2504
13647TIP3   OH262355   4.419   2.702  17.061  0.1106  0.0435  0.6597
13647TIP3    H162356   4.362   2.627  17.045 -1.2499  0.6458  2.5727
13647TIP3    H262357   4.508   2.667  17.051 -0.5216 -1.6777  1.0027
13648TIP3   OH262358   5.279   1.158   3.016  0.1591  0.3719  0.3035
13648TIP3    H162359   5.348   1.224   3.003  0.9364 -0.6249 -0.7401
13648TIP3    H262360   5.325   1.081   3.047 -0.4879 -0.2951 -0.3689
13649TIP3   OH262361   1.284   1.099   5.037 -0.7842  0.5245 -0.3937
13649TIP3    H162362   1.328   1.127   4.957 -0.0997 -0.4856 -0.3928
13649TIP3    H262363   1.331   1.019   5.063 -2.3221 -0.3118 -0.1334
13650TIP3   OH262364   5.302   0.020   1.316  0.1098  0.0961  0.3519
13650TIP3    H162365   5.263   0.025   1.228  0.3845  1.3039  0.2842
13650TIP3    H262366   5.380  -0.034   1.305  0.6853  1.0645 -0.3591
13651TIP3   OH262367   6.779   2.138   0.173 -0.6975 -0.7200  0.2268
13651TIP3    H162368   6.807   2.073   0.108 -1.0692 -2.1902  1.4871
13651TIP3    H262369   6.847   2.205   0.171 -1.2727 -0.1518 -2.4713
13652TIP3   OH262370   4.205   0.761   5.420 -0.2668  0.5726 -0.4625
13652TIP3    H162371   4.153   0.816   5.362  0.1817  0.9350 -0.5254
13652TIP3    H262372   4.192   0.798   5.507 -1.0214 -0.0336 -0.3098
13653TIP3   OH262373   2.355   6.057   5.935 -0.1649  0.4448  0.3826
13653TIP3    H162374   2.364   6.136   5.988 -1.5686  1.2605 -0.5398
13653TIP3    H262375   2.265   6.027   5.952  0.2690 -0.8023  0.5179
13654TIP3   OH262376   1.861   4.152   2.882 -0.0043  0.3183 -0.0440
13654TIP3    H162377   1.827   4.152   2.792  0.8080  0.9408 -0.3536
13654TIP3    H262378   1.796   4.201   2.932  0.2410  1.1772 -0.5620
13655TIP3   OH262379   4.541   2.805  15.041  0.3564 -0.4392  0.0687
13655TIP3    H162380   4.510   2.895  15.045  2.8618  0.5148 -0.6635
13655TIP3    H262381   4.463   2.751  15.052 -1.0741  1.8227  1.2587
13656TIP3   OH262382   4.747   0.916  12.294  0.2783 -0.4543 -0.3582
13656TIP3    H162383   4.666   0.928  12.243 -0.0304  0.7884  0.3840
13656TIP3    H262384   4.730   0.839  12.348 -0.0606 -0.7432 -0.8692
13657TIP3   OH262385   2.320   3.929   2.881 -0.8180  0.1847 -0.3088
13657TIP3    H162386   2.269   3.986   2.823  0.1923  0.9340 -0.4686
13657TIP3    H262387   2.256   3.895   2.943 -2.1552 -1.4746 -2.4843
13658TIP3   OH262388   5.818   6.126   4.133 -0.1368  0.5831 -0.0760
13658TIP3    H162389   5.908   6.134   4.101 -0.2051  1.7142  0.0100
13658TIP3    H262390   5.819   6.171   4.217 -0.5301 -0.3471  0.4332
13659TIP3   OH262391   5.023   0.235  14.099  0.4736  0.2408  0.2260
13659TIP3    H162392   5.016   0.318  14.147  0.8822 -0.6001  1.7834
13659TIP3    H262393   5.090   0.252  14.033  1.6028  0.7465  1.4520
13660TIP3   OH262394   6.664   6.556  13.399  0.8993 -0.3459  0.5737
13660TIP3    H162395   6.634   6.515  13.480  0.2210 -3.2425 -1.0789
13660TIP3    H262396   6.616   6.511  13.330  3.4795  0.1472 -1.6331
13661TIP3   OH262397   0.741   5.247  16.018 -0.4543 -0.1874  0.2968
13661TIP3    H162398   0.674   5.219  16.080  0.1084  2.0314  1.9619
13661TIP3    H262399   0.824   5.225  16.060 -0.0397  2.6469  1.0039
13662TIP3   OH262400   6.752   5.119   2.030  0.3778 -0.1597  0.0841
13662TIP3    H162401   6.771   5.210   2.008 -2.4443  0.5702  0.4570
13662TIP3    H262402   6.805   5.068   1.968  0.6529  1.7337 -1.3055
13663TIP3   OH262403   6.744   6.512   3.865 -0.0995  0.0299 -0.2477
13663TIP3    H162404   6.680   6.564   3.913 -2.1745 -1.1576 -1.6504
13663TIP3    H262405   6.802   6.576   3.825 -1.0761  1.1665  0.1295
13664TIP3   OH262406   2.855   0.017  11.328  0.1099  0.0729  0.8862
13664TIP3    H162407   2.921  -0.029  11.380  1.2865  1.0725  0.2956
13664TIP3    H262408   2.797  -0.053  11.296  0.3155 -0.7080  2.1988
13665TIP3   OH262409   0.642   5.644  12.270  0.5390  0.5103  0.8472
13665TIP3    H162410   0.560   5.677  12.305  0.7391  1.4969  0.4007
13665TIP3    H262411   0.706   5.661  12.338  0.4975  0.3357  0.9301
13666TIP3   OH262412   3.047   4.591   4.661 -0.3425  0.9435  0.3533
13666TIP3    H162413   3.014   4.664   4.714 -0.2782 -0.2133  2.0097
13666TIP3    H262414   3.127   4.564   4.705 -0.5338 -0.3460 -0.0840
13667TIP3   OH262415   0.879   3.951  12.114  0.0152 -0.1667 -0.4283
13667TIP3    H162416   0.810   3.992  12.062 -0.4512 -0.6081 -0.1668
13667TIP3    H262417   0.876   3.996  12.199 -1.6294 -1.8376  0.4470
13668TIP3   OH262418   5.011   1.393  16.754 -0.0427  0.1183 -0.7721
13668TIP3    H162419   5.091   1.362  16.711  2.5845  3.6151  1.3036
13668TIP3    H262420   4.955   1.422  16.682  1.7300  0.2253 -2.1476
13669TIP3   OH262421   4.109   3.738   1.690  0.3132 -0.2584 -0.1955
13669TIP3    H162422   4.088   3.660   1.639 -1.1805  1.0807 -1.6707
13669TIP3    H262423   4.196   3.720   1.726  0.9656 -1.6705 -2.3631
13670TIP3   OH262424   1.291   4.947  12.851 -0.0380  0.0341 -0.4194
13670TIP3    H162425   1.385   4.966  12.847  0.4376 -1.8406  1.0242
13670TIP3    H262426   1.258   4.970  12.765  1.3086  2.9058 -0.2151
13671TIP3   OH262427   1.321   4.844  15.272 -0.2173 -0.2789  0.0652
13671TIP3    H162428   1.252   4.859  15.207 -0.0828 -0.5045 -0.1293
13671TIP3    H262429   1.291   4.892  15.350 -0.2038  0.2969 -0.2762
13672TIP3   OH262430   1.480   4.543  15.796 -0.5332 -0.0490  0.3101
13672TIP3    H162431   1.493   4.613  15.732 -1.7432 -0.4469 -0.3926
13672TIP3    H262432   1.562   4.540  15.845  0.0850  0.8618 -0.6328
13673TIP3   OH262433   6.570   3.264  11.211 -0.0946  0.8023  0.1245
13673TIP3    H162434   6.483   3.304  11.213  0.5984  2.3259  0.4140
13673TIP3    H262435   6.591   3.259  11.117 -0.7674 -0.1724  0.0247
13674TIP3   OH262436   4.727   5.968   3.120  0.0373 -0.2664 -0.0901
13674TIP3    H162437   4.697   5.878   3.111 -1.3036  0.1727 -0.0433
13674TIP3    H262438   4.814   5.960   3.159 -0.9418 -1.4726  1.9427
13675TIP3   OH262439   5.136   4.978  12.069  0.1180  0.2804  0.4678
13675TIP3    H162440   5.196   4.946  12.137 -0.3253 -0.6357  0.4304
13675TIP3    H262441   5.092   5.052  12.110 -0.6554 -0.7038  1.4376
13676TIP3   OH262442   3.505   5.892  15.359 -0.2858  0.2094 -0.3638
13676TIP3    H162443   3.415   5.861  15.366 -0.6523  1.1801 -0.6565
13676TIP3    H262444   3.557   5.823  15.398 -1.4184  0.9321  2.5577
13677TIP3   OH262445   4.364   5.718   2.644 -0.2657  0.5327 -0.2394
13677TIP3    H162446   4.412   5.789   2.687  0.4808 -0.0066 -0.1746
13677TIP3    H262447   4.417   5.640   2.661  0.2290  0.3648 -2.4369
13678TIP3   OH262448   5.563   2.971  14.684  0.2197 -0.4257  0.3177
13678TIP3    H162449   5.547   2.953  14.591 -0.5157 -0.7271  0.4947
13678TIP3    H262450   5.525   2.896  14.729  0.5744 -0.2784  0.8664
13679TIP3   OH262451   3.659   4.524  11.652 -0.1502  0.4863  0.0220
13679TIP3    H162452   3.666   4.442  11.700  1.6274  0.8245  0.3686
13679TIP3    H262453   3.635   4.498  11.563  0.6502 -0.4264  0.0716
13680TIP3   OH262454   0.294   0.368  14.561  0.4378  0.7559  0.2647
13680TIP3    H162455   0.337   0.297  14.514 -1.0108 -0.1483  0.2928
13680TIP3    H262456   0.357   0.393  14.628  1.0603 -0.3423  0.1048
13681TIP3   OH262457   3.311   3.194  13.014 -0.5518 -0.0220 -1.0378
13681TIP3    H162458   3.326   3.110  13.058 -2.8470  0.6911  1.1924
13681TIP3    H262459   3.233   3.180  12.961 -0.8453  0.6674 -0.7889
13682TIP3   OH262460   1.412   3.989   5.785 -0.0102  0.0269  0.5611
13682TIP3    H162461   1.384   4.070   5.743  0.7769  0.0164 -0.0032
13682TIP3    H262462   1.336   3.932   5.782 -0.2552  0.3820  0.0376
13683TIP3   OH262463   2.825   5.399   2.376 -0.3857 -0.2522  0.1571
13683TIP3    H162464   2.733   5.423   2.383 -0.4780 -0.5699 -0.0040
13683TIP3    H262465   2.872   5.481   2.394 -0.7170  0.4513 -2.0151
13684TIP3   OH262466   1.987   6.650   6.385  0.6562 -0.1715  0.0279
13684TIP3    H162467   1.947   6.625   6.469  0.5410 -1.4998 -0.4085
13684TIP3    H262468   1.919   6.633   6.320  1.0639 -0.0171 -0.4401
13685TIP3   OH262469   1.436   3.538  15.448 -0.8872 -0.4342 -0.5213
13685TIP3    H162470   1.503   3.532  15.516 -0.0289  0.3725 -1.2732
13685TIP3    H262471   1.470   3.483  15.376 -1.6025 -0.9773 -0.4494
13686TIP3   OH262472   3.911   3.326   6.256  0.3221  0.0234 -0.1136
13686TIP3    H162473   3.880   3.289   6.339  1.0672  0.4116  0.3500
13686TIP3    H262474   3.935   3.416   6.278  1.2716 -0.1122 -0.5747
13687TIP3   OH262475   4.680   4.923   2.102  0.0039 -0.1605 -0.1235
13687TIP3    H162476   4.743   4.921   2.030  0.4816 -0.1811  0.2933
13687TIP3    H262477   4.598   4.892   2.063  0.4876 -1.0626 -0.4301
13688TIP3   OH262478   3.855   6.256   3.618 -0.5363  0.3765 -0.4113
13688TIP3    H162479   3.874   6.174   3.663 -1.6913 -1.1667 -2.6310
13688TIP3    H262480   3.769   6.282   3.651  0.1573  1.1066  0.8466
13689TIP3   OH262481   6.074   0.715   0.931  0.9752 -0.5783 -0.1022
13689TIP3    H162482   6.005   0.779   0.916  2.7735  1.2373 -0.8840
13689TIP3    H262483   6.074   0.700   1.025 -0.5690 -0.7090 -0.1142
13690TIP3   OH262484   5.236   0.937   3.584 -0.1149  0.3007  0.0807
13690TIP3    H162485   5.326   0.969   3.596  0.0827 -0.4542  0.6674
13690TIP3    H262486   5.200   0.993   3.516 -0.1730  2.5338  1.9109
13691TIP3   OH262487   5.672   6.504   5.563  0.7555 -0.5262  0.5049
13691TIP3    H162488   5.763   6.476   5.571  1.4744  1.1892 -1.3411
13691TIP3    H262489   5.624   6.424   5.542  1.5961 -1.6863  2.7568
13692TIP3   OH262490   3.198   1.054  11.177 -0.6140 -0.4028  0.3968
13692TIP3    H162491   3.141   0.984  11.207 -2.0932 -0.1567 -1.7268
13692TIP3    H262492   3.276   1.008  11.143 -1.4882 -1.0390 -0.8034
13693TIP3   OH262493   1.507   3.073   2.353  0.2016 -0.1368 -0.3046
13693TIP3    H162494   1.535   3.133   2.422 -0.1395 -1.3488  0.9118
13693TIP3    H262495   1.483   3.129   2.280  4.4198  1.0423 -0.9193
13694TIP3   OH262496   5.404   3.755   6.124  0.0167  0.0305 -0.5332
13694TIP3    H162497   5.450   3.806   6.190  2.3775 -1.7967 -0.7198
13694TIP3    H262498   5.336   3.708   6.172 -0.7336  1.6048 -0.0264
13695TIP3   OH262499   6.116   3.283   2.852 -0.7763  0.6322 -0.2745
13695TIP3    H162500   6.040   3.327   2.890 -0.7010 -0.9822  1.8622
13695TIP3    H262501   6.184   3.291   2.919  1.0437  2.2552 -2.2569
13696TIP3   OH262502   4.290   0.844   3.521  0.5123  0.3689  0.3245
13696TIP3    H162503   4.379   0.810   3.520  1.0960  1.8171  0.8718
13696TIP3    H262504   4.234   0.766   3.528  1.7072 -0.5690 -0.4862
13697TIP3   OH262505   0.067   0.304  15.732  0.1336  0.0553 -0.2215
13697TIP3    H162506   0.091   0.252  15.655  1.6477 -0.7327  0.7590
13697TIP3    H262507   0.145   0.301  15.787 -1.5843 -1.0022  2.2229
13698TIP3   OH262508   5.646   1.358   0.261  0.4131 -0.1025  0.0461
13698TIP3    H162509   5.734   1.323   0.276 -0.5779 -1.5870  2.8867
13698TIP3    H262510   5.639   1.432   0.321 -0.0945  0.3225 -0.5364
13699TIP3   OH262511   2.108   6.765  15.243 -0.0875  0.3599 -0.0626
13699TIP3    H162512   2.150   6.846  15.214  0.0693  0.2852 -0.0445
13699TIP3    H262513   2.070   6.728  15.163  1.5631 -0.5658 -0.4550
13700TIP3   OH262514   5.376   1.466   1.219 -0.4148 -0.2347 -1.2703
13700TIP3    H162515   5.457   1.494   1.176  0.5897  0.8559  1.1566
13700TIP3    H262516   5.322   1.545   1.221 -0.8075 -0.5043 -1.3576
13701TIP3   OH262517   5.265   0.391   3.987 -0.3969  0.0672  0.1424
13701TIP3    H162518   5.318   0.360   3.914  0.8376  1.5226  0.3772
13701TIP3    H262519   5.184   0.421   3.947  0.1233  0.5115 -0.5909
13702TIP3   OH262520   1.417   0.789  16.353 -0.3625 -0.2755 -0.3935
13702TIP3    H162521   1.478   0.798  16.426  0.8217 -1.8036 -1.1475
13702TIP3    H262522   1.457   0.722  16.297 -1.1566  0.9849 -2.5257
13703TIP3   OH262523   3.344   2.946   6.392 -0.1446  0.2985 -0.3807
13703TIP3    H162524   3.393   2.939   6.473  0.2974  0.9488 -0.5833
13703TIP3    H262525   3.318   2.856   6.371  1.6264 -0.1608 -0.6759
13704TIP3   OH262526   1.789   4.475  16.789 -0.1288 -0.1124  0.3812
13704TIP3    H162527   1.862   4.505  16.844  0.5635 -1.3219  0.1298
13704TIP3    H262528   1.797   4.380  16.789 -1.0611 -0.1903 -0.5592
13705TIP3   OH262529   2.517   6.175   6.228 -0.1471  0.5427 -0.0802
13705TIP3    H162530   2.475   6.171   6.314  0.2173  0.2561  0.0856
13705TIP3    H262531   2.449   6.209   6.170 -0.7483 -0.3376  0.0983
13706TIP3   OH262532   0.071   2.215   6.445  0.4567 -0.1853  0.2959
13706TIP3    H162533   0.132   2.268   6.497  0.5525  1.1598 -1.1381
13706TIP3    H262534  -0.013   2.261   6.455  0.3503 -0.2655 -0.2327
13707TIP3   OH262535   3.514   3.511  13.280 -0.5377  0.8312 -0.0017
13707TIP3    H162536   3.421   3.510  13.301 -0.4083 -0.5918  0.6080
13707TIP3    H262537   3.518   3.490  13.186 -0.7910 -0.2129  0.2131
13708TIP3   OH262538   2.756   1.186  15.339  0.0870 -0.0029 -0.3513
13708TIP3    H162539   2.823   1.209  15.404  1.2778 -0.2122 -1.4856
13708TIP3    H262540   2.677   1.169  15.391  1.0053 -0.1167  1.0349
13709TIP3   OH262541   1.451   3.886  14.068  0.5488  0.2749 -0.0771
13709TIP3    H162542   1.401   3.853  13.994 -0.0645 -0.5918  0.7088
13709TIP3    H262543   1.530   3.922  14.030 -1.7118  3.9116 -1.6465
13710TIP3   OH262544   3.805   6.193   4.543  0.1970  0.3723 -0.3854
13710TIP3    H162545   3.856   6.225   4.617 -2.9465 -0.6888  2.3717
13710TIP3    H262546   3.826   6.253   4.472  3.4099  1.3530  1.2964
13711TIP3   OH262547   0.029   3.732  13.891  0.4907  0.2372  0.0700
13711TIP3    H162548  -0.056   3.689  13.879  0.8814 -0.1845 -1.2531
13711TIP3    H262549   0.093   3.661  13.882  0.9986  0.5814  0.9088
13712TIP3   OH262550   5.360   4.852   1.070 -0.5040 -1.0065 -0.0237
13712TIP3    H162551   5.452   4.826   1.062 -0.6184 -1.1509 -0.9807
13712TIP3    H262552   5.335   4.878   0.981 -0.7834  1.1029  0.6550
13713TIP3   OH262553   3.301   1.749  16.658 -0.4435  0.2333  0.1522
13713TIP3    H162554   3.310   1.670  16.711 -1.3035 -0.0055 -0.0533
13713TIP3    H262555   3.207   1.763  16.652 -0.3667  0.1711 -1.4330
13714TIP3   OH262556   2.713   2.500  11.861  0.2279 -0.4669 -0.3615
13714TIP3    H162557   2.798   2.486  11.821  0.2060 -2.2644  0.1866
13714TIP3    H262558   2.703   2.596  11.863  2.1944 -0.2333 -0.4737
13715TIP3   OH262559   1.454   6.472  11.933 -0.2795 -0.4136  0.3224
13715TIP3    H162560   1.494   6.552  11.968 -3.0108  0.9801  0.4662
13715TIP3    H262561   1.391   6.446  12.001 -0.5365 -1.8058 -0.4323
13716TIP3   OH262562   1.796   3.427   0.710 -0.2020  0.0519  0.1505
13716TIP3    H162563   1.731   3.412   0.778 -0.2992  3.9069  1.0102
13716TIP3    H262564   1.757   3.391   0.630 -1.7778 -0.9235  1.3483
13717TIP3   OH262565   1.125   1.167  16.622 -0.5281 -0.8158 -1.0845
13717TIP3    H162566   1.218   1.189  16.614 -0.7551  1.3746  1.6788
13717TIP3    H262567   1.122   1.097  16.688 -0.9348  0.3097  0.1271
13718TIP3   OH262568   2.370   1.479   0.975 -0.5338  0.1712 -0.7140
13718TIP3    H162569   2.329   1.399   1.007 -0.9583  1.1139  1.1614
13718TIP3    H262570   2.462   1.455   0.961 -0.2120 -0.1699  1.7368
13719TIP3   OH262571   0.408   1.405  11.832 -0.1965 -0.2117 -0.3611
13719TIP3    H162572   0.374   1.335  11.887 -0.0334  0.7004  0.9279
13719TIP3    H262573   0.496   1.376  11.809  0.3158  0.0777  1.1463
13720TIP3   OH262574   1.704   3.771   5.009  0.1323 -0.1046  0.2339
13720TIP3    H162575   1.632   3.807   5.059  0.6508 -0.1601  1.0239
13720TIP3    H262576   1.782   3.789   5.061  0.5378 -1.2394  0.0426
13721TIP3   OH262577   1.214   6.552  15.166  0.2064  0.1182  0.0492
13721TIP3    H162578   1.287   6.531  15.224 -0.4601 -0.0458  0.8326
13721TIP3    H262579   1.207   6.476  15.108  0.2774 -0.1273  0.3591
13722TIP3   OH262580   1.781   0.303   3.055 -0.0840 -0.0959  0.6994
13722TIP3    H162581   1.860   0.353   3.071 -1.2038  1.1772  2.4534
13722TIP3    H262582   1.730   0.311   3.136 -0.9421 -2.8812  0.4912
13723TIP3   OH262583   1.122   3.107   4.818  0.5033  0.0543 -0.1238
13723TIP3    H162584   1.052   3.129   4.881 -0.9199 -1.3387 -1.1600
13723TIP3    H262585   1.188   3.174   4.831 -0.1807  0.3381  2.2270
13724TIP3   OH262586   6.466   5.816   3.254  0.1045 -0.0403 -0.3282
13724TIP3    H162587   6.384   5.824   3.206  1.6255  0.7194 -2.8827
13724TIP3    H262588   6.533   5.848   3.193  1.8439  3.5102  3.2119
13725TIP3   OH262589   5.288   6.403   2.894 -0.4628 -0.6491  0.5297
13725TIP3    H162590   5.236   6.337   2.939 -1.3162 -0.6376 -0.4205
13725TIP3    H262591   5.261   6.486   2.932 -0.9133 -0.6704  0.2585
13726TIP3   OH262592   5.945   6.734   2.279  0.2827  0.3335  0.0944
13726TIP3    H162593   6.026   6.689   2.302  0.9683  1.0131 -0.9760
13726TIP3    H262594   5.931   6.797   2.351 -0.2510 -1.0009  1.1761
13727TIP3   OH262595   0.544   2.567   1.522  0.8258 -0.0035 -0.3370
13727TIP3    H162596   0.579   2.512   1.452  1.3252 -0.3624  0.1951
13727TIP3    H262597   0.605   2.556   1.595  0.1245  0.1048  0.2725
13728TIP3   OH262598   1.820   1.996  15.159  0.2104  0.3610 -0.5403
13728TIP3    H162599   1.906   2.035  15.178 -0.4866  2.1146 -0.8624
13728TIP3    H262600   1.771   2.007  15.241  0.4782 -1.2388 -0.1383
13729TIP3   OH262601   5.537   6.325   5.269  0.0290  0.2076 -0.3263
13729TIP3    H162602   5.570   6.401   5.220  2.3842 -0.9263 -0.5946
13729TIP3    H262603   5.499   6.269   5.201  2.5628 -0.9909 -0.8080
13730TIP3   OH262604   1.107   2.371  14.585  0.5075 -0.4924 -0.5255
13730TIP3    H162605   1.184   2.332  14.626 -0.8444 -0.9411  1.6853
13730TIP3    H262606   1.095   2.454  14.630 -0.3008 -0.4259 -0.8453
13731TIP3   OH262607   4.649   0.788   1.012  0.0036  0.6375  0.2241
13731TIP3    H162608   4.740   0.770   1.036 -0.2380 -0.7124  0.1382
13731TIP3    H262609   4.619   0.709   0.968 -1.2136  1.0782  0.2381
13732TIP3   OH262610   6.074   1.478   0.818 -0.3561 -0.1478  0.2002
13732TIP3    H162611   6.148   1.418   0.830 -2.5850 -2.2665  3.9711
13732TIP3    H262612   6.052   1.470   0.725  1.9279 -2.1068 -0.2190
13733TIP3   OH262613   6.243   5.218   5.576  0.1228 -0.4125  0.2723
13733TIP3    H162614   6.226   5.243   5.485 -1.7342  0.7852  0.9211
13733TIP3    H262615   6.164   5.169   5.602 -0.4684  1.3863  1.9829
13734TIP3   OH262616   4.180   5.612   3.898  0.0473 -0.2804  0.3978
13734TIP3    H162617   4.205   5.674   3.967 -1.7980  1.9367 -0.8555
13734TIP3    H262618   4.132   5.543   3.944  0.3238  0.2722  1.5499
13735TIP3   OH262619   1.348   5.381   4.647  0.2954 -0.2414 -0.2291
13735TIP3    H162620   1.317   5.432   4.722 -4.4019 -0.6720 -1.6901
13735TIP3    H262621   1.385   5.302   4.685 -1.6333 -0.2576  1.6872
13736TIP3   OH262622   5.677   5.457  13.753 -0.2797  0.1514  0.2832
13736TIP3    H162623   5.649   5.489  13.667 -2.6350 -1.1458  0.5430
13736TIP3    H262624   5.606   5.479  13.812  0.8032 -0.0482  1.6920
13737TIP3   OH262625   4.997   5.863   0.280  0.0210 -0.3507  0.0796
13737TIP3    H162626   4.950   5.780   0.291  0.6256 -0.5374  1.3286
13737TIP3    H262627   4.930   5.924   0.250 -0.2925 -1.4404 -1.5211
13738TIP3   OH262628   2.019   5.708   5.951  0.1668  0.6870 -0.0022
13738TIP3    H162629   2.096   5.701   5.894  0.7858  0.0151  0.8901
13738TIP3    H262630   1.991   5.799   5.944 -0.9044  0.1896 -2.8282
13739TIP3   OH262631   1.786   6.540  12.053  0.2362  0.3550 -0.5735
13739TIP3    H162632   1.827   6.553  12.138  1.2239 -0.4181 -0.9286
13739TIP3    H262633   1.785   6.445  12.041 -0.0158  0.4536 -1.3662
13740TIP3   OH262634   4.012   4.321  15.583  0.1673 -0.3913 -0.3583
13740TIP3    H162635   4.012   4.264  15.661 -0.9880  1.4917  1.0682
13740TIP3    H262636   3.919   4.339  15.567  0.4760  0.3459 -1.3433
13741TIP3   OH262637   3.342   0.022  14.629  0.1161  1.0127 -0.1624
13741TIP3    H162638   3.259   0.071  14.628 -0.6599 -0.2654 -2.3696
13741TIP3    H262639   3.318  -0.067  14.603  2.2687  0.8100 -1.6231
13742TIP3   OH262640   3.397   5.489   1.719  0.6248 -0.4482 -0.1869
13742TIP3    H162641   3.466   5.501   1.785  0.9669  0.6724 -0.7304
13742TIP3    H262642   3.357   5.575   1.710  1.6145 -0.1943 -2.5645
13743TIP3   OH262643   3.372   3.098   3.274  0.3532 -0.4802 -0.5512
13743TIP3    H162644   3.304   3.038   3.243  1.3675 -1.2086 -1.3887
13743TIP3    H262645   3.454   3.062   3.240  0.9533  1.5145 -1.2827
13744TIP3   OH262646   4.734   4.352  15.239 -0.2512 -0.5237  0.3006
13744TIP3    H162647   4.664   4.404  15.278  0.2498 -0.3157  0.9392
13744TIP3    H262648   4.690   4.274  15.204 -1.0152  0.3640 -0.7433
13745TIP3   OH262649   5.819   3.630  15.383 -0.0339 -0.3610 -0.1480
13745TIP3    H162650   5.803   3.724  15.373 -1.3993 -0.2075  2.8684
13745TIP3    H262651   5.740   3.596  15.426  0.8999 -2.7000 -0.1748
13746TIP3   OH262652   0.684   0.346  17.042 -0.1806 -0.3445  0.0684
13746TIP3    H162653   0.648   0.379  17.124  0.9642  1.4716 -0.1090
13746TIP3    H262654   0.644   0.401  16.975 -1.5802 -2.2183 -0.6803
13747TIP3   OH262655   4.030   6.678   5.471 -0.4189 -0.1267 -0.1300
13747TIP3    H162656   4.085   6.754   5.493 -1.7069  0.7189  0.1967
13747TIP3    H262657   3.973   6.667   5.547 -3.4467  1.5038 -2.0635
13748TIP3   OH262658   0.353   4.048   4.890 -0.7424 -0.0214  0.0898
13748TIP3    H162659   0.362   3.985   4.818  1.0876 -1.7556  1.7781
13748TIP3    H262660   0.414   4.118   4.868 -1.0826  0.0574 -0.6308
13749TIP3   OH262661   1.786   0.001  15.285  0.3949  0.0712  0.6024
13749TIP3    H162662   1.831   0.055  15.350  0.6611  1.1443 -0.4545
13749TIP3    H262663   1.800   0.047  15.202 -0.7621 -0.7657 -0.0662
13750TIP3   OH262664   5.638   0.166   0.248 -0.2584  0.2022  0.4658
13750TIP3    H162665   5.592   0.141   0.168 -0.5570  1.0437  0.3612
13750TIP3    H262666   5.605   0.106   0.315 -1.0450  0.3912  0.2559
13751TIP3   OH262667   2.709   2.698   2.547 -0.1045  0.5782 -0.2535
13751TIP3    H162668   2.761   2.752   2.487 -0.7719  0.0909 -1.2838
13751TIP3    H262669   2.754   2.705   2.631 -0.2125  2.7885 -0.3500
13752TIP3   OH262670   4.375   1.856   4.367  0.1203 -0.0705  0.1071
13752TIP3    H162671   4.433   1.889   4.299  0.3242 -1.9518 -0.6601
13752TIP3    H262672   4.351   1.933   4.418  2.6837  0.8625 -0.0252
13753TIP3   OH262673   0.476   0.152  14.489  0.1369 -0.0092 -0.1723
13753TIP3    H162674   0.474   0.113  14.402 -2.8858 -0.8371  0.1966
13753TIP3    H262675   0.563   0.132  14.523  0.6125 -1.4876 -2.1981
13754TIP3   OH262676   2.913   1.283  14.953  0.3728  0.0290  0.4542
13754TIP3    H162677   2.961   1.366  14.957  0.3529  0.1094 -1.0410
13754TIP3    H262678   2.969   1.222  15.002  1.3394  0.4642 -0.0857
13755TIP3   OH262679   6.221   0.623  13.094  0.1775  0.4153  0.0369
13755TIP3    H162680   6.249   0.632  13.185  0.0015  1.1644  0.0219
13755TIP3    H262681   6.297   0.650  13.043  0.3325 -0.1649 -0.0416
13756TIP3   OH262682   5.505   3.844   4.326 -0.5440 -0.2245  0.3591
13756TIP3    H162683   5.417   3.881   4.335 -0.1083  1.1143 -0.6771
13756TIP3    H262684   5.558   3.894   4.388 -0.0796  0.5020 -0.6014
13757TIP3   OH262685   6.012   5.375  16.935 -0.4094 -0.7211  0.2467
13757TIP3    H162686   6.103   5.383  16.905 -0.2627  0.8876  1.0318
13757TIP3    H262687   6.019   5.339  17.024 -0.5211 -0.4822  0.3527
13758TIP3   OH262688   0.140   1.034   0.060 -0.2390  0.0573  0.8868
13758TIP3    H162689   0.117   1.050  -0.031  2.4784  0.3599  0.2315
13758TIP3    H262690   0.076   0.968   0.089 -1.1690 -0.0012 -1.1890
13759TIP3   OH262691   1.110   2.124  13.994 -0.0298 -0.1397  0.1040
13759TIP3    H162692   1.022   2.088  14.010  0.1128 -0.0769  1.0204
13759TIP3    H262693   1.135   2.165  14.076 -0.4947  2.7416 -1.1387
13760TIP3   OH262694   5.962   0.602  15.927 -0.1744  0.1633 -0.2294
13760TIP3    H162695   6.018   0.650  15.866 -0.9399  2.4442  0.7693
13760TIP3    H262696   6.011   0.603  16.010 -0.2722 -0.6747 -0.1565
13761TIP3   OH262697   3.943   4.250   3.493  0.5082  0.1250  0.0303
13761TIP3    H162698   3.967   4.276   3.405  0.1758  0.0640 -0.0806
13761TIP3    H262699   3.992   4.309   3.550  0.2462  0.5722 -0.2056
13762TIP3   OH262700   3.838   5.640   0.637 -0.1802 -0.1381 -0.1427
13762TIP3    H162701   3.885   5.622   0.719  1.9763 -1.4086 -1.6217
13762TIP3    H262702   3.752   5.673   0.666  0.5723 -0.4492  2.6179
13763TIP3   OH262703   2.747   2.066  12.740 -0.0362  0.5299  0.1982
13763TIP3    H162704   2.743   2.001  12.669 -0.0097  0.3079  0.3990
13763TIP3    H262705   2.713   2.019  12.816 -0.6935  0.9723  0.1807
13764TIP3   OH262706   6.415   2.462   4.977 -0.3377 -0.2959  0.3883
13764TIP3    H162707   6.441   2.547   5.011 -0.8508 -0.3311  0.8974
13764TIP3    H262708   6.352   2.481   4.908  0.9188 -0.2159 -0.7418
13765TIP3   OH262709   0.660   1.932   0.787  0.6507  0.1441  0.5295
13765TIP3    H162710   0.617   1.930   0.872  0.1250  0.5675  0.2832
13765TIP3    H262711   0.751   1.908   0.804  0.8935  1.6310  1.4077
13766TIP3   OH262712   0.956   1.722  12.297  0.1505 -0.0003 -0.2236
13766TIP3    H162713   0.963   1.817  12.296  0.5001 -0.0112  1.0314
13766TIP3    H262714   0.943   1.699  12.389  0.6004 -1.2068 -0.4514
13767TIP3   OH262715   1.292   3.674  11.034  0.1699  0.3205 -0.3003
13767TIP3    H162716   1.304   3.637  10.946  2.9852  2.9879 -1.1475
13767TIP3    H262717   1.372   3.651  11.081 -1.3626 -1.1790  1.6588
13768TIP3   OH262718   6.021   0.042  11.536 -0.1240  0.5124  0.5113
13768TIP3    H162719   6.008  -0.013  11.459  0.0037  0.5249  0.4815
13768TIP3    H262720   6.108   0.019  11.568 -0.1102  0.6241  0.5568
13769TIP3   OH262721   6.433   0.495   4.247  0.3479  0.0829 -0.3697
13769TIP3    H162722   6.449   0.403   4.226  0.0317  0.1565 -0.9380
13769TIP3    H262723   6.477   0.508   4.331 -0.5182 -0.8697  0.2509
13770TIP3   OH262724   1.518   2.975   0.385  0.9729 -0.2060 -0.5284
13770TIP3    H162725   1.500   3.050   0.329  1.0346 -0.1010 -0.4071
13770TIP3    H262726   1.504   3.007   0.474  1.2532 -0.2630 -0.4617
13771TIP3   OH262727   0.914   2.495   6.349  0.5487 -0.0875  0.4818
13771TIP3    H162728   0.838   2.535   6.307 -0.4888 -0.6441  1.8032
13771TIP3    H262729   0.936   2.554   6.420  1.5400  0.2116 -0.0605
13772TIP3   OH262730   0.290   6.692  13.393 -0.1144  0.1592  1.0291
13772TIP3    H162731   0.340   6.645  13.326 -1.6661  0.2708 -0.2436
13772TIP3    H262732   0.281   6.780  13.358  0.5074  0.6964  2.1865
13773TIP3   OH262733   2.440   1.634   2.370 -0.2328  0.6698 -0.0691
13773TIP3    H162734   2.363   1.640   2.314  1.2716  2.1384 -2.0706
13773TIP3    H262735   2.449   1.721   2.408  3.1565  2.0984 -3.7270
13774TIP3   OH262736   4.391   0.099   5.356  0.3424  0.2813  0.1565
13774TIP3    H162737   4.331   0.087   5.430 -0.6156 -2.1380 -0.9541
13774TIP3    H262738   4.334   0.097   5.279  1.6886 -0.8388 -0.8313
13775TIP3   OH262739   6.647   5.349  15.645  0.7118 -0.4431 -0.1643
13775TIP3    H162740   6.663   5.439  15.618  0.5045 -0.3953 -0.1266
13775TIP3    H262741   6.555   5.334  15.624  0.2736 -0.0688  1.4844
13776TIP3   OH262742   3.653   2.927   0.647 -0.5395 -0.1011  0.0326
13776TIP3    H162743   3.616   2.842   0.624 -0.0420 -0.7495  1.5406
13776TIP3    H262744   3.732   2.935   0.593  0.2730 -1.3135  1.0003
13777TIP3   OH262745   4.448   2.030  12.201  0.2113  0.1291 -0.1960
13777TIP3    H162746   4.468   2.089  12.128  1.7999 -0.7535 -0.4809
13777TIP3    H262747   4.474   2.080  12.279  1.3427 -0.0988 -0.4231
13778TIP3   OH262748   5.032   1.277   0.850 -0.0997 -0.6157 -0.2438
13778TIP3    H162749   4.952   1.323   0.875 -0.2813 -1.3772  0.5767
13778TIP3    H262750   5.098   1.309   0.911 -0.6126 -2.7059  1.4470
13779TIP3   OH262751   3.701   4.345   3.835 -0.4697 -0.4708  0.3098
13779TIP3    H162752   3.667   4.341   3.746 -0.4561  1.6891  0.1817
13779TIP3    H262753   3.694   4.255   3.867 -1.1331 -1.1345 -1.6149
13780TIP3   OH262754   1.504   1.477   3.241  0.2578  0.2339 -0.4201
13780TIP3    H162755   1.502   1.401   3.183 -0.0511  0.3341 -0.5429
13780TIP3    H262756   1.412   1.497   3.258  0.3434 -0.5896  1.1395
13781TIP3   OH262757   2.913   3.869  17.235 -0.0188  0.4701 -0.2651
13781TIP3    H162758   2.941   3.786  17.195 -1.3988 -0.1753  0.0543
13781TIP3    H262759   2.984   3.930  17.218  0.5599 -0.5138 -1.4175
13782TIP3   OH262760   5.241   3.710  13.410  1.0214 -0.1390 -0.1007
13782TIP3    H162761   5.273   3.799  13.424  1.0505  0.0800 -1.5007
13782TIP3    H262762   5.155   3.708  13.452  1.1472  0.4592  0.1893
13783TIP3   OH262763   3.739   0.204   5.166  0.3703 -0.4894  0.4586
13783TIP3    H162764   3.751   0.233   5.256  0.2506  0.4868  0.1735
13783TIP3    H262765   3.644   0.209   5.152  0.3580 -0.9359  0.3708
13784TIP3   OH262766   0.090   2.350  17.041 -0.7725  0.1411  0.2226
13784TIP3    H162767   0.040   2.320  16.964 -1.8500  2.0023  0.1662
13784TIP3    H262768   0.069   2.444  17.048 -0.7750 -0.0199  2.8576
13785TIP3   OH262769   4.973   4.910  15.630 -0.4266  0.1355  0.0600
13785TIP3    H162770   4.987   4.819  15.607 -1.1424  0.1282 -0.3682
13785TIP3    H262771   4.950   4.909  15.723 -0.6351 -0.1329  0.0032
13786TIP3   OH262772   0.569   2.408   3.289 -0.5767 -0.2735 -0.0678
13786TIP3    H162773   0.532   2.320   3.289 -0.8064 -0.2112 -2.3439
13786TIP3    H262774   0.557   2.440   3.378  0.1072 -2.7938  0.9567
13787TIP3   OH262775   2.928   5.769   4.761 -0.0848 -0.1128 -0.1375
13787TIP3    H162776   2.966   5.681   4.752 -0.5690 -0.1840 -1.6402
13787TIP3    H262777   2.867   5.762   4.834  0.9562 -0.6454  0.6944
13788TIP3   OH262778   4.989   3.137   6.557 -0.1210  0.1970 -0.9993
13788TIP3    H162779   4.935   3.083   6.615  0.9451 -0.8774 -0.9716
13788TIP3    H262780   5.013   3.213   6.610  1.5042 -1.1648  0.2610
13789TIP3   OH262781   6.534   6.536  13.654 -0.2405 -0.1241  0.2556
13789TIP3    H162782   6.578   6.607  13.699 -0.1789  1.0397 -1.6094
13789TIP3    H262783   6.447   6.570  13.634 -1.4796 -1.8247  2.4456
13790TIP3   OH262784   2.164   2.484  13.151 -0.7554  0.3673 -0.5216
13790TIP3    H162785   2.207   2.427  13.215  1.2905  1.5494 -0.7956
13790TIP3    H262786   2.232   2.503  13.086 -1.7957  1.9804 -1.1703
13791TIP3   OH262787   0.395   2.120   5.647 -0.0037 -0.6538 -0.6696
13791TIP3    H162788   0.470   2.104   5.705  0.3492 -2.3632 -1.5565
13791TIP3    H262789   0.389   2.215   5.642  1.4618 -0.4889  0.2558
13792TIP3   OH262790   2.227   0.453  11.843 -0.1229  0.3253  0.1847
13792TIP3    H162791   2.145   0.457  11.891 -0.8833 -0.1221 -1.0388
13792TIP3    H262792   2.288   0.410  11.903 -1.0481 -0.2209  0.7455
13793TIP3   OH262793   5.535   0.406   2.833 -0.4609  0.3954  0.3295
13793TIP3    H162794   5.468   0.413   2.901  0.1914  0.3837  0.9765
13793TIP3    H262795   5.535   0.314   2.807 -0.3209  0.2886  0.7112
13794TIP3   OH262796   2.656   2.206  13.033 -0.5224 -0.5257 -0.2354
13794TIP3    H162797   2.680   2.114  13.030 -0.7099 -0.6711  1.9351
13794TIP3    H262798   2.560   2.205  13.037 -0.5365 -0.2227 -0.4853
13795TIP3   OH262799   3.983   6.322  14.211 -0.2995  0.3073 -0.6888
13795TIP3    H162800   4.039   6.307  14.287 -0.1254  2.9810 -0.2197
13795TIP3    H262801   3.894   6.316  14.245 -0.2650 -1.0116 -0.8174
13796TIP3   OH262802   4.682   1.661  10.789  0.0837  0.2217  0.2938
13796TIP3    H162803   4.769   1.685  10.820  1.0720 -0.1153 -2.1049
13796TIP3    H262804   4.630   1.647  10.869  2.1695  0.5867  1.7353
13797TIP3   OH262805   6.485   1.320   0.240 -0.0224  0.1689 -0.1397
13797TIP3    H162806   6.534   1.369   0.175 -0.0366  0.4541  0.0627
13797TIP3    H262807   6.439   1.387   0.291  1.6991  0.1049  1.5471
13798TIP3   OH262808   0.637   3.833  13.607  0.2442 -0.4750  0.0177
13798TIP3    H162809   0.572   3.784  13.658  0.1004  0.0921  0.3885
13798TIP3    H262810   0.701   3.862  13.672  0.9499 -1.1535 -0.3669
13799TIP3   OH262811   5.742   4.199   0.776 -0.0949 -0.4204 -0.2136
13799TIP3    H162812   5.747   4.277   0.721  2.9224 -1.9275 -2.2225
13799TIP3    H262813   5.655   4.161   0.757  0.2699 -0.0486 -2.7607
13800TIP3   OH262814   5.703   0.701  14.030 -0.2276  0.2734  0.6464
13800TIP3    H162815   5.637   0.747  14.081 -1.5373 -0.6521 -0.2061
13800TIP3    H262816   5.684   0.608  14.044  1.6614 -0.0304  1.4004
13801TIP3   OH262817   4.905   5.200   2.745 -0.0769 -0.3597  0.5960
13801TIP3    H162818   4.855   5.136   2.797  0.1700 -1.0893 -0.0602
13801TIP3    H262819   4.839   5.243   2.691 -0.1644 -0.4581  0.6238
13802TIP3   OH262820   1.872   3.446   4.544 -0.1210 -0.2066  0.0073
13802TIP3    H162821   1.890   3.446   4.638  0.1638  0.4514 -0.0485
13802TIP3    H262822   1.944   3.396   4.506 -0.6300 -1.1149  0.2080
13803TIP3   OH262823   2.349   0.631  12.893  0.2148  0.7850  0.6620
13803TIP3    H162824   2.340   0.558  12.955  3.2403 -0.1657  0.0832
13803TIP3    H262825   2.442   0.630  12.869 -0.2831  3.0700 -1.5392
13804TIP3   OH262826   1.190   3.658   3.243  0.0491  0.0640  0.0696
13804TIP3    H162827   1.207   3.617   3.158 -0.5462  0.9116 -0.4624
13804TIP3    H262828   1.098   3.684   3.239  0.9688  3.4482 -0.4592
13805TIP3   OH262829   5.976   3.422  12.475  0.1512  0.4643 -0.5289
13805TIP3    H162830   5.949   3.451  12.562 -0.8595 -0.5682 -0.4780
13805TIP3    H262831   5.920   3.346  12.457  3.1955 -1.8904 -0.3244
13806TIP3   OH262832   5.542   6.177  14.343 -0.3189  0.4155  0.5835
13806TIP3    H162833   5.627   6.211  14.369  0.5248 -1.0414 -0.2291
13806TIP3    H262834   5.513   6.125  14.419 -0.3856  0.6879  0.7487
13807TIP3   OH262835   3.685   3.854   3.591  0.2972 -0.6142 -0.5052
13807TIP3    H162836   3.602   3.859   3.639  0.6315 -1.0433  0.1184
13807TIP3    H262837   3.733   3.782   3.632  0.6283 -0.9351 -1.4200
13808TIP3   OH262838   5.271   0.389   3.532 -0.6139 -0.2168 -0.5207
13808TIP3    H162839   5.300   0.436   3.453  1.1998  1.0689  0.8634
13808TIP3    H262840   5.271   0.456   3.601 -0.5179 -1.6978  0.9452
13809TIP3   OH262841   5.112   4.357   3.887 -0.5051 -0.3143  0.0795
13809TIP3    H162842   5.195   4.403   3.900 -0.6485 -0.0495  0.0433
13809TIP3    H262843   5.112   4.288   3.954 -0.6916  0.2824  0.6902
13810TIP3   OH262844   4.690   6.055  13.410 -0.3794  0.7056  0.5301
13810TIP3    H162845   4.746   6.130  13.429 -0.1213  0.1095  2.2312
13810TIP3    H262846   4.610   6.094  13.373 -0.0489  1.7836  0.9179
13811TIP3   OH262847   3.304   4.017   5.437  0.4691 -0.4572  0.7855
13811TIP3    H162848   3.345   3.931   5.428  0.2921 -0.2524 -2.5096
13811TIP3    H262849   3.364   4.067   5.493  1.7314 -1.9998  0.8296
13812TIP3   OH262850   0.549   2.105  13.606  0.0167  0.6313  0.0840
13812TIP3    H162851   0.617   2.135  13.666  1.1185 -1.4733 -0.0357
13812TIP3    H262852   0.597   2.055  13.540 -1.6082 -0.6358 -0.1687
13813TIP3   OH262853   2.436   2.174   3.269  0.1213  0.1826  0.5772
13813TIP3    H162854   2.512   2.120   3.248  1.6091  1.7602  1.7104
13813TIP3    H262855   2.472   2.263   3.277 -1.7995  0.9067  1.3502
13814TIP3   OH262856   6.237   1.126   5.187  0.1012 -0.2950 -0.3119
13814TIP3    H162857   6.158   1.074   5.178 -0.8927  1.3804 -1.6355
13814TIP3    H262858   6.254   1.128   5.281 -1.5965 -0.4248  0.0155
13815TIP3   OH262859   1.135   6.212   2.275  0.3694 -0.0230 -0.2822
13815TIP3    H162860   1.067   6.279   2.271  0.0996 -0.3245 -1.0128
13815TIP3    H262861   1.201   6.247   2.335  0.2298  0.8926 -0.6513
13816TIP3   OH262862   3.033   2.875  13.164 -0.1252  0.0023  0.1636
13816TIP3    H162863   2.939   2.861  13.150  0.1511  0.0733 -1.9733
13816TIP3    H262864   3.038   2.953  13.219 -1.3071  0.5308 -0.4533
13817TIP3   OH262865   0.879   5.975  13.108  0.1527 -0.5831 -0.0399
13817TIP3    H162866   0.925   5.895  13.084  0.8976 -0.4059  0.7682
13817TIP3    H262867   0.882   6.029  13.029  0.1943 -1.0981 -0.3914
13818TIP3   OH262868   4.544   2.192  12.393  0.4626 -0.2287 -0.2929
13818TIP3    H162869   4.547   2.286  12.374  0.4444 -0.5078 -1.7445
13818TIP3    H262870   4.479   2.184  12.462  0.5269  0.8429 -0.0971
13819TIP3   OH262871   5.693   1.174  12.785  0.6458 -0.1548 -0.3533
13819TIP3    H162872   5.734   1.155  12.869 -0.6850 -0.4252  0.2388
13819TIP3    H262873   5.676   1.268  12.787  1.7084  0.0518 -0.8146
13820TIP3   OH262874   5.150   5.453  11.179 -0.4120 -0.1470 -0.3633
13820TIP3    H162875   5.182   5.535  11.139  1.1850 -0.6535 -0.1883
13820TIP3    H262876   5.096   5.413  11.111  0.5628  0.0249 -1.2710
13821TIP3   OH262877   6.379   1.740   2.685 -0.1765 -0.2018  0.6256
13821TIP3    H162878   6.447   1.735   2.617 -0.3240 -0.6262  0.5059
13821TIP3    H262879   6.427   1.758   2.766 -0.0354  0.7299  0.3445
13822TIP3   OH262880   2.395   1.109   5.394  0.3683 -0.0463 -0.2430
13822TIP3    H162881   2.488   1.125   5.407  0.4152 -0.0917 -0.5070
13822TIP3    H262882   2.368   1.174   5.328  0.5229 -0.9280 -1.1894
13823TIP3   OH262883   4.091   4.265  16.511  0.4757  0.0250  0.8212
13823TIP3    H162884   3.998   4.255  16.532  0.3493 -0.2347  0.1379
13823TIP3    H262885   4.127   4.177  16.523 -0.1016 -0.7098 -2.5488
13824TIP3   OH262886   1.263   2.104  17.152 -0.7862  0.7572 -0.5507
13824TIP3    H162887   1.250   2.152  17.234 -0.4610  1.1156 -0.7054
13824TIP3    H262888   1.351   2.129  17.124 -1.0485  0.9436 -1.2127
13825TIP3   OH262889   5.055   4.457  16.288 -0.0308 -0.0359  0.0759
13825TIP3    H162890   5.054   4.461  16.193  0.8612 -0.9473  0.0164
13825TIP3    H262891   5.097   4.539  16.316  1.7203 -0.7441 -0.4049
13826TIP3   OH262892   6.657   1.097   4.341  0.3807 -0.0510  0.8168
13826TIP3    H162893   6.670   1.121   4.249 -0.2485 -1.9460  0.2094
13826TIP3    H262894   6.730   1.138   4.387  0.9729  0.5167 -0.5900
13827TIP3   OH262895   3.495   5.014  16.221 -0.5173 -0.0508 -0.6582
13827TIP3    H162896   3.458   5.029  16.134 -2.3320 -1.1082 -0.0765
13827TIP3    H262897   3.586   4.988  16.203 -0.9315 -0.4850 -2.2496
13828TIP3   OH262898   1.485   5.243  12.640  0.1540 -0.2038  0.7541
13828TIP3    H162899   1.492   5.154  12.606  3.6653 -0.1884  1.2702
13828TIP3    H262900   1.497   5.234  12.734 -0.4011  0.7410  0.9227
13829TIP3   OH262901   6.668   1.403   4.453 -0.0125 -1.0310  0.5399
13829TIP3    H162902   6.633   1.420   4.365 -1.3421  1.1289  1.4386
13829TIP3    H262903   6.746   1.350   4.438  1.6109  1.9406 -2.2172
13830TIP3   OH262904   4.086   3.717  16.557  0.7717 -0.0214  0.7027
13830TIP3    H162905   4.077   3.698  16.463 -0.9107 -1.0088  1.0660
13830TIP3    H262906   4.180   3.737  16.567  0.9032  0.5335 -1.2576
13831TIP3   OH262907   6.083   5.659   5.608 -0.0994  0.1548  0.7159
13831TIP3    H162908   6.123   5.697   5.530 -1.9955  0.2950 -0.2176
13831TIP3    H262909   6.155   5.614   5.653  1.0067  0.0985 -1.0887
13832TIP3   OH262910   3.490   4.887   2.876 -0.1152 -0.2167  0.0289
13832TIP3    H162911   3.490   4.859   2.785 -1.5449  1.1497 -0.4108
13832TIP3    H262912   3.499   4.805   2.926 -0.9770 -1.1502 -1.3062
13833TIP3   OH262913   0.178   2.436  12.298  0.1211 -0.2533 -0.1118
13833TIP3    H162914   0.201   2.522  12.334  0.4226  0.4997 -2.0570
13833TIP3    H262915   0.255   2.411  12.246 -1.4503  0.0472 -2.6647
13834TIP3   OH262916   3.594   3.926   6.356  0.2465  0.0981  0.3092
13834TIP3    H162917   3.633   4.011   6.335  0.2218 -0.0693 -0.4089
13834TIP3    H262918   3.669   3.867   6.363  0.2077  0.0123  0.0204
13835TIP3   OH262919   4.233   6.285   4.799  0.5953  0.3091  0.1459
13835TIP3    H162920   4.201   6.372   4.774 -0.5902 -0.4013 -0.8487
13835TIP3    H262921   4.257   6.243   4.717  0.3760 -0.6164  0.5478
13836TIP3   OH262922   4.236   6.598   5.293  0.7109  0.4858  0.0358
13836TIP3    H162923   4.155   6.648   5.300 -0.2293 -1.1380  1.1836
13836TIP3    H262924   4.292   6.634   5.362  0.4452  0.7011  0.1411
13837TIP3   OH262925   4.253   6.514   5.024  0.0979  0.3886  0.3545
13837TIP3    H162926   4.274   6.549   5.110  0.9124 -0.4092  0.4882
13837TIP3    H262927   4.230   6.422   5.041 -1.4688  0.6796 -0.0559
13838TIP3   OH262928   0.503   0.724  17.044 -0.1988 -0.1340 -0.2909
13838TIP3    H162929   0.529   0.724  16.952 -0.3449 -1.9686 -0.3428
13838TIP3    H262930   0.422   0.775  17.046 -1.4642 -2.0396 -1.5696
13839TIP3   OH262931   3.641   1.126  13.614 -0.1596  0.0247  0.6063
13839TIP3    H162932   3.588   1.066  13.562  0.0835 -0.0748  0.4709
13839TIP3    H262933   3.660   1.198  13.555  0.7807 -0.4618  0.3016
13840TIP3   OH262934   0.676   2.127   0.309  0.2643  0.0761 -0.0482
13840TIP3    H162935   0.679   2.169   0.395  0.6091  1.4919 -0.7326
13840TIP3    H262936   0.584   2.102   0.298 -0.0740  1.2195  0.1124
13841TIP3   OH262937   3.274   6.099  16.111 -0.7580  0.2068 -0.5764
13841TIP3    H162938   3.324   6.140  16.183 -1.0190  0.1703 -0.3735
13841TIP3    H262939   3.286   6.159  16.037  0.1556 -0.1539 -0.7274
13842TIP3   OH262940   3.478   3.205   5.730  0.4328  0.2693 -0.2946
13842TIP3    H162941   3.444   3.294   5.736  0.5720  0.4802 -2.2460
13842TIP3    H262942   3.418   3.152   5.782  1.2468  1.7180  2.2041
13843TIP3   OH262943   2.553   4.995  13.207  0.1499 -0.7067  0.0903
13843TIP3    H162944   2.548   5.056  13.134 -0.7199  2.1893  2.5000
13843TIP3    H262945   2.642   5.007  13.242  0.6797 -2.3241 -0.6457
13844TIP3   OH262946   3.079   2.021   1.046  0.0466  0.5591  0.0079
13844TIP3    H162947   3.032   1.965   1.109  0.4218 -1.6204 -1.5957
13844TIP3    H262948   3.012   2.048   0.984  0.0711  1.0659  0.2003
13845TIP3   OH262949   4.832   2.281   0.060 -0.5012 -0.0953  0.0762
13845TIP3    H162950   4.880   2.299   0.141 -1.6986  1.6013  0.4375
13845TIP3    H262951   4.743   2.261   0.089 -0.7993 -0.0249 -0.7943
13846TIP3   OH262952   2.628   1.420  11.659  0.2785  0.3004  0.2010
13846TIP3    H162953   2.535   1.434  11.677  0.1996 -1.6845  1.4528
13846TIP3    H262954   2.635   1.327  11.635  1.5545  1.0480 -2.5010
13847TIP3   OH262955   6.595   6.133  16.353  0.3609 -0.0510 -0.2469
13847TIP3    H162956   6.607   6.045  16.389  0.3190  1.2722  3.1929
13847TIP3    H262957   6.537   6.120  16.278 -2.7813 -2.5510  2.4570
13848TIP3   OH262958   2.034   3.475   1.967 -0.6568  0.3218  0.1590
13848TIP3    H162959   2.084   3.498   2.046  0.5046 -2.0139  0.1324
13848TIP3    H262960   1.973   3.407   1.997  2.3347 -3.3130 -1.6777
13849TIP3   OH262961   6.746   4.690   2.783  0.2782 -0.4539  0.1487
13849TIP3    H162962   6.828   4.642   2.768  0.4195 -0.2087  0.1192
13849TIP3    H262963   6.742   4.702   2.878  0.5887  0.0667  0.0994
13850TIP3   OH262964   1.965   0.086   3.062 -0.4636  0.3599  0.2766
13850TIP3    H162965   1.894   0.134   3.019 -0.7238 -0.4160 -0.1575
13850TIP3    H262966   1.957  -0.004   3.030  1.2373  0.4332 -0.4303
13851TIP3   OH262967   3.603   6.441  10.543 -0.6289 -0.5280 -0.3305
13851TIP3    H162968   3.599   6.528  10.583  0.0439 -0.1097 -1.1626
13851TIP3    H262969   3.522   6.434  10.492 -0.5481 -0.2885 -0.4873
13852TIP3   OH262970   1.941   5.571   1.992  0.4123 -0.0409 -0.2444
13852TIP3    H162971   1.884   5.564   1.915 -0.7014 -1.3078  0.6724
13852TIP3    H262972   1.971   5.662   1.992 -1.2172  0.5138 -1.0248
13853TIP3   OH262973   5.778   3.758  15.693 -0.3420  0.2321  0.6687
13853TIP3    H162974   5.807   3.837  15.647 -0.6833 -0.3182 -0.5041
13853TIP3    H262975   5.683   3.762  15.691 -0.3675  0.5438  1.9339
13854TIP3   OH262976   0.012   5.062  13.134 -0.0404 -0.4165 -0.0584
13854TIP3    H162977  -0.057   5.126  13.148 -0.0947 -0.3915 -0.4280
13854TIP3    H262978  -0.033   4.984  13.101  0.0140 -0.6808  0.4877
13855TIP3   OH262979   0.912   4.673  12.712  0.2196 -0.1471 -0.2697
13855TIP3    H162980   0.818   4.653  12.713  0.0402  0.7007  0.4323
13855TIP3    H262981   0.936   4.670  12.619 -0.6505  0.2850 -0.5195
13856TIP3   OH262982   1.844   0.878  14.383  0.4805  0.4805  0.1585
13856TIP3    H162983   1.899   0.926  14.445  0.2659  0.5125  0.3240
13856TIP3    H262984   1.859   0.921  14.299  2.2400 -0.7436 -0.2059
13857TIP3   OH262985   6.321   4.552   2.767  0.2826 -0.2586  0.3773
13857TIP3    H162986   6.371   4.618   2.718 -1.2984  0.9516  0.3448
13857TIP3    H262987   6.369   4.470   2.753  2.4299  0.9263  0.6486
13858TIP3   OH262988   4.287   0.235   1.648 -0.0386 -0.7087 -1.1439
13858TIP3    H162989   4.264   0.144   1.667  1.5476 -1.4964 -2.8475
13858TIP3    H262990   4.326   0.232   1.560 -0.7333  1.7375 -1.5758
13859TIP3   OH262991   0.937   6.065  15.480  0.0670  0.0862  0.2725
13859TIP3    H162992   0.958   6.136  15.420  0.8851  1.6911  2.4173
13859TIP3    H262993   0.846   6.042  15.459  1.2397 -1.4315 -3.5602
13860TIP3   OH262994   2.161   0.816  12.868 -0.3162  0.4600 -0.0056
13860TIP3    H162995   2.229   0.749  12.867 -0.3459  0.4436 -1.3455
13860TIP3    H262996   2.152   0.839  12.960 -0.3391 -1.4067  0.4754
13861TIP3   OH262997   5.873   0.973  16.099  0.2021 -0.1407 -0.0748
13861TIP3    H162998   5.957   0.951  16.139  1.2370 -2.0041 -3.0646
13861TIP3    H262999   5.817   0.997  16.172  2.7121 -0.9616  2.2004
13862TIP3   OH263000   0.575   5.873  13.188 -0.0962  0.3943 -0.5599
13862TIP3    H163001   0.616   5.917  13.114  1.6038  2.8191  1.7621
13862TIP3    H263002   0.496   5.924  13.207 -0.2768  0.0652 -0.4099
13863TIP3   OH263003   1.520   2.428   3.706 -0.4373  0.6293 -0.0251
13863TIP3    H163004   1.613   2.409   3.716 -0.1930  1.1375 -1.2151
13863TIP3    H263005   1.493   2.376   3.631 -0.8357  1.3971 -0.4181
13864TIP3   OH263006   4.641   2.714  12.478 -0.0082  0.8006 -0.1858
13864TIP3    H163007   4.714   2.690  12.535  0.7251  1.5164 -0.8125
13864TIP3    H263008   4.565   2.716  12.536  0.1654 -1.5176  0.1708
13865TIP3   OH263009   6.208   1.066  11.962 -0.4058  0.6607  0.0687
13865TIP3    H163010   6.264   1.090  11.888  0.1309  1.3314  0.6875
13865TIP3    H263011   6.253   1.102  12.039 -1.2773  0.5130  0.6541
13866TIP3   OH263012   0.761   1.861  16.266  0.4684 -0.1690 -0.1863
13866TIP3    H163013   0.706   1.895  16.336  0.0254 -0.8061 -0.2141
13866TIP3    H263014   0.706   1.864  16.188  1.3847  1.7232 -0.7760
13867TIP3   OH263015   6.543   2.841  13.905 -0.0537 -0.3101 -0.2115
13867TIP3    H163016   6.459   2.852  13.860  0.7173  4.4383 -0.6706
13867TIP3    H263017   6.520   2.808  13.991 -2.6496  3.1250  0.5022
13868TIP3   OH263018   4.685   6.250  17.047 -0.3663  0.0568  0.9752
13868TIP3    H163019   4.643   6.280  17.128 -0.4209  0.8434  0.6527
13868TIP3    H263020   4.648   6.305  16.979  0.5519  0.1810  0.5719
13869TIP3   OH263021   5.932   0.459   0.332  0.3885  0.0365 -0.0324
13869TIP3    H163022   5.930   0.530   0.396  1.0277  0.9970 -1.0558
13869TIP3    H263023   5.947   0.380   0.384 -2.3018  0.3544  1.3382
13870TIP3   OH263024   1.551   4.486   3.701 -0.0772  0.3220 -0.0798
13870TIP3    H163025   1.504   4.570   3.705 -0.0665  0.2851  1.0405
13870TIP3    H263026   1.551   4.455   3.792  0.6992 -0.4632 -0.3478
13871TIP3   OH263027   4.207   3.956   4.251 -0.7354 -0.2862  0.0217
13871TIP3    H163028   4.266   3.962   4.326 -0.4860  1.2011 -0.2863
13871TIP3    H263029   4.129   3.912   4.285  1.1537 -3.8442  0.0466
13872TIP3   OH263030   1.213   2.662   4.552  0.4935 -0.1360 -0.2346
13872TIP3    H163031   1.144   2.614   4.505  0.1020  0.6412 -0.4679
13872TIP3    H263032   1.175   2.749   4.566  0.3722 -0.5296  2.0487
13873TIP3   OH263033   2.847   3.094  14.508 -0.0827 -0.2244 -0.0464
13873TIP3    H163034   2.845   3.177  14.460 -1.0746  1.2398  2.4170
13873TIP3    H263035   2.938   3.067  14.505 -0.0470  0.0500 -2.3478
13874TIP3   OH263036   0.051   3.878  17.221  0.3453  0.0767 -0.0061
13874TIP3    H163037   0.118   3.909  17.281  2.1293 -2.8500 -0.3694
13874TIP3    H263038   0.096   3.871  17.137 -1.5535  2.0505 -1.2430
13875TIP3   OH263039   6.690   2.014   4.519  0.5328 -0.0086 -0.2310
13875TIP3    H163040   6.734   1.929   4.529  1.2782  0.3947 -0.1008
13875TIP3    H263041   6.655   2.012   4.430  1.2896 -0.1106 -0.5317
13876TIP3   OH263042   5.164   3.110   1.562 -0.0831 -0.7629 -0.1937
13876TIP3    H163043   5.204   3.167   1.497  1.1551 -0.2769  0.9699
13876TIP3    H263044   5.221   3.032   1.564 -0.3145 -0.9285  0.0501
13877TIP3   OH263045   0.286   4.238   3.019  0.5316  0.9712 -0.7425
13877TIP3    H163046   0.359   4.295   2.993  1.8362  0.1698  1.1013
13877TIP3    H263047   0.288   4.167   2.955  0.2463  1.8434 -1.7498
13878TIP3   OH263048   4.154   5.707   0.120 -0.0837  0.3884 -0.0513
13878TIP3    H163049   4.121   5.629   0.075  0.7932 -0.5246  0.8694
13878TIP3    H263050   4.248   5.694   0.126 -0.1450  0.6399  1.7501
13879TIP3   OH263051   2.074   3.987   2.677 -0.2385 -1.0059  0.1487
13879TIP3    H163052   2.069   4.060   2.740 -0.4181  0.3038 -1.3533
13879TIP3    H263053   2.022   3.917   2.717 -0.6015 -0.0910  1.3113
13880TIP3   OH263054   1.276   6.606   2.932  0.5934  0.2905 -0.0713
13880TIP3    H163055   1.338   6.652   2.876  0.4660  0.1098 -0.3627
13880TIP3    H263056   1.261   6.665   3.006 -0.5782  1.3000 -1.0925
13881TIP3   OH263057   2.866   1.028   3.297 -0.3468 -0.4407 -0.1064
13881TIP3    H163058   2.781   1.021   3.254 -1.2416  1.7372  1.2725
13881TIP3    H263059   2.848   1.015   3.390  1.1925 -2.3844 -0.0479
13882TIP3   OH263060   5.636   2.536   2.962  0.4694 -0.0134  0.0041
13882TIP3    H163061   5.636   2.442   2.947  0.3315  0.1346 -0.9601
13882TIP3    H263062   5.721   2.566   2.929 -0.1771  0.4364 -1.2915
13883TIP3   OH263063   2.485   5.903  16.499 -0.5068 -0.1004 -0.4956
13883TIP3    H163064   2.512   5.926  16.588  0.2177 -0.3273 -0.6543
13883TIP3    H263065   2.505   5.810  16.491  0.8310  0.2576 -1.3973
13884TIP3   OH263066   2.851   1.858  10.490  0.1624 -0.3375  0.0723
13884TIP3    H163067   2.784   1.865  10.558 -2.3128  0.1837 -2.3184
13884TIP3    H263068   2.838   1.935  10.435  1.6884 -1.0700 -1.3738
13885TIP3   OH263069   2.530   1.658  14.978  0.0131 -0.3989  0.1900
13885TIP3    H163070   2.471   1.724  15.014 -1.6641 -1.1472 -1.1288
13885TIP3    H263071   2.494   1.637  14.892  0.5198 -3.0155  0.5609
13886TIP3   OH263072   5.305   3.784   4.567 -0.0248 -0.1421 -0.0220
13886TIP3    H163073   5.371   3.801   4.635  0.8857 -2.1885 -0.3524
13886TIP3    H263074   5.222   3.805   4.609  0.6227 -0.2415  1.3570
13887TIP3   OH263075   4.190   4.045  16.256 -0.4576 -0.6001  0.2296
13887TIP3    H163076   4.228   3.967  16.295 -0.6227 -1.1360 -0.6643
13887TIP3    H263077   4.265   4.097  16.227 -0.2915  0.3932  2.3563
13888TIP3   OH263078   0.072   0.304   4.520  0.2148  0.4104 -0.1698
13888TIP3    H163079   0.100   0.368   4.454  1.5985  1.0023  0.9536
13888TIP3    H263080   0.151   0.289   4.573 -0.7653 -0.3683  1.0890
13889TIP3   OH263081   2.960   2.045   2.949 -0.7441  0.0630  0.8503
13889TIP3    H163082   3.044   2.019   2.912 -1.1532  0.8154 -0.6549
13889TIP3    H263083   2.942   1.980   3.016  0.8238 -0.3663  0.8748
13890TIP3   OH263084   5.654   5.932  12.015  0.3616  0.3803  0.1248
13890TIP3    H163085   5.657   5.895  11.927 -2.6815 -0.4584  0.3004
13890TIP3    H263086   5.590   6.003  12.008 -0.1015  0.1236  1.7135
13891TIP3   OH263087   3.332   4.443   2.716 -0.0354  0.0927  0.1260
13891TIP3    H163088   3.288   4.368   2.756 -1.0742 -0.9216 -2.7401
13891TIP3    H263089   3.419   4.444   2.755  0.0155 -2.6985  0.1844
13892TIP3   OH263090   5.076   1.972  16.703 -0.5850 -0.0823  0.0439
13892TIP3    H163091   5.094   2.033  16.631  0.6299  1.1419  1.3494
13892TIP3    H263092   5.156   1.920  16.711 -0.3315  0.4508  1.1297
13893TIP3   OH263093   4.570   6.644  11.081 -0.6171  0.3852 -0.1401
13893TIP3    H163094   4.647   6.690  11.048 -1.0719  1.4653  0.3110
13893TIP3    H263095   4.607   6.567  11.125  0.2909  1.4681  1.0452
13894TIP3   OH263096   2.556   3.170  12.364  0.0623 -0.0544  0.3359
13894TIP3    H163097   2.533   3.185  12.455 -0.7457  1.8810 -0.1497
13894TIP3    H263098   2.478   3.198  12.315  1.1105  0.5257 -1.0216
13895TIP3   OH263099   4.543   4.593  13.119  0.2351  0.2648 -0.0399
13895TIP3    H163100   4.575   4.673  13.078  0.7284 -0.3860 -0.9686
13895TIP3    H263101   4.472   4.564  13.061 -0.6002  0.5619  0.8333
13896TIP3   OH263102   3.329   3.017   3.761  0.5039  0.7966 -0.5796
13896TIP3    H163103   3.316   2.926   3.786 -0.8088  0.8156 -1.1567
13896TIP3    H263104   3.412   3.018   3.714  1.2321  0.1524  0.6672
13897TIP3   OH263105   1.041   6.674   4.399 -0.1078 -0.2036  0.1562
13897TIP3    H163106   1.034   6.579   4.408 -0.8398  0.0219  2.2694
13897TIP3    H263107   1.132   6.689   4.373  0.8958 -1.3135  2.8362
13898TIP3   OH263108   4.525   3.746   5.044 -0.0789  0.1117  0.2859
13898TIP3    H163109   4.440   3.788   5.030  1.0063  1.3664 -3.0477
13898TIP3    H263110   4.567   3.799   5.111 -1.3472  0.3142  0.9415
13899TIP3   OH263111   3.585   5.458   1.960 -0.5189  0.4249 -0.3149
13899TIP3    H163112   3.669   5.414   1.953 -1.2267 -0.7656 -1.5364
13899TIP3    H263113   3.585   5.496   2.048  0.8984 -0.3407  0.0293
13900TIP3   OH263114   4.182   6.596   3.269 -0.6459  0.5220  0.2481
13900TIP3    H163115   4.140   6.539   3.204  0.9394 -2.8468  2.0000
13900TIP3    H263116   4.136   6.577   3.350  1.2554  0.1693  1.2741
13901TIP3   OH263117   3.856   1.682   1.316  0.7130 -0.0578 -0.3731
13901TIP3    H163118   3.797   1.752   1.344 -1.6688 -2.6011  1.2952
13901TIP3    H263119   3.865   1.695   1.222 -0.9902  1.5567 -0.3559
13902TIP3   OH263120   4.485   1.349   3.042 -0.2728 -0.6680 -0.3403
13902TIP3    H163121   4.507   1.416   3.107 -1.7882 -1.8908  1.4965
13902TIP3    H263122   4.396   1.371   3.014 -0.6990 -1.7742  0.1283
13903TIP3   OH263123   6.122   5.186   0.162 -0.3469  0.7700 -0.5114
13903TIP3    H163124   6.210   5.211   0.190  0.7166 -3.3510  0.0689
13903TIP3    H263125   6.077   5.160   0.243 -0.3693 -2.0521 -1.3852
13904TIP3   OH263126   4.282   2.203   5.429  0.2489 -0.2988  0.0458
13904TIP3    H163127   4.193   2.180   5.459 -0.8366  1.9434 -1.3354
13904TIP3    H263128   4.339   2.147   5.482 -1.9922 -2.2067  0.5837
13905TIP3   OH263129   1.387   5.810  15.374 -0.2199 -0.2507  0.3538
13905TIP3    H163130   1.294   5.833  15.375  0.2744  1.8823  0.3728
13905TIP3    H263131   1.411   5.800  15.466 -0.2311  0.1160  0.3992
13906TIP3   OH263132   5.260   2.721  13.654 -0.0010  0.0095  0.3315
13906TIP3    H163133   5.351   2.716  13.624 -0.6189 -0.1855 -1.5896
13906TIP3    H263134   5.237   2.813  13.647  0.4299  0.2594  2.0383
13907TIP3   OH263135   5.021   1.022  11.178 -0.4241 -0.1878  0.2265
13907TIP3    H163136   5.042   1.025  11.085 -1.0713  3.8262  0.1218
13907TIP3    H263137   4.930   0.992  11.181 -0.7934  0.8115 -0.5495
13908TIP3   OH263138   3.931   6.360  16.795 -0.0368  0.0776  0.0916
13908TIP3    H163139   3.849   6.384  16.838  0.0220  2.2287 -0.9182
13908TIP3    H263140   3.998   6.411  16.841  0.6473 -1.0624  0.3912
13909TIP3   OH263141   6.470   3.170  12.297 -0.0339  0.7649  0.0081
13909TIP3    H163142   6.381   3.193  12.320 -0.7895 -0.4163 -1.6223
13909TIP3    H263143   6.519   3.252  12.303 -0.8912  1.1157  2.4219
13910TIP3   OH263144   1.202   1.318   5.410  0.1655  0.7173  0.1078
13910TIP3    H163145   1.117   1.351   5.436  0.0373  0.8668 -0.4838
13910TIP3    H263146   1.251   1.307   5.492 -0.4985  0.4102  0.4669
13911TIP3   OH263147   1.430   4.397  10.428 -0.0489 -0.1100 -0.1805
13911TIP3    H163148   1.525   4.385  10.426  0.0610  0.8259 -0.8224
13911TIP3    H263149   1.415   4.466  10.492 -0.2813 -0.1147 -0.2271
13912TIP3   OH263150   2.231   6.296   1.897  0.3248  0.8741 -0.3294
13912TIP3    H163151   2.262   6.379   1.861 -1.6745  1.7416 -0.0903
13912TIP3    H263152   2.165   6.320   1.962 -2.1589 -0.9129 -2.0609
13913TIP3   OH263153   4.504   3.388  13.527  0.3934  0.1137 -1.1827
13913TIP3    H163154   4.438   3.345  13.583  0.9763  0.4126 -0.2509
13913TIP3    H263155   4.454   3.453  13.478  0.0138  0.4758 -0.3391
13914TIP3   OH263156   1.274   4.296   0.050  0.6992 -0.2208  0.2516
13914TIP3    H163157   1.294   4.205   0.030  2.1200 -0.0581  0.9117
13914TIP3    H263158   1.354   4.331   0.090 -0.0845  1.1005  0.7137
13915TIP3   OH263159   1.955   3.487   1.700  0.1975  0.6374  0.1242
13915TIP3    H163160   1.980   3.495   1.792  1.0956  3.0089 -0.2914
13915TIP3    H263161   1.949   3.577   1.669  1.0493 -0.1499 -2.4505
13916TIP3   OH263162   2.294   4.378   4.355 -0.0945 -0.1168 -0.4911
13916TIP3    H163163   2.236   4.455   4.359 -0.5469 -0.4143 -1.1517
13916TIP3    H263164   2.379   4.411   4.383 -0.8721  0.0260  1.7640
13917TIP3   OH263165   5.818   5.308  10.889 -0.5821 -0.2004  0.3288
13917TIP3    H163166   5.876   5.236  10.862 -0.8083  0.6286 -2.4647
13917TIP3    H263167   5.785   5.345  10.807 -3.5880  0.5775  1.8044
13918TIP3   OH263168   3.462   3.850   1.329 -0.1630  0.2015  0.2827
13918TIP3    H163169   3.419   3.794   1.394  0.3973  0.4386  0.8600
13918TIP3    H263170   3.410   3.839   1.250  0.5505 -1.9739  0.0926
13919TIP3   OH263171   6.133   2.175   1.180 -0.4462  0.4112  0.5331
13919TIP3    H163172   6.042   2.161   1.155 -0.6302 -0.4697  1.6441
13919TIP3    H263173   6.132   2.172   1.276  0.8036  0.0063  0.5393
13920TIP3   OH263174   6.588   2.354  10.492 -0.3954 -0.1841 -0.0871
13920TIP3    H163175   6.548   2.277  10.533 -2.0505  0.9523  0.4836
13920TIP3    H263176   6.587   2.421  10.560  2.1762  0.0113 -0.1796
13921TIP3   OH263177   2.584   4.826   1.899 -0.5648 -0.2302 -0.2933
13921TIP3    H163178   2.575   4.874   1.981  0.7269 -1.0036  0.3242
13921TIP3    H263179   2.499   4.834   1.856 -1.4774 -0.4117  1.4522
13922TIP3   OH263180   3.499   3.003  11.188 -0.3474  0.2600  0.4110
13922TIP3    H163181   3.429   2.994  11.123 -1.9862  0.3312  2.1438
13922TIP3    H263182   3.471   2.949  11.262  0.8915  1.1708  1.5779
13923TIP3   OH263183   5.765   1.926  12.830 -0.5429 -0.1737 -0.1787
13923TIP3    H163184   5.809   2.011  12.826 -1.2800  0.1464 -1.5421
13923TIP3    H263185   5.676   1.947  12.857 -0.7947 -0.4879 -0.7700
13924TIP3   OH263186   3.494   3.515  17.195 -0.0800  0.3779  0.0752
13924TIP3    H163187   3.524   3.488  17.282  1.1803  1.2487 -0.0686
13924TIP3    H263188   3.575   3.531  17.146 -0.7839  0.8903 -0.9319
13925TIP3   OH263189   3.223   3.424  13.569 -0.6352  0.2305 -0.5342
13925TIP3    H163190   3.288   3.375  13.518 -1.1869  0.6380 -1.6344
13925TIP3    H263191   3.237   3.515  13.544  0.5362  0.6871  1.6716
13926TIP3   OH263192   2.585   0.367   5.600  0.4085  0.1057  0.0298
13926TIP3    H163193   2.676   0.393   5.612 -0.0762  1.4081  0.9205
13926TIP3    H263194   2.569   0.305   5.671  0.2423  0.8157  0.6163
13927TIP3   OH263195   0.921   4.466   0.427  0.2746 -0.0568  0.2218
13927TIP3    H163196   0.847   4.443   0.483 -0.7663  2.1016 -0.2062
13927TIP3    H263197   0.917   4.402   0.355 -1.1851  0.0305  0.2029
13928TIP3   OH263198   0.904   6.696  11.372  0.0789 -0.3590 -0.4702
13928TIP3    H163199   0.917   6.602  11.384 -0.3505 -0.4429 -0.6538
13928TIP3    H263200   0.915   6.710  11.278 -0.3896 -0.3110 -0.5210
13929TIP3   OH263201   4.591   5.799  10.306  0.3581  0.0169 -0.5460
13929TIP3    H163202   4.644   5.873  10.334  0.7198 -0.3496 -0.2369
13929TIP3    H263203   4.632   5.723  10.350 -1.4838 -0.0391  1.1622
13930TIP3   OH263204   1.672   3.438   5.433  0.2699 -1.0157 -0.7195
13930TIP3    H163205   1.759   3.472   5.412  0.2869 -1.9763 -2.3022
13930TIP3    H263206   1.681   3.343   5.427 -0.6465 -1.1657  0.1258
13931TIP3   OH263207   1.762   0.969  17.085 -0.1529  0.2190  0.4738
13931TIP3    H163208   1.850   1.001  17.105 -0.4346  0.2972  1.6402
13931TIP3    H263209   1.724   1.037  17.029  0.9658 -0.4256 -1.1151
13932TIP3   OH263210   6.447   2.300  12.276 -0.4088  0.2719  0.4621
13932TIP3    H163211   6.464   2.387  12.239 -0.8495 -0.2586 -1.0197
13932TIP3    H263212   6.482   2.305  12.365  0.3558  1.6960  0.1044
13933TIP3   OH263213   0.789   0.397  11.773  0.4689  0.0008  0.2871
13933TIP3    H163214   0.745   0.313  11.786  2.1791 -0.7828  1.0917
13933TIP3    H263215   0.730   0.460  11.815  0.1205 -1.0320  1.3902
13934TIP3   OH263216   0.627   3.256   5.318  0.4046  0.5224  1.0769
13934TIP3    H163217   0.613   3.183   5.259 -1.7229 -0.2153  2.4292
13934TIP3    H263218   0.622   3.334   5.262  0.9111 -0.2650 -0.0805
13935TIP3   OH263219   5.277   5.846  13.194  0.0011 -0.5520 -0.2028
13935TIP3    H163220   5.368   5.841  13.225 -0.0950  0.1051  0.1927
13935TIP3    H263221   5.262   5.762  13.150  0.5802 -0.9408  0.3372
13936TIP3   OH263222   0.313   4.109   3.735  0.0393 -0.3176 -0.1747
13936TIP3    H163223   0.401   4.124   3.767  0.3898 -0.1679 -1.1783
13936TIP3    H263224   0.312   4.016   3.710 -0.2807 -0.4762  0.4227
13937TIP3   OH263225   5.673   3.651  11.445 -0.5297  0.2293  1.3826
13937TIP3    H163226   5.668   3.580  11.381 -0.0528  1.6671 -0.3108
13937TIP3    H263227   5.582   3.672  11.465 -0.6657 -0.9317  1.9745
13938TIP3   OH263228   2.711   3.105   4.574  1.1230  0.5198 -0.5694
13938TIP3    H163229   2.764   3.171   4.618 -0.2390  1.0454  0.3021
13938TIP3    H263230   2.736   3.023   4.618  0.9758  0.8083  0.0617
13939TIP3   OH263231   4.475   3.085  15.247  0.1580 -0.4423  0.0389
13939TIP3    H163232   4.407   3.046  15.193 -0.5250  0.2550  0.3930
13939TIP3    H263233   4.496   3.167  15.204 -1.4099  0.8093  1.6002
13940TIP3   OH263234   3.091   0.265   0.899 -0.1494  0.4025 -0.3136
13940TIP3    H163235   3.117   0.340   0.845  0.6520  0.0457 -0.4311
13940TIP3    H263236   3.165   0.251   0.959 -0.1499 -0.4948 -0.5099
13941TIP3   OH263237   3.808   3.437  11.238  0.1520  0.4243  0.3017
13941TIP3    H163238   3.848   3.356  11.271 -1.0242 -0.4101 -0.2884
13941TIP3    H263239   3.874   3.474  11.179  0.5694 -0.2603  0.3352
13942TIP3   OH263240   3.780   0.798   1.301 -0.5053  0.1710  0.2370
13942TIP3    H163241   3.777   0.743   1.380 -0.5066 -0.0269  0.1009
13942TIP3    H263242   3.873   0.817   1.288 -0.6327  1.4305  1.1248
13943TIP3   OH263243   3.508   2.264  16.190 -0.1848 -0.3615  0.4595
13943TIP3    H163244   3.512   2.354  16.221 -1.5428  0.2135 -0.9631
13943TIP3    H263245   3.585   2.255  16.133 -0.1153 -0.0688  0.5055
13944TIP3   OH263246   3.704   6.442   2.211 -0.5626 -0.2843 -0.6495
13944TIP3    H163247   3.690   6.372   2.147  0.5578  0.8102 -2.1263
13944TIP3    H263248   3.659   6.518   2.174  1.8081  0.9090 -1.1783
13945TIP3   OH263249   3.881   0.963   5.856  0.0124 -0.1269 -0.5143
13945TIP3    H163250   3.931   0.886   5.830  0.6661 -0.7081  2.2888
13945TIP3    H263251   3.805   0.928   5.902  0.0575  0.8769  0.3427
13946TIP3   OH263252   1.764   0.964  16.511  0.3928 -0.3347 -0.2038
13946TIP3    H163253   1.740   0.880  16.472  0.2137  0.7809 -2.5976
13946TIP3    H263254   1.857   0.955  16.533  0.4130 -1.1139 -0.5922
13947TIP3   OH263255   1.938   0.945   3.340  0.0205 -0.3071  0.1512
13947TIP3    H163256   1.965   0.966   3.250 -3.5577  0.3294 -0.8295
13947TIP3    H263257   1.924   0.850   3.338 -2.5429  0.0700 -0.6899
13948TIP3   OH263258   4.208   1.005   5.986 -0.3053 -0.4424 -0.2674
13948TIP3    H163259   4.144   0.984   6.054 -0.9875  0.0699 -0.7378
13948TIP3    H263260   4.209   1.101   5.983  0.3437 -0.4509 -0.3972
13949TIP3   OH263261   6.170   6.279   2.529  0.0203 -0.6457  0.6726
13949TIP3    H163262   6.225   6.203   2.551 -1.0498 -2.1915 -1.7871
13949TIP3    H263263   6.199   6.304   2.441  1.2152  2.6351  1.9238
13950TIP3   OH263264   1.780   0.708  17.201  0.6494 -0.1084 -0.1103
13950TIP3    H163265   1.685   0.710  17.214  0.5769  0.6460 -0.6713
13950TIP3    H263266   1.801   0.796  17.170  1.6938  0.0639  1.0816
13951TIP3   OH263267   4.322   3.277  16.605 -0.1560 -0.0550  0.2173
13951TIP3    H163268   4.307   3.362  16.646  1.3607  0.1790  0.3173
13951TIP3    H263269   4.269   3.216  16.657 -1.0507  0.7720  0.3019
13952TIP3   OH263270   2.628   6.248  12.048  0.3468 -0.2202 -0.3637
13952TIP3    H163271   2.672   6.209  11.973 -1.8516 -0.6027 -1.4976
13952TIP3    H263272   2.569   6.314  12.011 -0.2284  0.0993  1.0608
13953TIP3   OH263273   1.719   6.582   1.103 -0.2653 -0.1925  0.1861
13953TIP3    H163274   1.745   6.519   1.036  0.2907 -1.3087  1.4311
13953TIP3    H263275   1.757   6.665   1.073 -0.2563 -0.6208 -1.0195
13954TIP3   OH263276   0.376   4.247  16.074 -0.3840 -0.0489 -0.0307
13954TIP3    H163277   0.427   4.322  16.042  1.0944 -0.7942  0.5451
13954TIP3    H263278   0.441   4.181  16.097 -1.6637 -1.3905 -0.1877
13955TIP3   OH263279   6.401   0.004   6.094  0.3803 -1.2096 -0.8030
13955TIP3    H163280   6.423   0.088   6.055 -2.8192  0.3838  0.6916
13955TIP3    H263281   6.446   0.004   6.178  2.1390 -1.9768 -1.7047
13956TIP3   OH263282   0.580   4.187  12.554  0.5573 -0.2466 -0.0691
13956TIP3    H163283   0.652   4.128  12.530  1.4243  0.2640  1.2325
13956TIP3    H263284   0.571   4.178  12.648 -0.3371  0.5462 -0.0690
13957TIP3   OH263285   4.627   3.697  15.911 -0.0319 -0.2679  0.2936
13957TIP3    H163286   4.556   3.725  15.970  0.8647  1.3323  0.6373
13957TIP3    H263287   4.623   3.758  15.838  0.0252 -1.1363 -0.4437
13958TIP3   OH263288   4.787   0.843   1.997 -0.1033 -0.3766  0.1940
13958TIP3    H163289   4.875   0.841   1.961 -0.8357 -1.5825 -1.5865
13958TIP3    H263290   4.773   0.934   2.022  2.1367 -0.4431  1.7841
13959TIP3   OH263291   1.280   4.403   6.606  0.5075 -0.2053  0.5791
13959TIP3    H163292   1.220   4.331   6.626 -0.2080 -0.3959 -2.1315
13959TIP3    H263293   1.363   4.376   6.645 -0.5981 -0.9152  2.5276
13960TIP3   OH263294   6.626   5.663   4.124  0.0342 -0.2870  0.0540
13960TIP3    H163295   6.678   5.632   4.197  3.0115  0.3477 -1.7261
13960TIP3    H263296   6.636   5.758   4.125 -3.7842  0.2129  1.5865
13961TIP3   OH263297   4.084   1.356   1.705 -0.5115 -0.2554  0.3905
13961TIP3    H163298   3.990   1.370   1.694 -0.9031 -1.6052  1.7869
13961TIP3    H263299   4.098   1.266   1.679  0.6555  0.3546 -1.1404
13962TIP3   OH263300   4.538   5.003  15.159  0.0240  0.0363  0.2414
13962TIP3    H163301   4.462   5.061  15.167 -0.3947 -0.4609 -0.1063
13962TIP3    H263302   4.602   5.053  15.109  0.2048  0.7376  1.1669
13963TIP3   OH263303   6.071   4.903  15.309 -0.4727 -0.1324 -0.1249
13963TIP3    H163304   6.106   4.863  15.229 -1.6201 -0.1411 -0.6302
13963TIP3    H263305   6.016   4.835  15.348 -0.3487  0.0609  0.3868
13964TIP3   OH263306   3.051   4.810   6.622  0.4260 -0.3106 -0.2919
13964TIP3    H163307   3.045   4.743   6.554  1.5150  0.1010 -0.8022
13964TIP3    H263308   3.015   4.889   6.582 -2.3230 -0.9546  0.8285
13965TIP3   OH263309   0.783   4.963   6.687 -0.4275  0.3290 -0.5921
13965TIP3    H163310   0.811   5.002   6.769 -0.5552  1.2268 -0.9775
13965TIP3    H263311   0.777   4.869   6.706 -2.3708  0.7392  0.9906
13966TIP3   OH263312   1.112   6.317   5.657  0.5201  0.4198 -0.6572
13966TIP3    H163313   1.165   6.247   5.620  2.3341  0.8563  1.0413
13966TIP3    H263314   1.058   6.347   5.584  2.6153 -0.0193 -2.4346
13967TIP3   OH263315   5.805   4.854  15.101  0.3743  0.1470  0.2905
13967TIP3    H163316   5.730   4.799  15.124  0.3070  0.0807 -0.0897
13967TIP3    H263317   5.818   4.909  15.178 -0.2589  0.3773  0.2405
13968TIP3   OH263318   5.758   0.103   1.407  0.2941 -0.1968  0.1233
13968TIP3    H163319   5.810   0.160   1.465  0.8744 -0.6301  0.0341
13968TIP3    H263320   5.741   0.157   1.330  1.6834 -0.4706 -0.3823
13969TIP3   OH263321   1.170   4.184  14.430 -0.0489  0.2383 -0.0975
13969TIP3    H163322   1.121   4.152  14.354 -0.5400 -0.7048  0.5972
13969TIP3    H263323   1.154   4.118  14.498 -0.9298  1.8768  1.3125
13970TIP3   OH263324   4.158   0.829   5.675 -0.5414 -0.2368  0.1621
13970TIP3    H163325   4.091   0.764   5.696 -0.0744 -0.6644  0.3411
13970TIP3    H263326   4.111   0.898   5.627 -0.9929 -0.8257 -0.2472
13971TIP3   OH263327   6.148   6.236  13.070 -0.4674 -0.4998 -0.6975
13971TIP3    H163328   6.230   6.250  13.119 -0.7118  1.4349 -0.8160
13971TIP3    H263329   6.176   6.192  12.990  0.4130 -0.1807 -0.5778
13972TIP3   OH263330   0.590   1.608   3.378  0.1084  0.5451 -0.0002
13972TIP3    H163331   0.503   1.627   3.412  0.3668 -0.8307  1.5551
13972TIP3    H263332   0.582   1.617   3.283 -2.0050 -0.6020  0.0353
13973TIP3   OH263333   5.944   5.394   1.913 -0.0615  0.2351 -0.2928
13973TIP3    H163334   6.007   5.326   1.938  0.4754  0.6786 -0.4227
13973TIP3    H263335   5.993   5.450   1.852  0.0639  1.7423  1.1592
13974TIP3   OH263336   5.596   2.449  16.814 -0.0479 -0.3843  0.0656
13974TIP3    H163337   5.671   2.399  16.844 -0.7472 -0.9114  0.9624
13974TIP3    H263338   5.551   2.475  16.895 -1.9508 -1.7989 -0.5104
13975TIP3   OH263339   1.769   1.452  14.469 -0.0659 -0.0152  0.7746
13975TIP3    H163340   1.841   1.421  14.524 -0.2013  1.8922  2.0744
13975TIP3    H263341   1.690   1.421  14.513 -0.1069 -0.3963  0.4344
13976TIP3   OH263342   2.481   2.465  10.935 -0.4224 -0.3401  0.1370
13976TIP3    H163343   2.427   2.414  10.874 -0.0663  0.9526 -1.2883
13976TIP3    H263344   2.567   2.469  10.893 -0.0248  0.1124  0.9806
13977TIP3   OH263345   5.579   2.264  11.691  0.1868 -0.6063  0.1943
13977TIP3    H163346   5.549   2.293  11.604  1.4700  1.2548  0.3673
13977TIP3    H263347   5.654   2.207  11.672  0.3548 -0.3473  0.0805
13978TIP3   OH263348   3.393   2.103  14.913  0.5521 -0.1906 -0.6662
13978TIP3    H163349   3.414   2.018  14.953 -0.8875 -0.2489  0.0068
13978TIP3    H263350   3.451   2.109  14.838  2.3051 -0.7501  0.5943
13979TIP3   OH263351   3.210   1.501   5.824 -0.2784 -0.2742  0.5701
13979TIP3    H163352   3.202   1.560   5.900 -0.3285  0.6643 -0.1513
13979TIP3    H263353   3.215   1.414   5.862 -0.2206  0.1930  1.6663
13980TIP3   OH263354   4.506   1.746   3.920 -0.2621 -0.1640  0.3396
13980TIP3    H163355   4.512   1.678   3.987  0.6690 -0.5545 -0.1329
13980TIP3    H263356   4.457   1.707   3.849  2.1983 -1.1471 -0.8821
13981TIP3   OH263357   4.349   6.225   0.392  0.5915 -0.1830  0.5483
13981TIP3    H163358   4.437   6.217   0.356  1.4044  0.5165  2.3078
13981TIP3    H263359   4.363   6.247   0.484 -1.4423  1.5186  0.4823
13982TIP3   OH263360   4.538   2.935  16.225  0.0959 -0.4378 -0.0943
13982TIP3    H163361   4.614   2.931  16.167 -0.3188  1.6687 -0.8114
13982TIP3    H263362   4.563   2.998  16.293 -0.6352 -0.4900  0.2307
13983TIP3   OH263363   2.935   5.009   4.004  0.1487  0.0740 -0.9033
13983TIP3    H163364   2.967   5.091   3.966  2.0612 -0.7870 -1.2109
13983TIP3    H263365   2.930   4.949   3.930 -0.9139 -0.1900 -0.6178
13984TIP3   OH263366   6.380   6.459  16.095  0.1677 -0.2648  0.6945
13984TIP3    H163367   6.406   6.551  16.097  1.9931 -0.7468 -0.2696
13984TIP3    H263368   6.284   6.461  16.086  0.3454  1.5441 -1.0051
13985TIP3   OH263369   5.229   5.588   1.288  0.7410 -0.4728  0.2295
13985TIP3    H163370   5.163   5.652   1.315  0.0976 -0.7939 -0.5606
13985TIP3    H263371   5.303   5.603   1.347  1.4901  2.4896 -1.3881
13986TIP3   OH263372   1.010   4.853  13.695  0.2376  0.3369  0.0770
13986TIP3    H163373   1.080   4.873  13.756  0.4218 -0.6303  0.1891
13986TIP3    H263374   1.045   4.876  13.609  0.4833  0.3871  0.1914
13987TIP3   OH263375   2.383   4.006   3.155 -0.0236  0.4270 -0.5891
13987TIP3    H163376   2.343   3.985   3.070 -1.4756  1.6186 -0.2154
13987TIP3    H263377   2.404   3.920   3.192  0.3149 -0.1234 -2.0056
13988TIP3   OH263378   6.713   4.136   3.113  0.0809 -0.1448  0.0025
13988TIP3    H163379   6.719   4.231   3.105  0.9951  0.0416  2.5091
13988TIP3    H263380   6.676   4.108   3.030 -0.1629  2.3941 -0.8027
13989TIP3   OH263381   1.005   4.227   6.306 -0.7062  0.1628 -0.7185
13989TIP3    H163382   1.041   4.147   6.268 -0.1845  0.6974 -1.3447
13989TIP3    H263383   0.916   4.232   6.272 -0.5465  0.1546 -1.1364
13990TIP3   OH263384   4.327   2.639  13.267  0.7767  0.9036 -0.9421
13990TIP3    H163385   4.309   2.675  13.181  0.1357 -0.0396 -1.2123
13990TIP3    H263386   4.347   2.546  13.251 -1.6876  0.1452  0.1236
13991TIP3   OH263387   5.757   2.360  16.261  0.4830  0.1237  0.2087
13991TIP3    H163388   5.783   2.370  16.353  0.0225  2.6720  0.0891
13991TIP3    H263389   5.677   2.307  16.266  1.1574 -0.8292  1.1768
13992TIP3   OH263390   1.092   1.373   0.746  0.5215  0.4886 -0.1378
13992TIP3    H163391   1.182   1.390   0.718  0.5549  0.3993 -0.0845
13992TIP3    H263392   1.100   1.346   0.837  0.6157 -1.2965 -0.6621
13993TIP3   OH263393   0.573   6.150  12.060  0.4330  0.3471  0.3157
13993TIP3    H163394   0.528   6.211  12.118 -0.0396  2.6332 -2.3146
13993TIP3    H263395   0.504   6.116  12.003  1.1451 -0.4730 -0.0679
13994TIP3   OH263396   2.080   4.557   3.485 -0.0089  0.1848 -0.0874
13994TIP3    H163397   2.078   4.587   3.394  0.2456  0.0431 -0.1417
13994TIP3    H263398   2.001   4.504   3.495  1.6463 -2.6636 -1.2365
13995TIP3   OH263399   5.698   5.342  15.129  0.3327 -0.5565  0.1567
13995TIP3    H163400   5.665   5.255  15.153 -0.0726 -0.3578  0.3143
13995TIP3    H263401   5.624   5.401  15.142  0.3983 -0.2931 -0.6367
13996TIP3   OH263402   5.422   1.093  14.371  0.2278 -0.3338  0.2469
13996TIP3    H163403   5.403   1.183  14.396  0.6128  0.3900 -1.9858
13996TIP3    H263404   5.372   1.040  14.434 -0.8024  1.4335  0.9548
13997TIP3   OH263405   4.876   4.590  14.813 -0.7491  0.7231 -0.3751
13997TIP3    H163406   4.871   4.634  14.898 -1.3282  0.6131 -0.3456
13997TIP3    H263407   4.894   4.660  14.750 -0.1961  0.7846 -0.1434
13998TIP3   OH263408   1.821   0.138   4.777 -0.1808  0.0142  0.2707
13998TIP3    H163409   1.775   0.060   4.807 -0.0840  0.5073  1.7543
13998TIP3    H263410   1.866   0.171   4.855 -0.3104  1.6101 -0.2962
13999TIP3   OH263411   3.831   2.740  13.896 -0.2419 -0.1837  0.5412
13999TIP3    H163412   3.903   2.688  13.861  0.0364  1.7602 -1.9156
13999TIP3    H263413   3.774   2.677  13.939  0.7061 -2.3325 -1.2834
14000TIP3   OH263414   1.406   1.493  16.398 -0.1005  0.1695 -0.2869
14000TIP3    H163415   1.416   1.578  16.440  1.3988  0.2307 -0.7291
14000TIP3    H263416   1.316   1.492  16.366  0.2181  2.0656 -1.3059
14001TIP3   OH263417   2.477   2.333  16.176  0.4799  0.1572  0.1890
14001TIP3    H163418   2.477   2.328  16.271  0.3395  3.0491  0.3713
14001TIP3    H263419   2.395   2.377  16.154  0.3894 -0.7047 -1.2918
14002TIP3   OH263420   0.467   1.103   2.685  0.3546  0.3567 -0.1346
14002TIP3    H163421   0.420   1.040   2.739 -2.1297  1.3509 -1.0863
14002TIP3    H263422   0.555   1.065   2.675 -0.1348 -1.3847  1.9005
14003TIP3   OH263423   4.810   2.637  14.979 -0.3325  0.0915  0.0345
14003TIP3    H163424   4.789   2.718  15.027  2.2837  0.4137  0.7009
14003TIP3    H263425   4.888   2.659  14.929 -1.0804 -1.2962 -1.7840
14004TIP3   OH263426   0.527   0.461  13.409  0.4043 -0.5748  0.2182
14004TIP3    H163427   0.536   0.541  13.461 -0.2442 -0.4541  0.1492
14004TIP3    H263428   0.560   0.392  13.466  0.6359 -0.3073  0.4127
14005TIP3   OH263429   5.135   2.365  16.944  0.6161 -0.6923 -0.3114
14005TIP3    H163430   5.177   2.372  16.858 -0.4943 -2.1631 -0.9881
14005TIP3    H263431   5.172   2.285  16.982  2.1838  0.7180  1.2059
14006TIP3   OH263432   3.513   5.898   4.671  0.4963  0.7622  0.6678
14006TIP3    H163433   3.589   5.909   4.727  1.1144 -0.1017  0.0167
14006TIP3    H263434   3.484   5.808   4.688  0.2794  0.7253  0.1190
14007TIP3   OH263435   4.184   4.229   0.034  0.4406  0.2497  0.2818
14007TIP3    H163436   4.208   4.186   0.116 -0.0151 -1.1607 -0.3080
14007TIP3    H263437   4.205   4.321   0.048  0.3049  0.0307  2.0060
14008TIP3   OH263438   4.617   2.005   4.009 -0.2994  0.2904  0.1879
14008TIP3    H163439   4.562   1.936   3.972  0.4490  0.6268 -1.6343
14008TIP3    H263440   4.652   1.968   4.090 -0.6472 -1.1178 -0.2966
14009TIP3   OH263441   0.239   1.647   0.055  0.2209 -0.0980  0.1071
14009TIP3    H163442   0.322   1.614   0.019  0.2048 -0.6919  0.6127
14009TIP3    H263443   0.190   1.568   0.078 -0.0880  0.2745  0.7228
14010TIP3   OH263444   6.070   4.491   3.666  0.4148 -0.3481 -0.2578
14010TIP3    H163445   6.136   4.558   3.683 -0.6384  0.5565  0.3429
14010TIP3    H263446   6.062   4.444   3.749 -1.7356  1.4022  0.5948
14011TIP3   OH263447   4.279   5.566  12.654 -0.5450 -0.2062  0.2062
14011TIP3    H163448   4.234   5.555  12.571  0.5268 -0.3371 -0.3648
14011TIP3    H263449   4.312   5.479  12.676  1.5241  0.3543 -0.6027
14012TIP3   OH263450   4.388   4.533  12.861 -0.0638 -0.0079 -0.2927
14012TIP3    H163451   4.317   4.591  12.834 -1.7965 -1.8606  0.1381
14012TIP3    H263452   4.352   4.444  12.853  2.2394 -1.0152 -0.1770
14013TIP3   OH263453   2.565   2.112  16.704 -0.1603 -0.2018 -0.3038
14013TIP3    H163454   2.614   2.188  16.733 -0.8179  0.1414 -0.0847
14013TIP3    H263455   2.626   2.039  16.714  0.6520  0.3698 -1.0368
14014TIP3   OH263456   4.129   1.440  11.146  0.1842 -0.1095  0.4912
14014TIP3    H163457   4.215   1.481  11.157  0.8639 -0.9485 -1.5029
14014TIP3    H263458   4.113   1.396  11.229  0.6298  1.9535  1.7247
14015TIP3   OH263459   5.381   5.883  16.009  0.1790  0.7824 -0.1318
14015TIP3    H163460   5.457   5.851  15.960  2.0472  3.7459  0.7085
14015TIP3    H263461   5.351   5.960  15.961 -0.4380  1.3821  1.1878
14016TIP3   OH263462   0.325   1.671  16.927  0.0839  0.2603  0.3084
14016TIP3    H163463   0.373   1.633  17.001  0.1318 -0.1155  0.0833
14016TIP3    H263464   0.290   1.595  16.880 -1.4793  0.5469  0.9638
14017TIP3   OH263465   4.664   1.328  15.411  0.2109 -0.0424 -0.6381
14017TIP3    H163466   4.656   1.287  15.325 -2.1122  1.3077 -1.0844
14017TIP3    H263467   4.632   1.262  15.472  0.0802 -0.2960 -0.9809
14018TIP3   OH263468   3.694   3.949  11.921  0.2475  0.6787  0.3539
14018TIP3    H163469   3.634   3.904  11.980  1.1099  0.0639  0.7747
14018TIP3    H263470   3.664   3.925  11.833 -1.2092  1.8187  0.5287
14019TIP3   OH263471   0.255   1.276   2.677 -0.8086  0.7445 -0.2944
14019TIP3    H163472   0.309   1.294   2.754 -1.4382  1.1938  0.0403
14019TIP3    H263473   0.305   1.210   2.628 -0.0734  0.9744  0.1374
14020TIP3   OH263474   3.212   0.663   2.766  0.1353  0.2499  0.5059
14020TIP3    H163475   3.300   0.674   2.729 -0.7416  2.3000 -1.0102
14020TIP3    H263476   3.226   0.665   2.861  1.9255 -1.2434  0.3215
14021TIP3   OH263477   4.600   2.035  11.387 -0.3458  0.3959 -0.1020
14021TIP3    H163478   4.634   2.108  11.440 -0.0095 -0.5769  1.0431
14021TIP3    H263479   4.675   2.009  11.333  0.0625 -0.2553  0.7732
14022TIP3   OH263480   1.785   3.702  16.916  0.2666  0.3148 -0.2478
14022TIP3    H163481   1.841   3.774  16.887  0.9450  0.3866  1.1948
14022TIP3    H263482   1.738   3.736  16.992  1.4509 -1.0986  1.1607
14023TIP3   OH263483   1.487   3.033  15.966  0.4468  0.2087  0.0346
14023TIP3    H163484   1.469   2.961  16.027 -0.6127 -0.3303 -0.8969
14023TIP3    H263485   1.522   3.103  16.022 -0.1433 -0.4089  1.2049
14024TIP3   OH263486   1.698   1.412   2.082 -0.0121  0.3946 -0.3772
14024TIP3    H163487   1.681   1.342   2.019  1.8538 -0.8048  0.3884
14024TIP3    H263488   1.612   1.434   2.117 -0.5153 -2.7259  0.5645
14025TIP3   OH263489   0.186   0.063   2.102  0.5764  0.4513  0.0654
14025TIP3    H163490   0.212  -0.025   2.073 -0.7299 -0.4345  1.5353
14025TIP3    H263491   0.147   0.049   2.188  1.0798  2.5871  0.6498
14026TIP3   OH263492   0.043   0.068  15.155  0.1842 -0.4299  0.5311
14026TIP3    H163493   0.020  -0.002  15.095 -2.8008 -0.1887  1.3316
14026TIP3    H263494   0.040   0.148  15.102 -0.3319 -0.4586  0.5196
14027TIP3   OH263495   0.968   2.805  13.099  0.1167  0.7534 -0.0697
14027TIP3    H163496   0.906   2.866  13.138 -0.1671  0.7617 -0.5289
14027TIP3    H263497   1.049   2.817  13.149 -0.8226 -0.6903  1.8151
14028TIP3   OH263498   0.693   1.781  16.892 -0.1561 -0.2027  0.1823
14028TIP3    H163499   0.622   1.791  16.955 -1.1784 -0.7587 -0.8568
14028TIP3    H263500   0.757   1.727  16.937 -0.3778  0.3329  1.1466
14029TIP3   OH263501   5.826   0.505  14.776 -0.0498 -0.6950  0.2498
14029TIP3    H163502   5.913   0.528  14.808 -0.4179 -0.6942  1.2729
14029TIP3    H263503   5.768   0.572  14.814 -0.4312 -0.4159 -0.8049
14030TIP3   OH263504   6.437   5.311   4.465  0.0653 -0.1018 -0.1924
14030TIP3    H163505   6.390   5.282   4.543 -1.0654  0.2738 -0.7198
14030TIP3    H263506   6.414   5.404   4.457 -1.0711 -0.4933 -1.8128
14031TIP3   OH263507   1.870   3.419   2.646  0.2087 -0.0248  0.3765
14031TIP3    H163508   1.944   3.474   2.620  1.8356 -1.3899  2.0051
14031TIP3    H263509   1.821   3.472   2.709  0.0002  0.7261 -0.4036
14032TIP3   OH263510   3.746   6.660  14.285 -0.3101 -0.8147 -0.0707
14032TIP3    H163511   3.710   6.732  14.337 -0.3165 -1.7845  1.2727
14032TIP3    H263512   3.833   6.692  14.259 -0.2813 -0.3489  0.5778
14033TIP3   OH263513   2.429   4.199   0.277  0.3660  0.3605 -0.5807
14033TIP3    H163514   2.338   4.174   0.295  0.4981  0.7114  0.6217
14033TIP3    H263515   2.423   4.262   0.205 -0.2490 -0.4934 -1.2854
14034TIP3   OH263516   1.337   6.699   4.339  0.1790 -0.3516 -0.4804
14034TIP3    H163517   1.410   6.733   4.390  0.3191 -0.5511 -0.5466
14034TIP3    H263518   1.372   6.621   4.295 -0.1675 -0.6501 -0.2389
14035TIP3   OH263519   6.617   2.520   3.750 -0.5384  0.6829 -0.3422
14035TIP3    H163520   6.602   2.601   3.799 -0.6733 -0.5753  1.7087
14035TIP3    H263521   6.707   2.495   3.770 -1.5099 -1.3904  1.6206
14036TIP3   OH263522   5.604   1.805   1.153  0.6015 -0.2124 -0.2768
14036TIP3    H163523   5.614   1.712   1.173  1.9374 -0.2243 -0.9105
14036TIP3    H263524   5.589   1.808   1.059 -1.4570  0.1014  0.0469
14037TIP3   OH263525   0.583   1.300  15.560 -0.1864  0.5269 -0.0131
14037TIP3    H163526   0.612   1.330  15.646 -0.7096  0.6692  0.1140
14037TIP3    H263527   0.655   1.245  15.528 -0.3542 -0.2025  0.8651
14038TIP3   OH263528   1.432   4.662   2.246 -0.0277  0.3384 -0.5435
14038TIP3    H163529   1.398   4.743   2.207  0.0500  1.1748  1.0927
14038TIP3    H263530   1.369   4.595   2.221 -0.5697  1.0678 -1.1635
14039TIP3   OH263531   3.319   0.824  11.940 -0.5866 -0.4839  0.5237
14039TIP3    H163532   3.302   0.760  11.871 -1.5134 -0.3528  0.6248
14039TIP3    H263533   3.289   0.907  11.903  0.3042 -0.1670  0.5204
14040TIP3   OH263534   3.687   1.765   2.280 -0.0825 -0.2937 -0.0744
14040TIP3    H163535   3.691   1.799   2.191 -0.4626  2.2106  0.8308
14040TIP3    H263536   3.639   1.682   2.272 -1.2988  0.5617 -2.0150
14041TIP3   OH263537   3.521   2.005   0.354 -0.0639 -0.3367 -0.1915
14041TIP3    H163538   3.480   1.926   0.389 -0.6884  0.3076  0.5440
14041TIP3    H263539   3.460   2.076   0.375  1.4468  0.6505  1.0131
14042TIP3   OH263540   0.643   1.742  11.722 -0.2220 -0.4042  0.7053
14042TIP3    H163541   0.558   1.699  11.710  0.4388 -1.8950  1.2424
14042TIP3    H263542   0.690   1.724  11.641 -0.4463  0.5127  0.3644
14043TIP3   OH263543   3.569   4.598   6.559  0.3730  0.3319  0.1106
14043TIP3    H163544   3.501   4.631   6.617 -1.2524  0.7230 -1.9309
14043TIP3    H263545   3.639   4.663   6.564 -0.3123  1.0379  0.6284
14044TIP3   OH263546   6.565   6.144   3.303  0.2068  0.5958 -0.3198
14044TIP3    H163547   6.629   6.204   3.339 -1.4868  1.8958  0.6315
14044TIP3    H263548   6.555   6.076   3.370  0.4007  0.5336 -0.3547
14045TIP3   OH263549   6.678   4.397  14.926 -0.2130  0.1750  0.8423
14045TIP3    H163550   6.769   4.420  14.947 -0.1592  1.1897 -0.3903
14045TIP3    H263551   6.669   4.422  14.834 -2.1061  1.1847  1.2957
14046TIP3   OH263552   5.108   0.847  11.762  0.0136 -0.2055 -0.0659
14046TIP3    H163553   5.046   0.896  11.708 -0.4398 -0.9100 -0.1914
14046TIP3    H263554   5.054   0.811  11.833  0.6494  0.9609  1.0422
14047TIP3   OH263555   3.395   6.283   3.569  0.2618 -0.1582 -0.4639
14047TIP3    H163556   3.477   6.250   3.606 -0.9034 -2.2349  0.4001
14047TIP3    H263557   3.327   6.239   3.621 -1.3939  0.8305 -1.7609
14048TIP3   OH263558   4.392   4.687   5.754  0.0359  0.5682 -0.3562
14048TIP3    H163559   4.329   4.674   5.683 -0.9517 -1.5283  0.8477
14048TIP3    H263560   4.475   4.654   5.720 -0.0719  1.0377 -1.0790
14049TIP3   OH263561   4.107   4.374   1.890  0.1886  0.2843  0.1251
14049TIP3    H163562   4.191   4.384   1.935  0.4576 -1.4227  0.0247
14049TIP3    H263563   4.043   4.363   1.960 -0.2931  3.6384  0.2933
14050TIP3   OH263564   5.474   2.962   0.882  0.7534  0.1200 -0.2791
14050TIP3    H163565   5.507   2.920   0.961  0.1139  0.4351  0.1602
14050TIP3    H263566   5.391   3.001   0.908  1.4312  1.8666 -0.5973
14051TIP3   OH263567   4.338   5.840  10.162 -0.0285  0.0548  0.1765
14051TIP3    H163568   4.427   5.831  10.197 -0.0451  1.0298  0.4840
14051TIP3    H263569   4.292   5.894  10.226 -1.0828 -1.1239  0.4279
14052TIP3   OH263570   1.044   4.445   6.043  0.2137 -0.0926  1.0422
14052TIP3    H163571   1.005   4.449   5.956  0.2181 -0.5035  1.0192
14052TIP3    H263572   0.970   4.449   6.103  0.2855  1.2739  1.0415
14053TIP3   OH263573   6.699   6.562   3.422  0.2226  0.8678  0.1632
14053TIP3    H163574   6.738   6.649   3.413  1.8768  0.3201  1.6202
14053TIP3    H263575   6.700   6.525   3.334  0.7452  1.8345 -0.2376
14054TIP3   OH263576   3.606   3.207  10.943 -0.2528 -0.6234  0.7607
14054TIP3    H163577   3.591   3.132  10.885  0.1766 -0.0969 -0.0346
14054TIP3    H263578   3.687   3.185  10.989  0.6630 -0.0143 -0.5201
14055TIP3   OH263579   1.847   4.012  12.542  0.3565 -0.1987 -0.0174
14055TIP3    H163580   1.864   4.005  12.636  1.1807  2.3285  0.0658
14055TIP3    H263581   1.902   3.944  12.503  1.2810 -0.1852  1.2158
14056TIP3   OH263582   2.004   6.367  15.091 -0.0508 -0.0801 -1.0687
14056TIP3    H163583   1.933   6.431  15.098  0.9247  0.7513  1.6583
14056TIP3    H263584   2.076   6.415  15.050  0.0704  0.0266 -0.7261
14057TIP3   OH263585   1.173   1.464   3.617  0.4674 -0.3677  0.4112
14057TIP3    H163586   1.257   1.427   3.590  0.4703 -0.4262  0.4991
14057TIP3    H263587   1.134   1.397   3.673  0.2446 -0.4481  0.1598
14058TIP3   OH263588   6.003   2.599  13.975 -0.5986 -0.0164 -0.0581
14058TIP3    H163589   5.966   2.520  14.015  1.5509  0.0978  2.2349
14058TIP3    H263590   6.010   2.578  13.882 -2.4204 -1.5815  0.1339
14059TIP3   OH263591   2.864   5.197   0.639  0.3042 -0.5363 -0.5708
14059TIP3    H163592   2.861   5.114   0.686 -3.2859 -0.3764 -0.3963
14059TIP3    H263593   2.885   5.262   0.705 -1.6550 -0.7112  0.2463
14060TIP3   OH263594   5.080   5.571   2.743 -0.3136  0.6627 -0.3842
14060TIP3    H163595   5.157   5.613   2.702  0.7315  0.3313  1.1926
14060TIP3    H263596   5.113   5.488   2.777 -1.3630  0.5369  0.3587
14061TIP3   OH263597   2.430   1.897   2.541 -0.0131  0.2764 -0.3964
14061TIP3    H163598   2.500   1.959   2.558 -0.2238  0.1363  1.0411
14061TIP3    H263599   2.375   1.940   2.476  1.2654  0.4827 -1.3623
14062TIP3   OH263600   2.672   5.504   0.545 -0.3627 -0.4104  0.6191
14062TIP3    H163601   2.602   5.485   0.607 -0.5907 -0.8130  0.2366
14062TIP3    H263602   2.647   5.458   0.465  0.3701 -0.6206  0.5038
14063TIP3   OH263603   3.226   4.349   1.176 -0.1991 -0.2668 -0.2447
14063TIP3    H163604   3.295   4.283   1.186  0.8915  0.7608 -0.8853
14063TIP3    H263605   3.266   4.431   1.206 -2.1657 -0.2213  2.3808
14064TIP3   OH263606   6.352   3.478   0.894  0.6660 -0.2131  0.9022
14064TIP3    H163607   6.419   3.545   0.895  1.3844 -0.9160  0.2877
14064TIP3    H263608   6.399   3.396   0.877 -0.3915 -0.6471 -0.0411
14065TIP3   OH263609   5.058   6.117  14.924  0.1057 -0.1052  0.0240
14065TIP3    H163610   5.069   6.049  14.858 -0.1852 -0.4546  0.3356
14065TIP3    H263611   5.146   6.136  14.955  0.3421  0.7132 -1.1292
14066TIP3   OH263612   4.082   3.228   3.042  0.0155  0.5325  0.2630
14066TIP3    H163613   4.158   3.275   3.007  0.8157  0.6450  2.1192
14066TIP3    H263614   4.095   3.138   3.013  0.3244  0.7418 -0.2726
14067TIP3   OH263615   0.454   3.081  14.513 -1.0330 -0.7190 -0.0782
14067TIP3    H163616   0.406   3.138  14.574 -1.9326 -1.3628 -0.1681
14067TIP3    H263617   0.416   2.994  14.527 -0.4438 -1.0863 -0.7370
14068TIP3   OH263618   2.452   2.824  15.293 -0.4782  0.4920 -0.2160
14068TIP3    H163619   2.468   2.919  15.295 -0.5701  0.5648 -2.2651
14068TIP3    H263620   2.514   2.790  15.229 -1.8875 -0.5445 -1.0627
14069TIP3   OH263621   6.447   2.330   5.468 -0.0516 -0.3231  0.5283
14069TIP3    H163622   6.394   2.410   5.466  1.7291  0.8767 -1.1552
14069TIP3    H263623   6.427   2.286   5.385  2.0757  0.5180 -0.4725
14070TIP3   OH263624   6.422   3.351   0.358  0.0695 -0.0606  0.1774
14070TIP3    H163625   6.388   3.266   0.330  0.9161 -0.2272 -0.3645
14070TIP3    H263626   6.510   3.331   0.393  0.2857  0.5963  0.0115
14071TIP3   OH263627   3.453   3.116  15.101  0.0669 -0.1285 -0.3674
14071TIP3    H163628   3.370   3.088  15.063 -1.4717  2.4392  0.9403
14071TIP3    H263629   3.429   3.183  15.165  3.2162  1.4728 -0.7350
14072TIP3   OH263630   1.734   0.655   4.838 -0.0743 -0.4831  0.1509
14072TIP3    H163631   1.725   0.659   4.933 -2.2768 -0.6498 -0.0200
14072TIP3    H263632   1.708   0.566   4.816 -1.8175  0.2471 -0.8063
14073TIP3   OH263633   2.978   6.397   0.063  0.0948  0.3739 -0.3801
14073TIP3    H163634   2.986   6.473   0.120  0.7374 -0.8089  1.1254
14073TIP3    H263635   3.036   6.332   0.101 -0.6312 -0.9692 -1.5186
14074TIP3   OH263636   0.745   3.009   5.861  0.2401  0.5951 -0.0913
14074TIP3    H163637   0.834   3.007   5.896  0.7909 -2.9935 -1.4181
14074TIP3    H263638   0.754   3.048   5.774  0.5514  0.1965 -0.2409
14075TIP3   OH263639   1.794   0.537   4.244  0.3063 -0.0707  0.2147
14075TIP3    H163640   1.840   0.461   4.209 -0.1319  0.3143 -1.2625
14075TIP3    H263641   1.709   0.536   4.199  0.3028  1.2721  0.1743
14076TIP3   OH263642   5.999   1.484  15.854  0.0266 -0.5326  0.5249
14076TIP3    H163643   6.017   1.549  15.922 -1.2923 -0.4083  0.7537
14076TIP3    H263644   5.917   1.443  15.881 -0.5519 -0.4290 -1.0257
14077TIP3   OH263645   0.291   4.550   0.192 -0.0476 -0.1482 -0.0583
14077TIP3    H163646   0.329   4.636   0.171  1.2355 -0.9743 -1.1993
14077TIP3    H263647   0.198   4.560   0.171 -0.4295  1.7372  2.2686
14078TIP3   OH263648   4.766   4.520  12.790  0.2158  0.0599 -0.0099
14078TIP3    H163649   4.701   4.591  12.782  2.2460  1.7487 -2.3393
14078TIP3    H263650   4.716   4.440  12.778 -2.1360  1.0489  2.5928
14079TIP3   OH263651   3.574   4.026   1.653 -0.0432 -0.5011  0.2864
14079TIP3    H163652   3.491   4.029   1.605  0.5193 -1.3020 -0.7661
14079TIP3    H263653   3.575   4.107   1.704 -0.7686  0.2830 -0.8972
14080TIP3   OH263654   6.231   0.580  13.366  0.2351  0.2981  0.3272
14080TIP3    H163655   6.157   0.633  13.395  1.2011  1.4267  0.7761
14080TIP3    H263656   6.283   0.566  13.446 -0.2042 -1.6609  0.2935
14081TIP3   OH263657   5.660   0.181  12.894  0.1288  0.3725 -0.6815
14081TIP3    H163658   5.574   0.217  12.916 -0.6421 -1.5560 -0.4038
14081TIP3    H263659   5.686   0.227  12.814 -0.6649  1.7359 -0.1757
14082TIP3   OH263660   3.765   0.814  13.469 -0.1021 -0.2697 -0.4116
14082TIP3    H163661   3.792   0.878  13.403 -0.4600  0.5183  0.2001
14082TIP3    H263662   3.838   0.753  13.475  1.0948  1.2326  0.4625
14083TIP3   OH263663   4.148   2.197  10.575  0.0742 -0.4380  0.4596
14083TIP3    H163664   4.149   2.273  10.634 -0.6606  1.4742 -1.9207
14083TIP3    H263665   4.230   2.203  10.526 -2.0465  1.5544 -3.0312
14084TIP3   OH263666   2.057   3.060   4.937  0.5639 -0.6777  0.1930
14084TIP3    H163667   2.058   2.996   4.866 -0.3172 -1.4835  0.8958
14084TIP3    H263668   2.122   3.125   4.912  1.2641 -1.7037 -0.6661
14085TIP3   OH263669   6.021   5.032   0.369  0.2153  0.0193 -0.6875
14085TIP3    H163670   6.099   4.987   0.400  1.0065  0.4073 -2.0817
14085TIP3    H263671   5.971   4.963   0.323 -0.5642 -0.3647  0.6975
14086TIP3   OH263672   0.406   4.523  16.495  0.4108  0.4307  0.2817
14086TIP3    H163673   0.403   4.549  16.587  0.8737 -0.0199  0.4203
14086TIP3    H263674   0.354   4.443  16.491  3.0280 -1.3546  0.7464
14087TIP3   OH263675   2.621   4.696   5.958 -0.1399  0.0184 -0.1975
14087TIP3    H163676   2.630   4.726   5.868 -1.5725 -1.2614 -0.7924
14087TIP3    H263677   2.546   4.636   5.956  0.2486 -0.5674  1.7025
14088TIP3   OH263678   6.585   6.343   4.894  0.0439 -0.2257 -0.2902
14088TIP3    H163679   6.604   6.337   4.987 -0.9230 -0.9944 -0.1314
14088TIP3    H263680   6.542   6.428   4.884  0.7020  0.1292 -0.1446
14089TIP3   OH263681   6.475   1.026   2.334 -0.0778  0.4433  0.5489
14089TIP3    H163682   6.380   1.027   2.334 -0.1216 -1.1319 -0.6529
14089TIP3    H263683   6.499   0.983   2.416 -0.5247 -2.7162 -0.8945
14090TIP3   OH263684   4.063   3.647  11.948 -0.5679  0.4491  0.3203
14090TIP3    H163685   4.136   3.688  11.903  0.1069  0.4428  1.3920
14090TIP3    H263686   4.005   3.721  11.971 -1.8642  0.2696 -2.1888
14091TIP3   OH263687   3.441   2.561  16.215  0.1290  0.1954 -0.4601
14091TIP3    H163688   3.346   2.573  16.205  0.0406 -0.0303  0.1154
14091TIP3    H263689   3.466   2.623  16.284  0.0523 -1.2324  0.8785
14092TIP3   OH263690   4.944   3.827  15.362 -0.2143 -0.2470 -0.2715
14092TIP3    H163691   4.903   3.905  15.325  2.7314  0.3819 -2.3734
14092TIP3    H263692   4.878   3.758  15.352 -1.4495  1.1186 -1.8555
14093TIP3   OH263693   1.471   3.022   0.664  0.3636 -0.4099  0.2761
14093TIP3    H163694   1.450   3.115   0.668 -0.6272 -0.6045  0.0030
14093TIP3    H263695   1.439   2.986   0.747 -2.3403 -1.0654 -0.9787
14094TIP3   OH263696   2.770   1.652  16.470  0.3936 -0.3000 -0.5506
14094TIP3    H163697   2.733   1.568  16.443  0.5269 -0.9909  1.3068
14094TIP3    H263698   2.699   1.695  16.517  1.0180 -0.3714  0.4750
14095TIP3   OH263699   3.246   1.653  12.741 -0.0560  0.3326  0.9788
14095TIP3    H163700   3.254   1.655  12.646  0.0485 -1.0157  0.9531
14095TIP3    H263701   3.164   1.700  12.760  0.9140  2.3055  0.3628
14096TIP3   OH263702   3.897   5.601   4.028  0.0041  0.5905 -0.0182
14096TIP3    H163703   3.943   5.586   4.111 -0.1807  0.1142  0.0046
14096TIP3    H263704   3.933   5.682   3.994 -1.3059  1.8545  1.5108
14097TIP3   OH263705   4.703   0.017  15.172 -0.6907  0.4342  0.2326
14097TIP3    H163706   4.793   0.048  15.164 -0.2238 -1.1932 -1.2519
14097TIP3    H263707   4.655   0.064  15.104 -0.8045  0.7551  0.5346
14098TIP3   OH263708   5.722   3.015  15.265  0.4589 -0.2295  0.4194
14098TIP3    H163709   5.735   3.107  15.288  0.8530 -0.5661  1.5895
14098TIP3    H263710   5.796   2.994  15.208 -0.5022  0.6032 -1.1733
14099TIP3   OH263711   0.252   6.069   5.505  0.1100 -0.0975 -0.1188
14099TIP3    H163712   0.201   5.996   5.539  0.4107  0.7552  2.2678
14099TIP3    H263713   0.219   6.146   5.552  1.2063  0.9998 -1.0938
14100TIP3   OH263714   2.506   4.788   0.661  0.1458 -0.5759  0.0776
14100TIP3    H163715   2.452   4.767   0.737  0.1978  4.1688  1.5876
14100TIP3    H263716   2.450   4.840   0.604  1.4637 -0.2342 -0.9501
14101TIP3   OH263717   4.737   5.307   2.561  0.0277  0.7343  0.1913
14101TIP3    H163718   4.667   5.314   2.496  0.5495 -1.5236 -0.6499
14101TIP3    H263719   4.764   5.397   2.577 -2.6482  1.6039  0.0691
14102TIP3   OH263720   1.041   2.835  11.396  0.1392  0.6126 -0.0756
14102TIP3    H163721   1.099   2.767  11.427 -0.3908  0.0495 -0.2993
14102TIP3    H263722   0.992   2.863  11.473 -1.3042 -0.9086 -0.4043
14103TIP3   OH263723   3.714   1.017   1.097  0.0023  0.2546  0.3541
14103TIP3    H163724   3.623   1.038   1.075  0.0703  1.1671  0.9134
14103TIP3    H263725   3.708   0.939   1.153 -0.3839 -0.0709 -0.1342
14104TIP3   OH263726   0.086   1.911   3.466 -0.1532 -0.1876  0.0028
14104TIP3    H163727   0.162   1.952   3.425  0.1998 -1.4468 -0.6227
14104TIP3    H263728   0.011   1.948   3.419 -0.0164  1.8635  1.3270
14105TIP3   OH263729   4.097   5.630   3.608  0.1117 -0.3328  0.2872
14105TIP3    H163730   4.097   5.535   3.621  0.3300 -0.7187 -2.3007
14105TIP3    H263731   4.113   5.665   3.695  0.8420 -2.7010  1.1655
14106TIP3   OH263732   1.880   5.663   6.522 -0.0939 -0.1669  0.2312
14106TIP3    H163733   1.810   5.699   6.577 -1.0056 -1.9252  0.2852
14106TIP3    H263734   1.840   5.655   6.436  0.5419  0.2525 -0.1022
14107TIP3   OH263735   3.730   0.417   0.034 -0.4187  1.1498 -0.6220
14107TIP3    H163736   3.804   0.468   0.069  0.5380 -1.5958  1.5719
14107TIP3    H263737   3.720   0.448  -0.056  3.1803  1.8696 -0.8640
14108TIP3   OH263738   1.447   1.266   2.228 -0.5067  0.1537 -0.1606
14108TIP3    H163739   1.421   1.213   2.304 -0.5367 -0.0810 -0.3376
14108TIP3    H263740   1.367   1.310   2.201 -0.6028 -0.1454 -0.3640
14109TIP3   OH263741   6.520   4.186   3.391 -0.0680 -0.0286  0.1959
14109TIP3    H163742   6.567   4.156   3.313  1.4255 -0.8200  1.3766
14109TIP3    H263743   6.586   4.229   3.445 -0.7496 -0.8342  1.7169
14110TIP3   OH263744   0.129   1.312  16.628 -0.3108  0.0919  0.6176
14110TIP3    H163745   0.067   1.287  16.559 -0.7016 -2.7672  1.9324
14110TIP3    H263746   0.213   1.322  16.583 -1.0874  0.9312 -0.6766
14111TIP3   OH263747   2.938   3.936   3.557  0.2323  0.0733  0.3186
14111TIP3    H163748   2.870   3.951   3.491  1.2726  1.3813 -0.5036
14111TIP3    H263749   2.971   4.024   3.577  0.5733 -0.3962  1.9029
14112TIP3   OH263750   0.265   6.184   1.960 -0.3383  1.0252  0.3703
14112TIP3    H163751   0.288   6.241   2.034 -0.5590  1.0165  0.4478
14112TIP3    H263752   0.342   6.130   1.946  0.4265  2.3595 -0.6592
14113TIP3   OH263753   3.011   1.307  14.526 -0.2022 -0.3780  0.4090
14113TIP3    H163754   2.976   1.321  14.437 -0.9825  1.9709  1.0472
14113TIP3    H263755   3.015   1.212  14.535 -1.8535 -0.6654 -1.4729
14114TIP3   OH263756   3.158   4.186  16.904  0.8187  0.0166  0.8904
14114TIP3    H163757   3.172   4.279  16.921 -0.0073  0.2964  0.0971
14114TIP3    H263758   3.196   4.171  16.818  1.5423 -0.5319  1.3008
14115TIP3   OH263759   5.120   1.314  15.057 -0.2593 -0.1910 -0.0805
14115TIP3    H163760   5.140   1.381  15.122 -0.5390 -0.2571  0.0782
14115TIP3    H263761   5.048   1.264  15.096  1.2048 -1.7915  0.6768
14116TIP3   OH263762   6.054   4.272  13.555  0.1521  0.1289  0.2357
14116TIP3    H163763   6.054   4.354  13.506  1.4512  0.0080  0.0041
14116TIP3    H263764   6.055   4.298  13.647  1.7118  0.4005  0.1563
14117TIP3   OH263765   1.454   5.743   5.582  0.9652 -0.0536 -0.7564
14117TIP3    H163766   1.361   5.731   5.602  1.0280 -0.3802 -0.6470
14117TIP3    H263767   1.456   5.768   5.490  0.7394  0.4104 -0.6395
14118TIP3   OH263768   4.908   1.791  16.806  0.1047  0.6602  0.0280
14118TIP3    H163769   4.975   1.736  16.846  0.3891  1.3987  0.5660
14118TIP3    H263770   4.956   1.863  16.766 -0.4391  1.6985  1.2353
14119TIP3   OH263771   2.576   0.521   1.775  0.1231  0.2765 -0.2150
14119TIP3    H163772   2.541   0.536   1.687 -1.0129  1.2259  0.3921
14119TIP3    H263773   2.655   0.469   1.760 -1.5421 -1.9495 -1.5953
14120TIP3   OH263774   4.034   4.267   3.198 -0.5478 -0.5596 -0.3264
14120TIP3    H163775   3.993   4.196   3.149  1.4172 -1.3121 -0.9727
14120TIP3    H263776   4.081   4.317   3.131  1.0095 -0.7799  0.5646
14121TIP3   OH263777   0.075   1.614   5.686 -0.2451 -0.2960  0.0780
14121TIP3    H163778   0.095   1.546   5.750  0.2316  0.0586  0.3144
14121TIP3    H263779   0.017   1.674   5.734 -0.6705 -0.5376 -0.1324
14122TIP3   OH263780   4.678   3.759   5.615 -0.2724  0.2347 -0.0369
14122TIP3    H163781   4.727   3.725   5.690 -0.3937  0.3730  0.1046
14122TIP3    H263782   4.586   3.746   5.639 -0.3398  1.4616  0.3921
14123TIP3   OH263783   4.154   4.291  14.748  0.0307 -0.2596  0.4321
14123TIP3    H163784   4.123   4.337  14.670  0.8761 -1.0537 -0.3873
14123TIP3    H263785   4.187   4.360  14.806 -0.1557  0.2884 -0.1124
14124TIP3   OH263786   2.437   5.693  15.959  0.4023  0.1922  0.0304
14124TIP3    H163787   2.391   5.612  15.981  0.5764  0.4525  1.3735
14124TIP3    H263788   2.450   5.688  15.864 -1.7046 -0.2501 -0.2685
14125TIP3   OH263789   3.533   5.289   2.238  0.4273  0.5983 -0.1982
14125TIP3    H163790   3.590   5.227   2.194 -0.9621 -0.3514 -0.6720
14125TIP3    H263791   3.508   5.245   2.320 -2.8619 -0.7195 -1.8344
14126TIP3   OH263792   2.559   2.855  12.852 -0.4488 -0.4757  0.2553
14126TIP3    H163793   2.606   2.811  12.781 -1.2241  0.9425 -1.1463
14126TIP3    H263794   2.506   2.786  12.892  1.0646 -1.5869  0.3939
14127TIP3   OH263795   2.662   4.736  15.841 -0.2605 -0.2591 -0.6095
14127TIP3    H163796   2.604   4.782  15.781 -1.8857 -0.9702  0.3741
14127TIP3    H263797   2.732   4.798  15.859 -0.4414  0.4293 -2.2084
14128TIP3   OH263798   3.404   3.612   1.484 -0.6027  0.4749 -0.2055
14128TIP3    H163799   3.363   3.633   1.568 -1.9647 -3.2492  0.1404
14128TIP3    H263800   3.331   3.608   1.422 -0.2562 -2.0024 -0.4706
14129TIP3   OH263801   3.904   6.653   1.013  0.2049  0.0055  0.0063
14129TIP3    H163802   3.938   6.709   0.943 -0.5246 -0.4117 -0.6970
14129TIP3    H263803   3.809   6.655   1.001  0.2439 -2.7998 -1.1538
14130TIP3   OH263804   4.313   6.181   2.560  0.0678  0.7327 -0.2922
14130TIP3    H163805   4.245   6.206   2.497  2.0038  1.4684 -2.1193
14130TIP3    H263806   4.343   6.095   2.531  1.9443  1.6799 -1.2497
14131TIP3   OH263807   0.268   3.311  17.213  0.6128 -0.1398  0.6411
14131TIP3    H163808   0.348   3.267  17.185  0.3111 -1.5232  1.9294
14131TIP3    H263809   0.298   3.396  17.247  1.3126  0.1832 -0.7379
14132TIP3   OH263810   2.362   1.183  13.892 -0.9521  0.1361  0.2676
14132TIP3    H163811   2.312   1.170  13.972 -0.0614  0.4467  0.8816
14132TIP3    H263812   2.454   1.182  13.921 -0.6173  0.0165 -0.7771
14133TIP3   OH263813   4.381   2.285   2.351  0.6899  0.1236  0.3658
14133TIP3    H163814   4.475   2.301   2.345  0.7432 -0.7215 -1.6160
14133TIP3    H263815   4.370   2.235   2.432  2.1945 -1.1744 -0.1976
14134TIP3   OH263816   6.061   4.138  15.054  0.3490  0.0843  0.1562
14134TIP3    H163817   6.037   4.179  14.971 -0.7604  0.1190  0.4785
14134TIP3    H263818   6.095   4.210  15.107 -0.2648  0.3395  0.2165
14135TIP3   OH263819   0.772   1.300   0.837 -0.2441  0.0429 -0.0437
14135TIP3    H163820   0.738   1.220   0.878  1.4701  0.0966  1.5475
14135TIP3    H263821   0.858   1.275   0.803 -0.4158  0.7791 -1.0268
14136TIP3   OH263822   1.695   1.705  15.167 -0.4750 -0.3191  0.1106
14136TIP3    H163823   1.756   1.778  15.165 -0.9851  0.1473  1.1218
14136TIP3    H263824   1.701   1.666  15.080 -2.3972  2.7253 -1.4690
14137TIP3   OH263825   0.677   5.203   0.790  0.1462  0.4716  0.2930
14137TIP3    H163826   0.750   5.142   0.790 -0.9005 -0.8612  2.8894
14137TIP3    H263827   0.654   5.213   0.883 -1.8181  2.2293 -0.3418
14138TIP3   OH263828   4.731   2.853   2.860 -0.1366  0.2246 -0.2989
14138TIP3    H163829   4.760   2.913   2.792  1.5331 -1.0364 -0.7570
14138TIP3    H263830   4.786   2.775   2.847 -1.6341 -1.0411  0.8186
14139TIP3   OH263831   5.058   0.163   2.146 -0.5773  0.1111 -0.0082
14139TIP3    H163832   4.968   0.177   2.114  0.0808  0.0037 -1.9454
14139TIP3    H263833   5.052   0.083   2.199 -1.5480 -0.1111 -0.4376
14140TIP3   OH263834   3.824   1.219  13.098  0.0003  0.4431 -0.4039
14140TIP3    H163835   3.740   1.265  13.093  0.2746  0.7929 -2.2060
14140TIP3    H263836   3.841   1.191  13.008  0.7000 -1.6533  0.3585
14141TIP3   OH263837   5.349   3.790  10.971 -0.2323 -0.2701  0.0189
14141TIP3    H163838   5.348   3.822  10.881  0.1913 -1.4049 -0.3964
14141TIP3    H263839   5.388   3.703  10.966  0.7412  0.0630  1.4462
14142TIP3   OH263840   2.832   4.907   6.296  0.2087 -0.0551  0.1223
14142TIP3    H163841   2.838   4.828   6.349 -0.2914 -1.3494 -1.7227
14142TIP3    H263842   2.812   4.976   6.359 -0.0658 -1.5061  1.6612
14143TIP3   OH263843   3.037   1.758   2.093 -0.5437  0.2475  0.0790
14143TIP3    H163844   3.077   1.691   2.149 -1.9141 -0.8065 -0.1722
14143TIP3    H263845   3.029   1.715   2.007 -2.4589  0.3382  0.2023
14144TIP3   OH263846   4.344   0.652   4.151  0.3187 -0.3770 -0.5666
14144TIP3    H163847   4.255   0.626   4.131  0.7644 -1.6792 -0.8582
14144TIP3    H263848   4.362   0.725   4.091 -0.4441 -0.3054 -0.7064
14145TIP3   OH263849   1.705   0.527  12.540  0.2391  0.5510 -0.0265
14145TIP3    H163850   1.616   0.492  12.533  0.8562 -1.6508  2.4756
14145TIP3    H263851   1.725   0.558  12.452 -1.9828 -1.4507 -1.3002
14146TIP3   OH263852   0.757   4.871  13.781  0.2849  0.2050 -0.1291
14146TIP3    H163853   0.739   4.815  13.857 -1.4983  0.2002 -0.5399
14146TIP3    H263854   0.847   4.850  13.757  0.3454 -0.9294  1.0250
14147TIP3   OH263855   1.492   4.961  16.863 -0.3034  0.3954  0.6990
14147TIP3    H163856   1.456   4.944  16.950 -1.0755 -3.3209 -0.2334
14147TIP3    H263857   1.416   4.976  16.807  0.0501  0.6728  0.2850
14148TIP3   OH263858   3.819   4.953  14.545  0.0509  0.2206  0.3062
14148TIP3    H163859   3.816   4.993  14.632 -0.9630  2.1296 -0.5671
14148TIP3    H263860   3.810   4.859  14.562  0.9192  0.4690  2.3227
14149TIP3   OH263861   1.458   2.917   0.931  0.8984  0.4319  0.1098
14149TIP3    H163862   1.543   2.885   0.962  0.5974 -3.1904 -2.4337
14149TIP3    H263863   1.405   2.924   1.011  2.7366 -0.0043  1.4173
14150TIP3   OH263864   1.161   4.287  12.917  0.2214  0.1015  0.3932
14150TIP3    H163865   1.184   4.211  12.864 -0.1176 -0.0209  0.4210
14150TIP3    H263866   1.133   4.250  13.001  0.2393  0.2669  0.4723
14151TIP3   OH263867   4.295   2.177   0.033  0.6313  0.5642 -0.4970
14151TIP3    H163868   4.321   2.166  -0.058  0.0592  1.1710 -0.7445
14151TIP3    H263869   4.228   2.111   0.047  0.0506  1.0819 -0.7981
14152TIP3   OH263870   3.730   3.792  14.855  0.3064 -0.2510 -0.1092
14152TIP3    H163871   3.803   3.807  14.796 -1.0797 -0.8799 -2.0537
14152TIP3    H263872   3.740   3.701  14.883  1.1425  0.1423  0.9234
14153TIP3   OH263873   5.151   2.461  10.609 -0.0504 -0.3769  0.2741
14153TIP3    H163874   5.149   2.551  10.578 -0.6079 -0.4266  0.1627
14153TIP3    H263875   5.232   2.455  10.661  0.7710 -0.2232 -0.9591
14154TIP3   OH263876   4.266   5.380   6.721 -0.1374  0.1160  0.4671
14154TIP3    H163877   4.265   5.331   6.639  1.9484  3.5699 -1.7434
14154TIP3    H263878   4.177   5.412   6.731 -0.4813 -0.6090 -0.2405
14155TIP3   OH263879   2.335   4.506   1.652 -0.0827  0.6470 -0.2555
14155TIP3    H163880   2.325   4.483   1.744 -1.2836  0.2216 -0.4911
14155TIP3    H263881   2.430   4.514   1.640  0.1122  0.1600  0.8844
14156TIP3   OH263882   0.104   0.898   6.417 -0.1256  0.4145 -0.0090
14156TIP3    H163883   0.077   0.982   6.454 -0.9499 -1.1017  2.9793
14156TIP3    H263884   0.192   0.883   6.452 -0.6850 -0.7663  0.9509
14157TIP3   OH263885   5.233   0.959  14.579 -0.3185  0.1628  0.2988
14157TIP3    H163886   5.307   0.948  14.639  0.0119 -0.3408 -0.1949
14157TIP3    H263887   5.155   0.946  14.633 -0.0882  1.7937  1.0697
14158TIP3   OH263888   1.795   2.412   2.425 -0.4292  0.2240  0.0462
14158TIP3    H163889   1.717   2.415   2.480 -0.1322 -0.1088  0.4868
14158TIP3    H263890   1.854   2.477   2.464 -0.3047  0.1448 -0.0128
14159TIP3   OH263891   4.412   2.491  14.578 -0.4706 -0.7028 -0.4124
14159TIP3    H163892   4.470   2.547  14.631 -0.4878 -1.2033  0.1438
14159TIP3    H263893   4.395   2.542  14.499 -1.1749  0.4476  0.4586
14160TIP3   OH263894   0.804   2.324   3.422  0.0544 -0.2298 -0.0911
14160TIP3    H163895   0.801   2.337   3.517  0.5255 -0.5860 -0.0254
14160TIP3    H263896   0.750   2.395   3.386  0.3975  0.2861  0.4083
14161TIP3   OH263897   0.728   0.797  14.376  0.7925 -0.1553  0.4220
14161TIP3    H163898   0.728   0.752  14.292  0.2793 -0.4013  0.5563
14161TIP3    H263899   0.783   0.875  14.361  2.7354 -1.4582  0.5495
14162TIP3   OH263900   3.269   0.132  10.801  0.2965 -0.2897 -0.2735
14162TIP3    H163901   3.257   0.157  10.892  1.7544  0.3621 -0.2545
14162TIP3    H263902   3.361   0.106  10.794  0.3072  0.0393 -1.6304
14163TIP3   OH263903   2.704   5.945  11.512  0.9008 -0.4533 -0.1997
14163TIP3    H163904   2.748   5.863  11.536  1.5526 -0.4909 -1.4709
14163TIP3    H263905   2.753   5.977  11.436 -0.1568  0.4468 -0.5113
14164TIP3   OH263906   0.768   5.643   4.772  0.9360 -0.3780 -0.4887
14164TIP3    H163907   0.745   5.671   4.861  0.7400 -2.0418  0.0039
14164TIP3    H263908   0.731   5.555   4.764  1.0605 -0.2974 -2.1836
14165TIP3   OH263909   3.525   4.084  13.508  0.1690  0.4991 -0.1681
14165TIP3    H163910   3.564   4.065  13.423  2.0128 -0.0777  0.7892
14165TIP3    H263911   3.478   4.166  13.496  1.2252  0.9166 -1.4958
14166TIP3   OH263912   5.245   3.326   1.390  0.6178 -0.4540 -0.1385
14166TIP3    H163913   5.220   3.409   1.431  0.6788 -1.3408  1.7936
14166TIP3    H263914   5.162   3.290   1.359  0.4824 -0.0242 -0.2839
14167TIP3   OH263915   2.924   3.788  11.670  0.1572  0.2555  0.0534
14167TIP3    H163916   2.842   3.740  11.655  0.1244  0.2343  0.3060
14167TIP3    H263917   2.968   3.785  11.585 -0.2616  0.5671 -0.1789
14168TIP3   OH263918   1.316   3.697  13.540 -0.4336  0.4088 -0.6244
14168TIP3    H163919   1.294   3.650  13.620  0.8550  1.1326  0.1628
14168TIP3    H263920   1.340   3.785  13.569  2.2497  0.0219 -1.5844
14169TIP3   OH263921   0.896   2.285  16.904  0.3840  0.2644 -0.6103
14169TIP3    H163922   0.958   2.297  16.832  0.6246 -0.9037 -0.6060
14169TIP3    H263923   0.811   2.274  16.861 -0.2355  3.9979 -0.5629
14170TIP3   OH263924   4.652   4.599   5.231 -0.4690 -0.1294 -0.0959
14170TIP3    H163925   4.731   4.546   5.216 -0.4844  0.1526 -1.1886
14170TIP3    H263926   4.672   4.650   5.309  0.4858  0.0252 -0.4319
14171TIP3   OH263927   1.095   0.925  16.796 -0.1880  0.3031 -0.4381
14171TIP3    H163928   1.147   0.865  16.850 -1.3496 -0.5008 -0.1864
14171TIP3    H263929   1.078   0.875  16.716 -2.8043 -0.4844  0.5553
14172TIP3   OH263930   2.054   3.455  16.248  0.5754  0.0598  0.4838
14172TIP3    H163931   2.091   3.409  16.172  1.3612  2.7545 -0.8355
14172TIP3    H263932   2.090   3.408  16.323  0.3084 -2.2676 -0.7830
14173TIP3   OH263933   2.371   6.289  16.920 -0.6105  0.2881  0.3076
14173TIP3    H163934   2.401   6.236  16.994  0.2324  1.2487  0.6726
14173TIP3    H263935   2.401   6.378  16.941  1.5551  0.2101 -2.2045
14174TIP3   OH263936   5.952   0.489   4.971  0.5148 -0.3222 -0.0104
14174TIP3    H163937   6.021   0.551   4.947  1.6090 -1.1245  1.0395
14174TIP3    H263938   5.939   0.436   4.892  0.1101  0.7387 -0.6628
14175TIP3   OH263939   2.656   2.499   2.343 -0.0133 -0.0826 -0.1269
14175TIP3    H163940   2.720   2.429   2.331  0.3034  0.1847  0.0177
14175TIP3    H263941   2.682   2.542   2.424 -0.0494  0.3806 -0.3604
14176TIP3   OH263942   4.097   4.549  12.930  0.2859 -0.3641  0.5070
14176TIP3    H163943   4.142   4.467  12.950 -1.7948 -1.5322  0.4620
14176TIP3    H263944   4.042   4.566  13.006  1.4911  1.5658  0.9784
14177TIP3   OH263945   5.995   6.036  15.260 -0.2736 -0.4834  0.5759
14177TIP3    H163946   5.914   5.993  15.288 -0.0538  0.9381  3.6254
14177TIP3    H263947   6.064   5.990  15.307  0.8363 -2.0395 -2.4142
14178TIP3   OH263948   2.773   3.945   3.849  0.7004 -0.3262 -0.3246
14178TIP3    H163949   2.683   3.918   3.867  0.6353  0.9894  1.4435
14178TIP3    H263950   2.813   3.869   3.808 -1.2589 -0.8680 -1.3282
14179TIP3   OH263951   0.813   0.061  15.911  0.4654 -0.1233  0.3552
14179TIP3    H163952   0.903   0.049  15.879  1.0904  0.7254  1.7414
14179TIP3    H263953   0.809   0.153  15.935 -0.8425 -0.1246  0.1395
14180TIP3   OH263954   3.427   2.688  13.998  0.0795 -0.1478  0.3085
14180TIP3    H163955   3.439   2.593  14.000 -1.0294 -0.3729 -2.6705
14180TIP3    H263956   3.368   2.706  14.072 -0.1650 -1.8220  0.5421
14181TIP3   OH263957   1.964   4.215  16.201  1.0114  0.3699  0.9084
14181TIP3    H163958   2.052   4.249  16.186  0.5014  0.7853 -1.3826
14181TIP3    H263959   1.971   4.163  16.280  3.6578 -0.8149 -0.0635
14182TIP3   OH263960   0.920   1.112  16.895  0.1685 -0.3245  0.4059
14182TIP3    H163961   0.986   1.169  16.934 -0.1507  2.0711 -2.3479
14182TIP3    H263962   0.968   1.035  16.867  1.3630  0.3527  0.5547
14183TIP3   OH263963   5.724   4.008   2.743  0.4921 -0.6693 -0.3897
14183TIP3    H163964   5.730   3.929   2.690  0.7701 -0.2511 -0.9891
14183TIP3    H263965   5.638   4.045   2.723  0.9043 -0.0995 -1.1473
14184TIP3   OH263966   3.977   1.191  13.745 -0.2139 -0.2714 -0.1376
14184TIP3    H163967   3.929   1.176  13.663 -0.9373 -0.2290  0.2770
14184TIP3    H263968   3.950   1.279  13.772  0.3217 -0.1317 -0.0510
14185TIP3   OH263969   0.182   3.408   5.277 -0.1286 -0.2600  0.1657
14185TIP3    H163970   0.132   3.326   5.277  0.9035 -0.9317 -1.5555
14185TIP3    H263971   0.191   3.430   5.184  1.0482  0.9149  0.5442
14186TIP3   OH263972   3.047   5.954   3.243 -0.2218 -0.0218 -0.5013
14186TIP3    H163973   3.090   6.017   3.300  1.9704 -1.6531 -0.2979
14186TIP3    H263974   3.051   5.994   3.156  0.6407  0.3707 -0.2860
14187TIP3   OH263975   2.098   2.603   5.128 -0.0177  0.1984 -0.2552
14187TIP3    H163976   2.188   2.572   5.141  0.0601  0.2779 -0.6019
14187TIP3    H263977   2.094   2.626   5.035 -0.6282 -0.5507 -0.4113
14188TIP3   OH263978   1.761   6.009  11.733  0.2577 -0.1329 -0.3204
14188TIP3    H163979   1.813   6.088  11.727 -0.1704  0.1718 -0.0330
14188TIP3    H263980   1.819   5.943  11.770  0.7409 -0.0669 -0.9553
14189TIP3   OH263981   3.519   4.459  12.355 -0.5416 -0.1668  0.1296
14189TIP3    H163982   3.516   4.534  12.294 -0.1096 -0.5663 -0.3860
14189TIP3    H263983   3.560   4.389  12.305 -0.5833 -0.6344  0.7463
14190TIP3   OH263984   3.452   2.489  14.419  0.0099  0.1037 -0.3015
14190TIP3    H163985   3.530   2.452  14.377 -0.4012 -0.5363 -0.5018
14190TIP3    H263986   3.381   2.475  14.356 -0.3011  0.5394 -0.0494
14191TIP3   OH263987   5.799   1.407   6.156  0.1890 -0.1496  0.3052
14191TIP3    H163988   5.839   1.494   6.150 -0.5097  0.2077  0.8823
14191TIP3    H263989   5.754   1.406   6.240 -1.9823 -0.1471 -0.8177
14192TIP3   OH263990   4.089   0.822   1.227  0.0825  0.1236 -0.7285
14192TIP3    H163991   4.030   0.757   1.187  0.8524 -1.7937  1.1228
14192TIP3    H263992   4.172   0.811   1.181 -0.0621  0.5201 -1.0924
14193TIP3   OH263993   4.193   4.368   4.815  0.1012  0.2145 -0.8325
14193TIP3    H163994   4.206   4.297   4.751 -1.9379 -0.2983 -0.6896
14193TIP3    H263995   4.144   4.328   4.886 -0.0011  1.4832 -0.1766
14194TIP3   OH263996   3.177   0.339  12.716 -0.0316 -0.1895 -0.0164
14194TIP3    H163997   3.216   0.390  12.787  1.0615  2.1026 -2.1720
14194TIP3    H263998   3.225   0.256  12.717  0.9886  0.3938  0.9676
14195TIP3   OH263999   3.415   5.550  11.846  0.0166  0.8751  0.4938
14195TIP3    H164000   3.510   5.540  11.848  0.0624  1.2308  0.1776
14195TIP3    H264001   3.381   5.466  11.879  0.4151  0.3447 -0.4216
14196TIP3   OH264002   2.560   1.033  11.034 -0.0335  0.2798  0.2290
14196TIP3    H164003   2.647   1.041  10.997  0.5502 -2.5762  0.8605
14196TIP3    H264004   2.513   0.975  10.975 -1.4337  1.5562  0.0521
14197TIP3   OH264005   3.240   1.506   5.414 -0.1797  0.4514 -0.6290
14197TIP3    H164006   3.261   1.578   5.474 -1.0332  1.3146 -1.3296
14197TIP3    H264007   3.265   1.540   5.328 -0.0544 -0.3259 -0.8977
14198TIP3   OH264008   1.854   5.866   3.722 -0.0481  0.4762  0.4594
14198TIP3    H164009   1.806   5.929   3.776 -0.6658  0.2303  0.2047
14198TIP3    H264010   1.894   5.805   3.784 -1.8152 -0.5674  0.6058
14199TIP3   OH264011   5.498   2.120   5.371 -0.1451  0.0459  0.4215
14199TIP3    H164012   5.435   2.192   5.375 -0.1590  0.0168  0.7071
14199TIP3    H264013   5.534   2.125   5.282 -1.7221 -0.9262 -0.2951
14200TIP3   OH264014   5.609   3.217   0.694  0.0817  0.1197  0.2783
14200TIP3    H164015   5.521   3.182   0.676 -0.3235  1.2620  0.0410
14200TIP3    H264016   5.654   3.145   0.739 -0.3950 -1.1090 -1.1638
14201TIP3   OH264017   1.967   0.273  14.674  0.0805 -0.3778 -0.5650
14201TIP3    H164018   1.965   0.197  14.732 -0.5603 -0.5313 -0.7908
14201TIP3    H264019   2.061   0.290  14.661  0.2249 -0.4108  0.4187
14202TIP3   OH264020   1.754   4.420   1.042 -0.3270 -0.0565  0.4086
14202TIP3    H164021   1.759   4.387   1.132 -1.0943 -0.1417  0.4219
14202TIP3    H264022   1.771   4.343   0.988  1.8887  0.3453  0.5004
14203TIP3   OH264023   6.034   6.712   0.436  0.2378 -0.6543  0.0531
14203TIP3    H164024   5.963   6.648   0.426  0.2977 -0.5621 -0.9956
14203TIP3    H264025   6.114   6.662   0.417  0.4250 -0.6759  0.8980
14204TIP3   OH264026   2.169   3.752  12.749  0.0156  0.0756 -0.1915
14204TIP3    H164027   2.086   3.766  12.794 -1.2472  1.1974 -2.7572
14204TIP3    H264028   2.200   3.667  12.780 -2.1651 -0.4239  0.6763
14205TIP3   OH264029   6.363   6.319  15.229  0.6319  0.3235  0.8010
14205TIP3    H164030   6.328   6.408  15.221 -0.0317  0.0349  0.4213
14205TIP3    H264031   6.334   6.274  15.150  0.9042 -0.2535  1.0214
14206TIP3   OH264032   4.473   3.174   4.094 -0.4246 -0.0083 -0.0831
14206TIP3    H164033   4.500   3.085   4.073 -1.2186 -0.0034 -1.1852
14206TIP3    H264034   4.429   3.205   4.015 -1.1126  0.9724  0.6649
14207TIP3   OH264035   6.536   2.320  15.907  0.0688  0.7413  0.1894
14207TIP3    H164036   6.487   2.252  15.953  1.7675 -0.4570  0.2978
14207TIP3    H264037   6.537   2.394  15.967 -0.3477  0.2618  0.7917
14208TIP3   OH264038   0.791   2.268  13.145 -0.1898 -0.4481 -0.2298
14208TIP3    H164039   0.716   2.302  13.096 -1.4174 -1.4310  0.9297
14208TIP3    H264040   0.843   2.221  13.079 -0.3020  0.6887 -1.1430
14209TIP3   OH264041   3.427   0.054   5.646 -0.4791 -0.1165 -0.1804
14209TIP3    H164042   3.492  -0.000   5.691  1.1458  1.0431 -1.0451
14209TIP3    H264043   3.368   0.084   5.715  1.2780  0.6804  1.0161
14210TIP3   OH264044   4.770   5.373   6.625  0.6591  0.4136 -0.3764
14210TIP3    H164045   4.819   5.334   6.553  0.5848 -2.1199  0.8932
14210TIP3    H264046   4.817   5.345   6.704 -0.9794  0.6379  0.7062
14211TIP3   OH264047   2.459   0.468  14.242  0.2015  0.2440 -0.3799
14211TIP3    H164048   2.424   0.381  14.258  2.4978 -0.4325  1.3069
14211TIP3    H264049   2.398   0.508  14.180 -1.8752 -1.8829  0.2219
14212TIP3   OH264050   4.033   3.501   2.473  0.0553  0.4257 -0.0838
14212TIP3    H164051   4.081   3.472   2.395 -0.4328 -1.7448  0.3879
14212TIP3    H264052   3.999   3.587   2.450  1.3473  0.5406 -1.6465
14213TIP3   OH264053   0.642   2.313   4.598 -0.6431  0.2415 -0.1420
14213TIP3    H164054   0.708   2.296   4.531 -1.7527 -1.4143 -0.8635
14213TIP3    H264055   0.672   2.264   4.675 -2.0826 -2.3456 -1.1483
14214TIP3   OH264056   3.849   1.668   5.342  0.3083 -0.2798  0.1428
14214TIP3    H164057   3.815   1.725   5.412  1.8981  1.9801 -0.8789
14214TIP3    H264058   3.805   1.698   5.263  0.5013 -1.0752 -0.2725
14215TIP3   OH264059   0.294   3.388  14.923 -0.1197  0.2934  0.1173
14215TIP3    H164060   0.266   3.453  14.988 -1.7369  1.4694 -1.7047
14215TIP3    H264061   0.390   3.392  14.926 -0.1684  0.5408  2.2010
14216TIP3   OH264062   6.221   4.970   0.756 -0.2843  0.2388  0.4321
14216TIP3    H164063   6.313   4.946   0.748 -0.2272  0.3078  0.8415
14216TIP3    H264064   6.219   5.065   0.746 -0.2343  0.3049  0.9994
14217TIP3   OH264065   3.277   5.159   3.985  0.5523  0.1242 -0.3544
14217TIP3    H164066   3.337   5.233   3.972  0.1273  0.8104  1.3721
14217TIP3    H264067   3.194   5.200   4.010  0.1844 -0.9155  0.1354
14218TIP3   OH264068   3.587   2.537   3.891  0.2489  0.7741  0.8382
14218TIP3    H164069   3.541   2.572   3.814  0.3821 -1.1378 -0.1379
14218TIP3    H264070   3.680   2.548   3.870  0.2724  1.8825  1.5072
14219TIP3   OH264071   4.563   3.290   2.647 -0.7388 -0.3878 -0.1127
14219TIP3    H164072   4.581   3.358   2.582  0.2161 -0.2768  0.2597
14219TIP3    H264073   4.471   3.268   2.635 -0.7365  0.1226 -1.0416
14220TIP3   OH264074   1.084   4.008  15.609 -0.0015  0.2883  0.4219
14220TIP3    H164075   1.178   3.990  15.602 -0.4523 -1.0636 -2.8819
14220TIP3    H264076   1.052   3.945  15.674  1.3936  0.9593  1.7897
14221TIP3   OH264077   5.494   4.683   2.613  0.2969  0.2060 -1.0262
14221TIP3    H164078   5.474   4.740   2.539 -0.9608  1.0855 -0.0201
14221TIP3    H264079   5.459   4.728   2.689  0.6728 -1.1717 -0.0050
14222TIP3   OH264080   2.440   1.402  11.998  0.1252 -0.3082 -0.0163
14222TIP3    H164081   2.453   1.330  11.936  1.6947 -0.0909  0.0336
14222TIP3    H264082   2.427   1.479  11.942  3.1671  0.1799 -0.1505
14223TIP3   OH264083   4.522   5.802   0.818 -0.1515 -0.3989 -0.2132
14223TIP3    H164084   4.606   5.837   0.848 -0.0559  0.2063 -1.1731
14223TIP3    H264085   4.546   5.731   0.758 -0.3272 -0.0205 -0.7287
14224TIP3   OH264086   0.719   6.530  13.841 -0.1616  0.3663 -0.2741
14224TIP3    H164087   0.713   6.435  13.836  0.3079  0.3751 -1.1528
14224TIP3    H264088   0.711   6.550  13.934  1.3163 -0.6396  0.0911
14225TIP3   OH264089   1.307   6.467  13.842  0.5793  0.2035  0.1119
14225TIP3    H164090   1.279   6.529  13.910  2.0527  0.0564  0.8692
14225TIP3    H264091   1.248   6.393  13.851  2.0439 -0.7074  2.6146
14226TIP3   OH264092   2.680   3.815   1.641  0.2616  0.0942  0.2739
14226TIP3    H164093   2.661   3.773   1.725  0.2493  0.5573  0.5062
14226TIP3    H264094   2.702   3.905   1.665 -0.1148  0.3230 -0.2589
14227TIP3   OH264095   4.122   5.309   3.711 -0.0244  0.1010 -0.6691
14227TIP3    H164096   4.108   5.215   3.706 -0.1232  0.1721 -1.7871
14227TIP3    H264097   4.154   5.324   3.801  0.2500 -1.0201 -0.5733
14228TIP3   OH264098   3.619   4.296  14.885  0.3456 -0.3690  0.3451
14228TIP3    H164099   3.556   4.268  14.952 -1.3364  0.6634 -0.7823
14228TIP3    H264100   3.627   4.221  14.826  1.6051 -1.1727  1.5040
14229TIP3   OH264101   5.042   1.152   4.038  0.0022 -0.1054  0.1781
14229TIP3    H164102   5.040   1.179   3.946 -1.1284  0.2946  0.3100
14229TIP3    H264103   4.968   1.093   4.048 -0.1095  0.1532  0.9232
14230TIP3   OH264104   4.196   0.785   0.177  0.0120 -0.0368  0.2881
14230TIP3    H164105   4.230   0.706   0.136 -0.2318 -1.2524  2.3296
14230TIP3    H264106   4.110   0.760   0.210  1.0191  0.2619  3.2951
14231TIP3   OH264107   2.898   4.083  13.360 -0.1843  0.0785  0.1172
14231TIP3    H164108   2.990   4.069  13.380 -0.5551 -0.1524  1.6981
14231TIP3    H264109   2.898   4.129  13.276  1.3581 -0.1174  0.0114
14232TIP3   OH264110   0.039   1.050  12.859  0.0326 -0.4728 -0.0837
14232TIP3    H164111  -0.048   1.036  12.823  0.0857 -2.6607  0.5691
14232TIP3    H264112   0.025   1.068  12.952 -0.0720  4.7276 -0.9600
14233TIP3   OH264113   4.337   2.248  11.421 -0.0546 -0.0191 -0.3196
14233TIP3    H164114   4.427   2.232  11.451  0.3133  2.1352 -0.1710
14233TIP3    H264115   4.347   2.309  11.348 -1.4303  0.6051  0.0059
14234TIP3   OH264116   5.342   6.743  15.616  0.5380 -1.0082  0.7347
14234TIP3    H164117   5.325   6.811  15.681  1.3145  0.2063 -0.2973
14234TIP3    H264118   5.425   6.703  15.644  1.6098  0.4580 -0.2459
14235TIP3   OH264119   1.768   2.398   4.305  0.2589 -0.2954 -0.0528
14235TIP3    H164120   1.740   2.485   4.275  0.7134 -0.3811 -0.7307
14235TIP3    H264121   1.709   2.378   4.377  0.1351  0.5718  0.0965
14236TIP3   OH264122   3.727   2.680  11.067 -0.3815 -0.1444  0.5265
14236TIP3    H164123   3.726   2.672  10.971  2.4338 -1.6678  0.5670
14236TIP3    H264124   3.729   2.589  11.098 -3.2521  0.2839  2.1270
14237TIP3   OH264125   1.708   1.146   0.677  0.2035 -0.1167 -0.3841
14237TIP3    H164126   1.614   1.130   0.688  0.2972 -0.5647 -0.2127
14237TIP3    H264127   1.744   1.143   0.765  0.3447  0.2933 -0.4272
14238TIP3   OH264128   6.731   0.039   3.422 -0.1112  0.1413 -0.3834
14238TIP3    H164129   6.642   0.017   3.451  0.2229 -1.5770 -0.6338
14238TIP3    H264130   6.757   0.111   3.479 -1.7136  0.7518 -0.3917
14239TIP3   OH264131   5.826   4.808  16.504  0.4152  0.1086  0.3283
14239TIP3    H164132   5.887   4.874  16.468 -0.8965  0.5899 -1.0909
14239TIP3    H264133   5.795   4.847  16.585  1.4581  0.1723  0.7130
14240TIP3   OH264134   2.639   5.969  12.644 -0.2012  0.2790  0.0992
14240TIP3    H164135   2.653   6.006  12.731 -0.2461  0.0497  0.2048
14240TIP3    H264136   2.687   5.886  12.645 -0.1215  0.3221 -0.1281
14241TIP3   OH264137   5.350   0.272  12.490 -0.0608 -0.0464  0.2043
14241TIP3    H164138   5.304   0.197  12.452 -1.4850  0.0090  1.8022
14241TIP3    H264139   5.295   0.347  12.468  1.9813  0.7598 -2.4808
14242TIP3   OH264140   4.514   5.502   2.689 -0.2771 -0.0701 -0.6975
14242TIP3    H164141   4.507   5.470   2.779 -0.1078 -1.0158 -1.0213
14242TIP3    H264142   4.600   5.544   2.685  0.3420 -1.3355 -0.8296
14243TIP3   OH264143   0.907   1.068   1.222  0.4031 -0.2952  0.1847
14243TIP3    H164144   0.969   1.141   1.215  1.2099 -0.6862  2.6874
14243TIP3    H264145   0.962   0.992   1.240 -0.6894 -0.8988  1.0371
14244TIP3   OH264146   2.340   5.051   6.057  0.6343  0.0286 -0.3079
14244TIP3    H164147   2.263   5.086   6.102  1.8290  2.0203  0.2464
14244TIP3    H264148   2.413   5.071   6.116  1.7467 -0.6759 -1.4269
14245TIP3   OH264149   6.744   1.617  11.733  0.0806 -0.3098 -0.1122
14245TIP3    H164150   6.708   1.696  11.773 -0.4786 -0.9396  0.6444
14245TIP3    H264151   6.669   1.560  11.719  0.6612 -1.2781  0.6612
14246TIP3   OH264152   4.351   1.785   3.466 -0.9112 -0.0271 -0.7828
14246TIP3    H164153   4.367   1.711   3.408  1.3074  0.8208 -1.3148
14246TIP3    H264154   4.438   1.823   3.481 -1.8873  1.8897  0.2426
14247TIP3   OH264155   0.997   6.738  15.229  0.0976  0.0232  0.2611
14247TIP3    H164156   1.055   6.669  15.197  0.5339  1.4368 -2.1409
14247TIP3    H264157   1.049   6.786  15.293  0.4130 -0.7811  0.6097
14248TIP3   OH264158   4.297   3.995  14.849  0.0297 -0.0000 -0.3261
14248TIP3    H164159   4.367   4.049  14.886 -0.2436  0.8689 -1.0448
14248TIP3    H264160   4.232   4.059  14.819 -0.5936 -0.7628 -0.5857
14249TIP3   OH264161   3.705   2.776   3.677 -0.3132  0.1666  0.2750
14249TIP3    H164162   3.637   2.708   3.680  1.5683 -1.9019 -1.6645
14249TIP3    H264163   3.787   2.727   3.686  1.0738  2.2149 -1.0357
14250TIP3   OH264164   0.843   0.884  16.381 -0.3436 -0.2787  0.1719
14250TIP3    H164165   0.778   0.953  16.399  0.8739  0.5358  1.6544
14250TIP3    H264166   0.830   0.861  16.289  0.1310  2.9444 -0.7656
14251TIP3   OH264167   4.826   2.357   6.191  0.2392  0.0403 -0.2299
14251TIP3    H164168   4.830   2.441   6.145  2.5796 -0.2083 -0.5311
14251TIP3    H264169   4.734   2.348   6.216  0.4495  4.1650  2.5442
14252TIP3   OH264170   0.406   6.667  12.733 -0.5843  1.0136  0.6123
14252TIP3    H164171   0.403   6.670  12.638  2.4804  1.9727  0.5025
14252TIP3    H264172   0.356   6.743  12.761 -1.7519  0.5643 -0.1879
14253TIP3   OH264173   6.719   0.900   0.922 -1.0614 -0.1673 -0.1070
14253TIP3    H164174   6.746   0.952   0.998  1.8914  1.4231 -2.1635
14253TIP3    H264175   6.642   0.945   0.888 -0.6214  0.8229  0.1914
14254TIP3   OH264176   6.784   3.203   5.228 -0.3979 -0.3433 -0.3879
14254TIP3    H164177   6.706   3.234   5.273  0.6783 -0.1330  1.3765
14254TIP3    H264178   6.776   3.108   5.226 -0.7134 -0.3190 -0.2295
14255TIP3   OH264179   4.114   6.247   3.214  0.1981 -0.1444 -0.5126
14255TIP3    H164180   4.127   6.316   3.149 -0.7270 -0.9982 -1.6308
14255TIP3    H264181   4.089   6.293   3.294  1.4537  0.9277 -0.7175
14256TIP3   OH264182   0.717   5.145   2.498  0.3987  0.2785 -0.0226
14256TIP3    H164183   0.621   5.143   2.497  0.3044  2.8936 -2.3078
14256TIP3    H264184   0.741   5.190   2.417  3.5868 -0.4096  0.4648
14257TIP3   OH264185   5.325   5.353  13.685 -0.4073 -0.3054  0.3938
14257TIP3    H164186   5.257   5.311  13.738  0.4317 -0.5996  1.2657
14257TIP3    H264187   5.405   5.306  13.708 -0.0192 -0.4215 -1.1389
14258TIP3   OH264188   4.102   5.352   2.985 -0.5729  0.5106 -0.1438
14258TIP3    H164189   4.019   5.316   2.952 -0.9158 -0.8179  2.0666
14258TIP3    H264190   4.088   5.447   2.985 -1.7904  0.3465 -0.5583
14259TIP3   OH264191   0.493   4.812  11.747 -0.4708 -0.0854  0.1876
14259TIP3    H164192   0.553   4.845  11.814  1.2754  0.1324 -1.4402
14259TIP3    H264193   0.440   4.888  11.723  0.2148  0.3322 -0.0357
14260TIP3   OH264194   1.020   3.558   1.832 -0.0995 -0.5553 -0.0337
14260TIP3    H164195   1.103   3.592   1.866 -0.5910 -1.6506  2.4031
14260TIP3    H264196   0.959   3.631   1.839  0.3671 -0.1062 -0.6729
14261TIP3   OH264197   5.519   5.105  15.510 -0.1625  0.3353  0.5003
14261TIP3    H164198   5.425   5.082  15.509 -0.4300  1.4765 -0.5871
14261TIP3    H264199   5.523   5.187  15.559  0.4253 -0.2993  1.5457
14262TIP3   OH264200   3.412   5.904   0.926 -0.1994  0.3745 -0.2359
14262TIP3    H164201   3.369   5.827   0.963 -0.1208  0.1534 -0.6055
14262TIP3    H264202   3.386   5.976   0.984 -0.3825  0.0948  0.0291
14263TIP3   OH264203   0.778   0.263   0.555 -0.1235  0.2998  0.5919
14263TIP3    H164204   0.838   0.293   0.623  1.7218 -1.5093 -0.1581
14263TIP3    H264205   0.835   0.220   0.491 -2.2669 -1.6597 -0.0592
14264TIP3   OH264206   0.012   3.467  11.951 -1.0543  0.7068  0.2505
14264TIP3    H164207   0.074   3.538  11.934 -2.0005  1.1862 -1.2953
14264TIP3    H264208   0.023   3.407  11.877  0.8281 -1.5750  2.3110
14265TIP3   OH264209   2.193   3.075  13.005 -0.3581 -0.3359 -0.0512
14265TIP3    H164210   2.285   3.101  12.996 -0.4980  0.0871 -0.2823
14265TIP3    H264211   2.175   3.025  12.925 -0.5777  0.3369 -0.4267
14266TIP3   OH264212   5.505   1.888   3.365  0.3368 -0.7103 -0.6796
14266TIP3    H164213   5.585   1.849   3.399  0.8285 -0.0857 -1.0898
14266TIP3    H264214   5.521   1.897   3.271 -0.6458 -1.5806 -0.9290
14267TIP3   OH264215   3.610   4.792  11.277 -0.2897  0.1653  0.1384
14267TIP3    H164216   3.575   4.868  11.232 -1.6724  0.5749  1.8669
14267TIP3    H264217   3.549   4.721  11.257  0.0595 -0.0768 -0.0775
14268TIP3   OH264218   5.218   4.568   2.832  0.3864  0.2056  0.0156
14268TIP3    H164219   5.291   4.531   2.882 -0.3979  1.0820  1.8560
14268TIP3    H264220   5.144   4.563   2.892 -1.0321 -0.4788 -1.7686
14269TIP3   OH264221   6.524   3.673  14.966 -0.5538 -0.0064  0.4062
14269TIP3    H164222   6.556   3.624  15.042  1.3776 -1.6888 -1.4117
14269TIP3    H264223   6.467   3.611  14.920 -3.7053  1.8073  1.7235
14270TIP3   OH264224   5.131   2.847  13.259  0.0758 -0.3965  1.0564
14270TIP3    H164225   5.152   2.868  13.168 -0.4144 -2.8821  0.3336
14270TIP3    H264226   5.216   2.845  13.303  0.5456 -1.3555  0.1508
14271TIP3   OH264227   2.188   5.182  15.094 -0.0062  0.2612 -0.0497
14271TIP3    H164228   2.256   5.118  15.070 -1.3029 -0.9636 -0.5517
14271TIP3    H264229   2.202   5.255  15.034  1.3927  0.4015  0.4205
14272TIP3   OH264230   3.236   2.604  14.680 -0.1975  0.5552 -0.3897
14272TIP3    H164231   3.330   2.584  14.682 -0.2116  0.4216 -0.9289
14272TIP3    H264232   3.199   2.554  14.753  0.2644  1.1931  0.2708
14273TIP3   OH264233   4.608   6.529   0.393 -0.1512  0.2971  0.0330
14273TIP3    H164234   4.678   6.494   0.449 -0.8614  0.8908  1.3119
14273TIP3    H264235   4.617   6.624   0.401 -2.1500  0.3784  1.5306
14274TIP3   OH264236   6.597   3.213   3.935 -0.4355 -0.3800 -0.0906
14274TIP3    H164237   6.578   3.307   3.938 -1.9871 -0.6050 -2.0176
14274TIP3    H264238   6.581   3.188   3.844  1.2908 -2.2515  0.0985
14275TIP3   OH264239   3.879   2.498   1.500 -0.0256 -0.8885  0.3354
14275TIP3    H164240   3.956   2.518   1.553  1.0559  0.1422 -1.5476
14275TIP3    H264241   3.884   2.559   1.426 -1.9812 -1.6433 -0.4684
14276TIP3   OH264242   0.381   2.616   4.124  0.0779  0.1692  0.0701
14276TIP3    H164243   0.319   2.683   4.096  0.2746  0.0240 -0.7498
14276TIP3    H264244   0.333   2.562   4.186 -1.1417 -0.9264 -1.8019
14277TIP3   OH264245   3.494   5.240   3.219  0.1277 -0.2754  0.0001
14277TIP3    H164246   3.427   5.270   3.157  1.0249  0.0161 -0.8316
14277TIP3    H264247   3.444   5.207   3.294 -0.9052  1.4077  0.0646
14278TIP3   OH264248   2.488   2.416   1.181  0.0020 -0.3103  0.1084
14278TIP3    H164249   2.430   2.341   1.195 -0.6755  0.4557  1.4432
14278TIP3    H264250   2.536   2.394   1.101 -2.7423 -0.5636 -1.5341
14279TIP3   OH264251   0.256   1.085   5.602  0.5723  0.6790 -0.4032
14279TIP3    H164252   0.284   1.037   5.681 -0.9107 -0.8141 -0.7731
14279TIP3    H264253   0.336   1.127   5.571  0.8293  2.8383  2.9452
14280TIP3   OH264254   0.841   6.719   4.799 -0.4840 -0.2893  0.3284
14280TIP3    H164255   0.886   6.798   4.827 -0.8590 -0.2052  0.7093
14280TIP3    H264256   0.768   6.710   4.861  0.0744 -1.4115  0.8355
14281TIP3   OH264257   5.918   3.779  14.829 -0.5620 -0.1678 -0.2112
14281TIP3    H164258   5.824   3.793  14.835 -0.9218 -3.0616  1.8101
14281TIP3    H264259   5.945   3.757  14.918  2.1186  0.9557 -0.6804
14282TIP3   OH264260   0.536   1.864   5.039  0.2926 -0.3333  0.1556
14282TIP3    H164261   0.515   1.835   4.950 -0.4169 -1.4919  0.6884
14282TIP3    H264262   0.465   1.923   5.063  0.0221 -0.6987  0.2648
14283TIP3   OH264263   5.978   3.459   5.384 -0.6202 -0.1783  0.1120
14283TIP3    H164264   6.034   3.536   5.390 -0.3369 -0.1968 -1.7700
14283TIP3    H264265   6.037   3.384   5.395 -0.7901 -0.1373  1.2949
14284TIP3   OH264266   2.830   2.627  11.486 -0.3167 -0.3633 -0.0063
14284TIP3    H164267   2.827   2.687  11.412 -0.2558  1.1312  1.1909
14284TIP3    H264268   2.746   2.640  11.530  1.1758  1.5663  2.3628
14285TIP3   OH264269   2.677   0.822   1.668  0.5054 -0.0676 -0.4042
14285TIP3    H164270   2.735   0.780   1.732 -0.3354 -0.9165 -0.1945
14285TIP3    H264271   2.736   0.849   1.597  1.3556  0.3153  0.4331
14286TIP3   OH264272   2.231   2.820   0.282 -0.2095  0.4460 -0.2488
14286TIP3    H164273   2.244   2.809   0.376  1.6764  1.3758 -0.3904
14286TIP3    H264274   2.318   2.839   0.247 -0.6802 -1.0036 -2.3470
14287TIP3   OH264275   3.787   4.533  12.818  0.0897 -0.1244  0.4464
14287TIP3    H164276   3.830   4.580  12.889 -0.8611  0.4943  0.6143
14287TIP3    H264277   3.788   4.594  12.744 -2.5684  0.7953  1.1253
14288TIP3   OH264278   4.626   6.311  15.689  0.4550  0.3564 -0.0061
14288TIP3    H164279   4.636   6.250  15.615 -1.5996  0.6658 -0.5822
14288TIP3    H264280   4.713   6.315  15.729  1.7979  0.7532 -2.8566
14289TIP3   OH264281   6.441   0.214   1.508 -0.8456 -0.1917  0.6567
14289TIP3    H164282   6.351   0.206   1.538 -1.0203  0.6467  0.3515
14289TIP3    H264283   6.492   0.226   1.588 -1.2300  1.3005  0.6925
14290TIP3   OH264284   2.528   3.980   4.553 -0.1729  0.2416 -0.0355
14290TIP3    H164285   2.585   3.941   4.620  0.5655 -2.2783 -2.0129
14290TIP3    H264286   2.470   3.908   4.528 -1.3957  1.5747 -1.0518
14291TIP3   OH264287   1.252   0.542  16.594 -0.0756 -0.1662  0.1353
14291TIP3    H164288   1.158   0.548  16.611  0.1821 -1.4189  2.1129
14291TIP3    H264289   1.258   0.521  16.500 -1.6561  2.5995 -0.6305
14292TIP3   OH264290   1.536   3.337   4.242 -0.0411  0.1012 -0.2459
14292TIP3    H164291   1.504   3.408   4.297 -0.0581 -0.3009  0.2616
14292TIP3    H264292   1.592   3.285   4.300  2.1498  1.2131 -1.2850
14293TIP3   OH264293   3.254   1.061   3.639  0.2255 -0.5048 -0.1093
14293TIP3    H164294   3.277   0.983   3.689 -0.7424  0.9210  2.6572
14293TIP3    H264295   3.230   1.028   3.553  0.0581 -3.2431  0.9451
14294TIP3   OH264296   4.501   1.518  17.137  0.5512  1.0421 -0.5136
14294TIP3    H164297   4.456   1.577  17.076  2.4884  0.0049 -3.0270
14294TIP3    H264298   4.466   1.431  17.115  1.1633  0.6708 -0.0180
14295TIP3   OH264299   4.026   1.658   3.702 -0.0433  0.0823 -0.1447
14295TIP3    H164300   4.008   1.684   3.611  2.4328  1.7034 -0.2170
14295TIP3    H264301   3.990   1.569   3.708 -1.3800  0.4186 -2.3302
14296TIP3   OH264302   0.364   2.964  14.931 -0.6292  0.1738  0.0181
14296TIP3    H164303   0.435   3.004  14.881 -0.4829 -0.7236 -0.4996
14296TIP3    H264304   0.407   2.903  14.991 -0.8855  0.3896  0.4230
14297TIP3   OH264305   4.498   0.979  12.143  0.4934  0.0197 -0.2693
14297TIP3    H164306   4.439   0.926  12.089  1.1332 -1.1500  0.1678
14297TIP3    H264307   4.445   1.055  12.168 -1.1769 -1.5204  0.9732
14298TIP3   OH264308   4.163   0.597   4.700 -0.0625  0.1801 -0.4395
14298TIP3    H164309   4.258   0.607   4.712 -0.6381  2.4853  2.7956
14298TIP3    H264310   4.135   0.546   4.776 -1.0682 -3.1437 -2.9381
14299TIP3   OH264311   3.981   6.413  15.537 -0.5492 -0.0045  0.1983
14299TIP3    H164312   4.037   6.362  15.595 -0.2122 -0.3008 -0.3865
14299TIP3    H264313   3.909   6.355  15.515  0.1249 -0.4196 -0.9144
14300TIP3   OH264314   2.919   4.945   5.329  0.4486  0.6526 -0.2466
14300TIP3    H164315   2.923   4.850   5.314 -0.9294  0.3795  0.9655
14300TIP3    H264316   2.900   4.953   5.423  0.2220  2.1236 -0.4126
14301TIP3   OH264317   0.931   1.333   5.069  0.2169  0.1973 -0.1005
14301TIP3    H164318   0.927   1.237   5.063  1.4356  0.2164 -1.3516
14301TIP3    H264319   0.867   1.364   5.006  1.7411  0.2195 -1.6696
14302TIP3   OH264320   0.060   2.545  14.214 -0.0823  0.0532  0.1264
14302TIP3    H164321   0.075   2.501  14.297 -1.4758 -1.2489 -0.2876
14302TIP3    H264322   0.143   2.588  14.194  0.3156  0.2624  2.1015
14303TIP3   OH264323   4.281   3.317   0.947 -0.0570  0.1316 -0.0329
14303TIP3    H164324   4.271   3.391   0.887  1.3860  0.6504  0.3264
14303TIP3    H264325   4.266   3.240   0.894  0.6016  0.6097 -0.9194
14304TIP3   OH264326   4.037   2.656   0.700 -0.0087  0.5963  0.2174
14304TIP3    H164327   3.962   2.627   0.751 -0.2455 -1.0747 -1.0389
14304TIP3    H264328   4.106   2.672   0.765 -0.6146 -0.4705  1.1309
14305TIP3   OH264329   2.055   0.433  12.579 -0.5433 -0.7653  0.2336
14305TIP3    H164330   2.151   0.440  12.581 -0.5883  0.5149 -1.5562
14305TIP3    H264331   2.027   0.478  12.658  0.2846 -0.0270  0.1212
14306TIP3   OH264332   2.603   3.921   5.730 -0.2325 -0.2079 -0.6165
14306TIP3    H164333   2.544   3.957   5.664 -0.2972 -0.8186 -0.8980
14306TIP3    H264334   2.545   3.889   5.800 -0.1146  1.4639  0.2717
14307TIP3   OH264335   5.746   3.142  12.079  0.6029 -0.8221 -0.3094
14307TIP3    H164336   5.692   3.209  12.038  0.0647 -1.1260 -0.0920
14307TIP3    H264337   5.689   3.101  12.143  1.1744 -0.9514  0.1200
14308TIP3   OH264338   6.388   4.995   0.463 -0.4512  0.5146  0.4861
14308TIP3    H164339   6.338   4.917   0.488  2.6457 -1.5993  0.3506
14308TIP3    H264340   6.458   5.001   0.529 -1.9891  4.6135  1.8945
14309TIP3   OH264341   6.189   6.047  16.607  0.0991  0.3151 -0.4473
14309TIP3    H164342   6.224   6.107  16.673  0.9129  0.3307 -0.8814
14309TIP3    H264343   6.140   6.103  16.547 -0.2067  0.3715 -0.1426
14310TIP3   OH264344   4.010   3.593  15.007 -0.2755  0.0689 -0.6950
14310TIP3    H164345   3.995   3.508  15.047  0.1944 -0.1052 -0.8983
14310TIP3    H264346   4.017   3.575  14.913 -1.7838  0.5218 -0.9222
14311TIP3   OH264347   6.206   0.635  14.597  0.1790  0.1430  0.2348
14311TIP3    H164348   6.157   0.555  14.615  1.2363 -0.9763 -1.6301
14311TIP3    H264349   6.221   0.675  14.682 -4.2740  0.7139  0.8162
14312TIP3   OH264350   4.471   5.673  15.490  0.0988  0.6031  0.3740
14312TIP3    H164351   4.517   5.752  15.519  0.0821  0.9603 -0.5627
14312TIP3    H264352   4.504   5.604  15.547  1.4027  0.9609  0.0696
14313TIP3   OH264353   5.967   6.133  11.700 -0.2545  0.1578  0.1459
14313TIP3    H164354   5.939   6.108  11.612 -1.0197  1.2741  0.0608
14313TIP3    H264355   5.931   6.221  11.713 -2.0777 -0.8553  2.4121
14314TIP3   OH264356   2.317   0.851   2.988 -0.4712 -0.3674  0.0674
14314TIP3    H164357   2.304   0.921   2.924 -4.0790  0.0117  1.0618
14314TIP3    H264358   2.354   0.779   2.938  0.6107  1.2748 -1.5706
14315TIP3   OH264359   1.690   1.290   4.584 -0.5122  0.8202  0.9936
14315TIP3    H164360   1.704   1.281   4.678  1.2989 -1.8037  0.5196
14315TIP3    H264361   1.776   1.317   4.549 -0.9716  1.0270  0.0013
14316TIP3   OH264362   3.156   2.230  11.522 -0.2197 -0.6347 -0.2156
14316TIP3    H164363   3.226   2.165  11.528  0.6448  0.3944  0.8377
14316TIP3    H264364   3.189   2.296  11.461 -1.3304 -1.4322 -1.7357
14317TIP3   OH264365   1.137   2.230  13.300  0.1266 -0.6593  0.2035
14317TIP3    H164366   1.130   2.322  13.275 -0.6361 -1.3533 -2.3203
14317TIP3    H264367   1.161   2.231  13.393  1.7421  2.0726 -0.2083
14318TIP3   OH264368   4.847   5.305  13.549 -0.2777  0.5316 -0.4381
14318TIP3    H164369   4.863   5.217  13.584  3.0771 -0.0732 -3.1693
14318TIP3    H264370   4.861   5.364  13.623  1.0421 -1.0334  0.5771
14319TIP3   OH264371   1.955   4.739   2.436 -0.2168  0.3466  0.4022
14319TIP3    H164372   1.956   4.826   2.475 -0.2819  0.1850  0.7649
14319TIP3    H264373   1.991   4.752   2.348  0.6885  0.5739  0.8013
14320TIP3   OH264374   1.516   0.200  11.286 -0.1006 -0.3938 -0.0557
14320TIP3    H164375   1.428   0.232  11.304  0.5332  1.1056  0.5340
14320TIP3    H264376   1.504   0.131  11.221 -1.7211 -0.3488  0.1729
14321TIP3   OH264377   0.363   2.640   0.907  0.5277 -0.2730 -0.1258
14321TIP3    H164378   0.390   2.558   0.866 -0.7546 -1.0647  0.5931
14321TIP3    H264379   0.432   2.658   0.971  0.2869 -1.3317  0.4411
14322TIP3   OH264380   1.288   1.481   4.634 -0.3182  0.0938  0.3424
14322TIP3    H164381   1.237   1.507   4.557  0.8252 -0.1945 -0.5142
14322TIP3    H264382   1.352   1.419   4.601 -0.2563 -0.5601  1.6516
14323TIP3   OH264383   4.486   4.640  11.672  0.2003 -0.2274 -0.0452
14323TIP3    H164384   4.549   4.693  11.622  0.4293  2.5771  3.0637
14323TIP3    H264385   4.541   4.587  11.729 -0.1573 -0.5733 -0.0267
14324TIP3   OH264386   2.317   5.148   1.129 -0.5462  0.1839  0.2048
14324TIP3    H164387   2.250   5.089   1.165 -0.3273 -0.3767 -0.2955
14324TIP3    H264388   2.341   5.205   1.202 -0.5214 -0.5662  0.7873
14325TIP3   OH264389   1.117   1.993  14.665 -0.2144 -0.2396 -0.0239
14325TIP3    H164390   1.052   2.057  14.694  0.3208 -0.6424  2.1865
14325TIP3    H264391   1.194   2.045  14.642 -0.0279 -0.0181  1.0743
14326TIP3   OH264392   0.158   6.786  11.143  0.1877  0.6862  0.2773
14326TIP3    H164393   0.146   6.846  11.070 -1.5672 -1.1963 -1.0298
14326TIP3    H264394   0.251   6.765  11.141  0.3428  1.3939 -0.8051
14327TIP3   OH264395   1.365   5.326  17.081 -0.5560  0.7906  0.2582
14327TIP3    H164396   1.343   5.251  17.136 -1.1713 -0.0241 -1.0777
14327TIP3    H264397   1.297   5.391  17.101  0.7327  1.5351  2.3976
14328TIP3   OH264398   0.193   2.837  13.686 -0.0898 -0.1816  0.4999
14328TIP3    H164399   0.275   2.842  13.637 -1.0529  0.3809 -1.0854
14328TIP3    H264400   0.168   2.745  13.682 -0.4441 -0.0498 -0.5619
14329TIP3   OH264401   1.849   5.441  16.253  0.1317  0.1191  0.2621
14329TIP3    H164402   1.818   5.451  16.163 -1.3110  0.3382  0.7694
14329TIP3    H264403   1.799   5.505  16.303 -0.1327 -0.9906  1.4549
14330TIP3   OH264404   4.046   3.552   1.223 -0.3911 -0.4832  0.3832
14330TIP3    H164405   4.140   3.562   1.235 -0.4225  0.2427  0.0760
14330TIP3    H264406   4.011   3.641   1.231 -0.7931 -0.4257 -1.6254
14331TIP3   OH264407   0.121   4.927   2.545 -0.2760  0.5156 -0.8919
14331TIP3    H164408   0.161   5.006   2.580  0.2451  0.7947 -2.0784
14331TIP3    H264409   0.119   4.942   2.450 -0.7584 -0.6199 -1.0637
14332TIP3   OH264410   3.277   6.742   0.136  0.5060  0.1627  0.4434
14332TIP3    H164411   3.239   6.662   0.101 -2.3971  1.5702  0.2540
14332TIP3    H264412   3.368   6.719   0.156  0.6643 -2.1918 -2.7524
14333TIP3   OH264413   3.944   5.448  16.203  0.0026 -0.0338 -0.1220
14333TIP3    H164414   3.946   5.543  16.210 -0.6499  0.1616 -2.2219
14333TIP3    H264415   3.851   5.425  16.208  0.1272 -0.5153  0.0254
14334TIP3   OH264416   3.543   0.724   2.314  0.0033 -0.2531 -0.5098
14334TIP3    H164417   3.473   0.690   2.259  0.6022  1.2014 -2.2290
14334TIP3    H264418   3.583   0.794   2.262  2.3278 -0.6412  0.6818
14335TIP3   OH264419   3.375   6.412  11.017  0.2518  0.7221  0.0905
14335TIP3    H164420   3.391   6.384  11.107  0.5300  1.5193  0.2876
14335TIP3    H264421   3.281   6.430  11.014 -0.3603 -2.1869 -0.5845
14336TIP3   OH264422   1.799   1.675   2.221  0.2852 -0.0558  0.2326
14336TIP3    H164423   1.773   1.601   2.166 -2.7467  1.5506 -0.6097
14336TIP3    H264424   1.832   1.634   2.301 -0.5016 -2.3514 -0.5538
14337TIP3   OH264425   2.428   6.477   1.600  0.6019 -1.0887  0.2894
14337TIP3    H164426   2.470   6.439   1.677 -1.3299 -2.5301  0.6834
14337TIP3    H264427   2.342   6.505   1.631 -0.7094 -2.9041 -1.6022
14338TIP3   OH264428   2.013   6.658  14.237 -0.0787 -0.0888 -0.2553
14338TIP3    H164429   1.942   6.662  14.302 -1.0575 -0.0888 -1.3153
14338TIP3    H264430   2.001   6.574  14.193  0.4503  0.0117 -0.5967
14339TIP3   OH264431   5.023   1.612   2.696 -0.2935 -0.0576 -0.2973
14339TIP3    H164432   5.029   1.707   2.701  0.8501 -0.0521 -1.3942
14339TIP3    H264433   4.986   1.595   2.609 -2.0433 -0.5854  0.5260
14340TIP3   OH264434   6.178   2.773   5.293  0.0062 -0.2650 -0.0722
14340TIP3    H164435   6.143   2.796   5.379 -1.0229 -1.2908 -0.2000
14340TIP3    H264436   6.112   2.805   5.231  0.0241 -0.8628 -0.4024
14341TIP3   OH264437   4.892   6.305  14.397 -0.1739 -0.3862 -0.2485
14341TIP3    H164438   4.911   6.309  14.491 -0.5539 -1.2484 -0.1273
14341TIP3    H264439   4.969   6.343  14.355 -1.0200  2.2345  0.5077
14342TIP3   OH264440   3.110   3.538   3.680 -0.3900  0.2444 -0.2098
14342TIP3    H164441   3.067   3.453   3.694 -0.3879  0.2597 -0.1154
14342TIP3    H264442   3.041   3.602   3.694 -0.4407  0.2503 -0.4757
14343TIP3   OH264443   0.040   3.175   2.880 -0.1684 -0.6781 -0.5254
14343TIP3    H164444   0.010   3.128   2.957 -0.0507 -1.1387 -0.7617
14343TIP3    H264445  -0.032   3.233   2.857 -0.8967 -1.8112 -1.1205
14344TIP3   OH264446   5.892   2.091  16.938 -0.1363  0.3194  0.4696
14344TIP3    H164447   5.841   2.128  17.010  0.2164  1.2779  0.2367
14344TIP3    H264448   5.983   2.101  16.965 -0.0696 -4.5966  2.4550
14345TIP3   OH264449   3.480   3.669   3.529 -0.2790  0.5589  0.5254
14345TIP3    H164450   3.477   3.601   3.596 -1.6115 -0.1689 -0.2485
14345TIP3    H264451   3.407   3.728   3.552 -2.5899 -1.2665 -1.8920
14346TIP3   OH264452   6.279   1.779  15.230 -0.0750 -0.0488  0.6882
14346TIP3    H164453   6.350   1.736  15.278 -0.1010 -0.5703  0.2640
14346TIP3    H264454   6.204   1.774  15.289 -0.0593 -0.5300  0.6668
14347TIP3   OH264455   3.781   1.332   4.681  0.1333  0.7290 -0.2785
14347TIP3    H164456   3.853   1.395   4.676  1.1662 -0.1773  2.3027
14347TIP3    H264457   3.718   1.373   4.740 -0.9932  1.0291 -1.6670
14348TIP3   OH264458   2.469   0.463  16.728  0.1226  0.2719 -0.2703
14348TIP3    H164459   2.459   0.481  16.821  1.7659  0.3975 -0.0882
14348TIP3    H264460   2.494   0.371  16.724 -0.3322  0.1616 -0.6161
14349TIP3   OH264461   4.107   2.825  14.906 -0.1917 -0.4088  0.2414
14349TIP3    H164462   4.159   2.822  14.825 -1.5466 -0.0088 -0.6653
14349TIP3    H264463   4.048   2.749  14.899 -1.0779  0.2612  0.3136
14350TIP3   OH264464   4.454   3.745   3.901  0.0631  0.2765 -0.1827
14350TIP3    H164465   4.358   3.749   3.905  0.0288  0.3646 -0.9174
14350TIP3    H264466   4.472   3.682   3.831  0.5419 -0.0249  0.2145
14351TIP3   OH264467   4.232   6.083   1.113 -0.0383 -0.3041 -0.8507
14351TIP3    H164468   4.220   6.014   1.178 -0.1829  1.0218  0.5545
14351TIP3    H264469   4.283   6.150   1.158  0.8394  0.1419 -2.4639
14352TIP3   OH264470   1.242   0.246  11.305 -0.0570  0.1254 -0.4297
14352TIP3    H164471   1.213   0.246  11.213  1.0077  0.1063 -0.7810
14352TIP3    H264472   1.162   0.235  11.356 -0.5341 -1.0680 -1.4106
14353TIP3   OH264473   1.834   4.593  11.982 -0.0100 -0.0193 -0.4404
14353TIP3    H164474   1.897   4.522  11.965 -1.5746 -1.7275  0.7589
14353TIP3    H264475   1.773   4.589  11.908 -1.1301 -1.1102  0.5177
14354TIP3   OH264476   4.831   4.479  13.560 -0.1641  0.1023  0.6068
14354TIP3    H164477   4.852   4.409  13.621 -1.0753  1.3661  2.4249
14354TIP3    H264478   4.761   4.443  13.505  0.2803 -0.8445  0.6509
14355TIP3   OH264479   1.096   0.898   1.294 -0.3849  0.2163  0.1048
14355TIP3    H164480   1.162   0.906   1.363  0.8678 -0.5970 -0.9806
14355TIP3    H264481   1.061   0.809   1.303 -1.6261  0.7770  0.9254
14356TIP3   OH264482   2.678   1.386  12.142  0.4367 -0.2234 -0.0972
14356TIP3    H164483   2.672   1.411  12.234  0.8043  0.5596 -0.2849
14356TIP3    H264484   2.596   1.416  12.104  1.0994  1.2006 -0.4371
14357TIP3   OH264485   3.283   5.268  14.999 -0.0619  0.0323  0.1343
14357TIP3    H164486   3.258   5.221  14.920  1.8891  0.1694 -0.5948
14357TIP3    H264487   3.329   5.202  15.052 -0.0270  0.3378  0.4878
14358TIP3   OH264488   3.795   3.426  13.531  0.0636 -0.8844  0.0797
14358TIP3    H164489   3.751   3.366  13.472 -1.3162 -0.3486  0.5469
14358TIP3    H264490   3.883   3.389  13.542 -0.2408 -1.9205 -0.9084
14359TIP3   OH264491   4.863   5.262  13.932  0.3033  0.3956 -0.0587
14359TIP3    H164492   4.791   5.312  13.970 -0.5991 -0.1579 -1.0226
14359TIP3    H264493   4.821   5.200  13.872  1.5274 -0.3919 -0.1255
14360TIP3   OH264494   0.560   3.644  14.225 -0.0954 -0.1148 -0.0603
14360TIP3    H164495   0.606   3.680  14.301 -0.8251  0.0354  0.3102
14360TIP3    H264496   0.498   3.582  14.263  1.0493 -1.6764 -0.6740
14361TIP3   OH264497   2.909   3.807  10.508  0.3464  0.5261  0.1378
14361TIP3    H164498   2.976   3.873  10.525  0.7459 -0.2044  1.5443
14361TIP3    H264499   2.932   3.735  10.567 -0.4561 -0.5964 -0.9006
14362TIP3   OH264500   5.843   6.382  12.698 -0.0481  0.4163  0.1476
14362TIP3    H164501   5.849   6.340  12.783  0.6420 -1.1627 -0.6688
14362TIP3    H264502   5.797   6.319  12.643 -0.0188  1.2045 -0.8024
14363TIP3   OH264503   1.305   6.123  14.454 -0.4401 -0.1803  0.5196
14363TIP3    H164504   1.337   6.195  14.509  0.7962 -1.6757  1.8189
14363TIP3    H264505   1.261   6.167  14.381  2.4760  1.9504 -0.0823
14364TIP3   OH264506   4.958   4.556   4.095 -0.3938 -0.4289  0.2424
14364TIP3    H164507   4.968   4.638   4.047  2.3614 -0.0044  1.4242
14364TIP3    H264508   4.948   4.490   4.027  1.2482  0.4225 -0.8665
14365TIP3   OH264509   5.219   5.625  15.170 -0.2200  0.1556 -0.1067
14365TIP3    H164510   5.177   5.630  15.084 -1.0736 -2.3279  0.1370
14365TIP3    H264511   5.148   5.640  15.233 -0.8368 -3.9652  0.3064
14366TIP3   OH264512   6.485   2.996   2.134  0.4347 -0.2600  0.1800
14366TIP3    H164513   6.561   2.941   2.115  0.0635 -0.3058 -1.2429
14366TIP3    H264514   6.410   2.938   2.122  0.1962 -0.6913  3.2652
14367TIP3   OH264515   0.388   5.499   2.496  0.3485 -0.5839  0.0955
14367TIP3    H164516   0.366   5.406   2.500 -0.8270 -0.3230 -0.0168
14367TIP3    H264517   0.322   5.542   2.551  0.4290  0.2600 -0.4484
14368TIP3   OH264518   6.454   1.520  14.720  0.2269 -0.1092  0.5442
14368TIP3    H164519   6.408   1.602  14.736  0.3838 -0.1763  1.3536
14368TIP3    H264520   6.508   1.537  14.643 -0.2200  0.3505  0.3320
14369TIP3   OH264521   4.559   1.485  16.332  0.3001  0.3659  0.2697
14369TIP3    H164522   4.490   1.425  16.304  0.1981 -0.2309  1.7621
14369TIP3    H264523   4.516   1.570  16.338 -0.4221 -0.0788  1.5903
14370TIP3   OH264524   1.154   1.342  15.679 -0.4299 -0.0650 -0.1515
14370TIP3    H164525   1.095   1.418  15.681  1.5799  1.5147  0.2779
14370TIP3    H264526   1.238   1.376  15.708  0.0566 -2.8931  1.9096
14371TIP3   OH264527   6.593   4.645  16.448  0.1302 -0.2959  0.3905
14371TIP3    H164528   6.679   4.639  16.407 -0.3642 -3.1488 -0.3394
14371TIP3    H264529   6.539   4.691  16.384  0.5180 -0.6673 -0.2109
14372TIP3   OH264530   0.590   5.062   6.033 -0.0407  0.4276  0.0098
14372TIP3    H164531   0.530   5.018   6.094  1.1152 -2.5541 -0.9285
14372TIP3    H264532   0.664   5.087   6.088 -0.7993  1.4318  0.5972
14373TIP3   OH264533   1.748   1.938   0.252 -1.2866  0.2516  0.4929
14373TIP3    H164534   1.837   1.973   0.259 -0.3101 -2.2948  1.4168
14373TIP3    H264535   1.732   1.930   0.158  0.0697 -0.6744  0.3213
14374TIP3   OH264536   5.409   6.502  12.550  0.3706  0.1607  0.4263
14374TIP3    H164537   5.332   6.544  12.588  1.2311 -0.7466  3.3027
14374TIP3    H264538   5.376   6.420  12.512 -0.2672  0.3376  0.5989
14375TIP3   OH264539   0.402   6.352   0.743  0.3695 -0.7039 -0.1901
14375TIP3    H164540   0.458   6.277   0.762  0.7341 -0.7855 -1.5149
14375TIP3    H264541   0.401   6.403   0.824  0.4334 -1.9275  0.5966
14376TIP3   OH264542   6.462   0.944  12.991 -0.0869  0.7215 -0.4868
14376TIP3    H164543   6.372   0.975  12.998 -0.1408  0.5964 -0.6295
14376TIP3    H264544   6.493   0.977  12.906 -0.4883 -0.4982 -1.1169
14377TIP3   OH264545   2.786   6.328  12.762  0.2916  0.2265  0.2510
14377TIP3    H164546   2.735   6.407  12.749  0.3913  0.0378 -1.3949
14377TIP3    H264547   2.723   6.263  12.795 -0.2400  0.3810 -0.4559
14378TIP3   OH264548   3.302   4.085   4.162  0.0398  0.2449 -0.0586
14378TIP3    H164549   3.249   4.033   4.223  1.6636 -0.3589  0.8566
14378TIP3    H264550   3.393   4.063   4.184  0.6922  1.6989 -1.2276
14379TIP3   OH264551   3.045   0.789  12.147 -0.5376 -0.3316  0.4122
14379TIP3    H164552   3.112   0.802  12.080 -0.9527  0.6082  0.1751
14379TIP3    H264553   2.999   0.710  12.119  0.0633 -0.6299  0.2444
14380TIP3   OH264554   1.244   5.670  14.438  0.4056 -0.7640  0.0023
14380TIP3    H164555   1.317   5.617  14.405 -0.4784 -2.1384  0.2341
14380TIP3    H264556   1.203   5.706  14.359 -0.8444 -2.9088 -0.3583
14381TIP3   OH264557   3.105   3.793   0.449 -0.1439 -0.5950 -0.1109
14381TIP3    H164558   3.189   3.838   0.458 -0.4737 -0.2411  1.2739
14381TIP3    H264559   3.128   3.706   0.417  0.9051 -1.1236  2.0004
14382TIP3   OH264560   5.658   4.224  14.009 -0.1918  0.0171  0.1921
14382TIP3    H164561   5.632   4.195  14.096  0.2100  0.3257  0.4165
14382TIP3    H264562   5.686   4.144  13.964 -1.1547 -0.2674  0.0700
14383TIP3   OH264563   2.387   1.396   5.661  0.3749  0.0179 -0.0193
14383TIP3    H164564   2.319   1.452   5.697  0.4836 -0.2738  0.6412
14383TIP3    H264565   2.431   1.451   5.596  1.4419  1.2107  1.6650
14384TIP3   OH264566   5.585   0.065   4.588  0.1408  0.6085 -0.2620
14384TIP3    H164567   5.630   0.073   4.672 -0.6474  2.5890 -0.0209
14384TIP3    H264568   5.570  -0.030   4.579  1.2549  0.2595  1.2716
14385TIP3   OH264569   2.967   4.631  16.506  0.4601 -0.0000 -0.5318
14385TIP3    H164570   3.061   4.649  16.502  0.5938 -0.7633 -1.0157
14385TIP3    H264571   2.933   4.664  16.423  0.0930  1.4047  0.1715
14386TIP3   OH264572   0.020   1.316  17.077 -0.2769 -0.2714  0.1271
14386TIP3    H164573   0.005   1.228  17.041  0.5280  0.2205 -1.4519
14386TIP3    H264574   0.075   1.301  17.154 -2.1900 -1.3563  1.3334
14387TIP3   OH264575   2.396   0.908  10.832  0.3222 -0.1292  0.4408
14387TIP3    H164576   2.415   0.983  10.776  2.4419 -1.9517 -1.3889
14387TIP3    H264577   2.302   0.911  10.846 -0.0140  1.2921 -1.9394
14388TIP3   OH264578   0.962   3.555   4.757  0.2054  0.1524  0.2394
14388TIP3    H164579   0.936   3.577   4.667  0.9677 -0.4979 -0.1451
14388TIP3    H264580   0.883   3.571   4.809  0.1330  1.8178 -0.3403
14389TIP3   OH264581   0.148   3.246   1.824 -0.3371 -0.6069  0.2561
14389TIP3    H164582   0.228   3.207   1.788 -0.8462 -0.3940 -1.1225
14389TIP3    H264583   0.142   3.209   1.912  2.1455  0.6258  0.9855
14390TIP3   OH264584   5.526   0.454  16.296  0.1777 -0.3593 -0.3684
14390TIP3    H164585   5.600   0.394  16.305  0.0394 -0.2772  1.6535
14390TIP3    H264586   5.566   0.541  16.295  0.1229 -0.2928  1.1325
14391TIP3   OH264587   4.156   1.259  11.582  0.3272 -0.2531 -0.0063
14391TIP3    H164588   4.241   1.225  11.551  1.0388  0.8015  0.7543
14391TIP3    H264589   4.153   1.234  11.674 -0.9120 -1.6731 -0.4218
14392TIP3   OH264590   3.284   4.401  14.743  0.2907 -0.6260 -0.2819
14392TIP3    H164591   3.319   4.315  14.763 -0.2759 -0.3004  2.3794
14392TIP3    H264592   3.333   4.461  14.799 -0.0363  0.6476 -1.3230
14393TIP3   OH264593   1.143   1.736   6.556  0.3912  0.3626  0.0633
14393TIP3    H164594   1.056   1.729   6.595 -0.2989  0.2732 -1.4261
14393TIP3    H264595   1.204   1.712   6.626 -0.7674  0.6767  1.1893
14394TIP3   OH264596   4.812   1.620   1.064  0.0950 -0.1939 -0.1999
14394TIP3    H164597   4.724   1.638   1.032  0.2917 -0.9232 -1.1854
14394TIP3    H264598   4.810   1.527   1.087  0.8290 -0.4232 -1.0140
14395TIP3   OH264599   4.373   5.104  13.010 -0.1806 -0.2831 -0.1688
14395TIP3    H164600   4.311   5.057  12.954 -1.1515  0.8524 -0.0820
14395TIP3    H264601   4.356   5.070  13.098 -0.0107 -0.6690 -0.2863
14396TIP3   OH264602   5.031   4.236   5.531  0.6454  0.2830 -0.1005
14396TIP3    H164603   5.047   4.290   5.608  2.7026 -1.4590  0.7499
14396TIP3    H264604   4.980   4.163   5.564 -1.3250  1.2099 -1.0622
14397TIP3   OH264605   5.131   0.282  16.190  0.1166 -0.0763 -0.8851
14397TIP3    H164606   5.218   0.276  16.152  1.0723  1.3206  0.9765
14397TIP3    H264607   5.123   0.203  16.243  0.4373  0.0105 -0.7026
14398TIP3   OH264608   5.393   1.888   5.959  0.1814 -0.1161 -0.1578
14398TIP3    H164609   5.456   1.961   5.961 -1.1109  1.0027  0.8618
14398TIP3    H264610   5.351   1.891   6.045 -0.9102 -1.1649 -0.6550
14399TIP3   OH264611   1.447   2.396  12.354 -0.4790  0.3012 -0.0209
14399TIP3    H164612   1.425   2.306  12.332  1.2324 -0.8002  2.5796
14399TIP3    H264613   1.369   2.430  12.399  0.0362 -0.9589  1.8900
14400TIP3   OH264614   1.550   2.077   1.985 -0.0925  0.2251  0.4187
14400TIP3    H164615   1.545   1.994   2.033 -1.8776 -0.0963 -0.2893
14400TIP3    H264616   1.581   2.140   2.049  0.7627 -0.8862  1.1108
14401TIP3   OH264617   6.135   4.779   3.815 -0.3268 -0.6268 -0.5851
14401TIP3    H164618   6.132   4.854   3.874  0.1357 -1.1275  0.0814
14401TIP3    H264619   6.062   4.723   3.843  2.1475 -2.7105  2.0305
14402TIP3   OH264620   3.451   2.706  15.800 -0.0248 -0.1622 -0.0334
14402TIP3    H164621   3.491   2.674  15.880 -1.9516  0.2456  1.1091
14402TIP3    H264622   3.389   2.773  15.828 -0.9699 -0.2345 -1.8314
14403TIP3   OH264623   4.417   2.531  15.271 -0.7363 -0.4129  0.0958
14403TIP3    H164624   4.513   2.528  15.263 -0.7273  0.1452 -0.0120
14403TIP3    H264625   4.391   2.439  15.277 -0.1635 -0.5517  0.4639
14404TIP3   OH264626   5.099   5.824   3.404 -0.0219 -0.3795  0.3226
14404TIP3    H164627   5.126   5.851   3.491  0.8407 -0.2565  0.0224
14404TIP3    H264628   5.144   5.741   3.389  0.8418  0.2181 -0.4906
14405TIP3   OH264629   5.071   0.340   4.431 -0.1518  0.2092 -0.2741
14405TIP3    H164630   5.019   0.259   4.436 -1.9596  1.3702  0.1947
14405TIP3    H264631   5.085   0.365   4.523  2.7104 -0.9731 -0.3356
14406TIP3   OH264632   6.501   0.355  15.446  0.3642 -0.3265 -0.4390
14406TIP3    H164633   6.512   0.262  15.427  0.9118 -0.1768 -0.8567
14406TIP3    H264634   6.523   0.363  15.539  0.3389 -0.6121 -0.4086
14407TIP3   OH264635   5.080   6.660  15.621  0.4664 -0.7082  0.6060
14407TIP3    H164636   5.049   6.708  15.545 -0.5403 -0.6128  1.0642
14407TIP3    H264637   5.175   6.669  15.619  0.5932 -2.1092 -1.5679
14408TIP3   OH264638   1.794   2.676  16.134  0.4488 -0.1328  0.3331
14408TIP3    H164639   1.707   2.704  16.165 -0.4576 -0.1125 -2.1315
14408TIP3    H264640   1.838   2.758  16.111  0.5607 -0.2397  0.1676
14409TIP3   OH264641   1.311   4.712  16.000 -0.0172  0.4952  0.0149
14409TIP3    H164642   1.350   4.659  16.069 -0.4582  1.0145  0.6673
14409TIP3    H264643   1.217   4.697  16.009 -0.0405  0.0482 -0.8990
14410TIP3   OH264644   1.397   0.751  10.820 -0.6054  0.0834 -0.2624
14410TIP3    H164645   1.377   0.670  10.773 -1.8433 -0.5324  1.2843
14410TIP3    H264646   1.475   0.785  10.777 -0.6997 -1.3757 -1.6245
14411TIP3   OH264647   1.057   4.997   4.432  0.1043 -0.1616 -0.1501
14411TIP3    H164648   0.983   5.034   4.479  0.5818 -0.9841  1.2723
14411TIP3    H264649   1.024   4.915   4.395  0.6321 -1.1499  1.5310
14412TIP3   OH264650   4.679   6.493  15.329 -0.2458  1.5243  0.0556
14412TIP3    H164651   4.620   6.507  15.255 -0.0326  0.6319 -0.2935
14412TIP3    H264652   4.622   6.475  15.403 -0.4301  1.0697 -0.1936
14413TIP3   OH264653   1.778   4.228   0.852  0.0476  0.2309 -0.1896
14413TIP3    H164654   1.710   4.196   0.794 -0.4697 -1.3563  1.2674
14413TIP3    H264655   1.858   4.186   0.822  0.3040  1.6097 -1.5043
14414TIP3   OH264656   6.230   4.027  13.825 -0.4331  0.4190  0.0062
14414TIP3    H164657   6.193   4.084  13.757  0.2034 -0.0730 -0.7617
14414TIP3    H264658   6.304   4.076  13.859  0.5412 -0.2190 -1.1377
14415TIP3   OH264659   2.898   1.565   2.289 -0.3937 -0.6485 -0.6758
14415TIP3    H164660   2.871   1.518   2.368  0.2559  0.4684  0.2256
14415TIP3    H264661   2.821   1.616   2.264  0.0532  0.6003  0.4471
14416TIP3   OH264662   2.526   4.055   6.093  0.6410  0.1752 -0.0655
14416TIP3    H164663   2.550   3.965   6.072  0.6943 -0.1765  1.4590
14416TIP3    H264664   2.601   4.090   6.140  1.0761  1.3836 -1.6363
14417TIP3   OH264665   3.934   2.499   1.183  0.2325  0.4391  0.1302
14417TIP3    H164666   3.898   2.464   1.101  0.9761  1.2889 -0.5716
14417TIP3    H264667   3.862   2.551   1.220 -0.0994  0.0747  0.0018
14418TIP3   OH264668   5.853   3.309   1.848 -0.1916  0.9003 -0.4354
14418TIP3    H164669   5.802   3.234   1.819  2.2078 -0.4783 -1.1778
14418TIP3    H264670   5.845   3.372   1.777 -0.2034  0.3868 -0.8925
14419TIP3   OH264671   4.141   5.817   3.219 -0.7271 -0.5076 -0.1365
14419TIP3    H164672   4.145   5.725   3.193 -2.1490 -0.7752  0.5789
14419TIP3    H264673   4.233   5.841   3.234 -0.3830 -1.9594  0.1976
14420TIP3   OH264674   5.864   2.314  11.418 -0.0611  0.4864 -0.1997
14420TIP3    H164675   5.938   2.277  11.370  0.0718 -1.4392  1.4212
14420TIP3    H264676   5.807   2.351  11.351  1.2359 -0.1046 -1.6399
14421TIP3   OH264677   1.520   3.903  15.742  0.3138  0.3201 -0.6662
14421TIP3    H164678   1.594   3.887  15.683  0.0992  0.8608 -1.0880
14421TIP3    H264679   1.444   3.903  15.685  0.0216  0.0796 -0.2766
14422TIP3   OH264680   0.608   2.264   5.039  1.1613 -0.0175 -0.0904
14422TIP3    H164681   0.590   2.342   5.091  0.9494 -0.8561  1.1346
14422TIP3    H264682   0.651   2.204   5.100  0.3220 -1.2750 -0.6946
14423TIP3   OH264683   3.436   3.750  11.269  0.4151  0.0904 -0.3271
14423TIP3    H164684   3.412   3.760  11.361 -2.1089  0.5487 -1.0078
14423TIP3    H264685   3.423   3.837  11.231 -0.6811 -0.5847 -1.5686
14424TIP3   OH264686   1.985   6.270   2.250 -0.4353 -0.3366  0.1530
14424TIP3    H164687   1.946   6.261   2.163  0.1431 -0.5420 -0.0890
14424TIP3    H264688   2.065   6.322   2.235 -0.2601 -0.4914  0.5392
14425TIP3   OH264689   1.688   1.558   5.134  0.0815  0.2571 -0.1431
14425TIP3    H164690   1.750   1.574   5.205 -0.7833 -2.0879  1.1806
14425TIP3    H264691   1.605   1.540   5.177 -1.0921  1.3650 -1.8495
14426TIP3   OH264692   0.476   6.779  14.236 -0.0182 -0.5958 -0.5272
14426TIP3    H164693   0.475   6.684  14.237 -1.4894 -0.5912  0.6367
14426TIP3    H264694   0.447   6.803  14.148  1.3100 -1.2083 -1.1417
14427TIP3   OH264695   4.565   0.268  12.398 -0.1637 -0.1953 -0.3483
14427TIP3    H164696   4.596   0.178  12.403  0.5158 -0.0204 -1.2687
14427TIP3    H264697   4.640   0.317  12.364 -1.0714  0.4382 -1.4517
14428TIP3   OH264698   4.949   2.197  14.212  0.4854 -0.3670 -0.3097
14428TIP3    H164699   5.029   2.250  14.209  1.4791 -1.7794  0.4460
14428TIP3    H264700   4.958   2.146  14.292 -0.6723 -1.3269 -0.7875
14429TIP3   OH264701   4.354   4.890   2.469 -0.7745  0.1284 -0.3148
14429TIP3    H164702   4.408   4.954   2.516  0.0706 -1.1272  0.4733
14429TIP3    H264703   4.275   4.938   2.445  0.9442  2.1897 -2.0470
14430TIP3   OH264704   4.219   5.222  14.504  0.1568 -0.1625 -0.1927
14430TIP3    H164705   4.203   5.221  14.409  1.2307 -2.6396 -0.3725
14430TIP3    H264706   4.315   5.228  14.512 -0.0238  2.2858  0.7976
14431TIP3   OH264707   0.758   2.004  11.278 -0.0645 -0.1828 -0.1234
14431TIP3    H164708   0.736   2.030  11.189  1.2442 -0.2791 -0.4756
14431TIP3    H264709   0.673   1.986  11.319 -0.6926  0.2508 -1.2212
14432TIP3   OH264710   5.563   5.117  13.101 -0.4560 -0.0130 -0.1537
14432TIP3    H164711   5.483   5.074  13.134  0.3721 -1.2940  0.2454
14432TIP3    H264712   5.613   5.045  13.062  0.2852  0.8708 -0.8233
14433TIP3   OH264713   4.300   4.664  10.672 -0.3453  0.4223  0.2681
14433TIP3    H164714   4.283   4.602  10.742 -1.3262  0.1386 -0.1960
14433TIP3    H264715   4.266   4.747  10.705  0.3083  0.5581  0.6060
14434TIP3   OH264716   1.959   3.760   2.801  0.0579  0.5755  0.4234
14434TIP3    H164717   1.904   3.683   2.818  0.2435  0.2302 -0.5330
14434TIP3    H264718   1.968   3.802   2.887 -0.4764 -0.1807  0.8558
14435TIP3   OH264719   5.313   4.014   5.044 -0.6080 -0.0706 -0.2251
14435TIP3    H164720   5.227   3.974   5.030 -0.4723 -0.0650 -1.0724
14435TIP3    H264721   5.295   4.108   5.051 -0.6560 -0.0644 -0.4565
14436TIP3   OH264722   3.425   4.909   0.004 -1.0094  0.5007  0.8092
14436TIP3    H164723   3.333   4.914   0.030 -1.3979 -1.6047 -0.0555
14436TIP3    H264724   3.424   4.856  -0.076  0.8560  1.2680  0.2548
14437TIP3   OH264725   3.151   4.505   4.168  0.0601  0.6582 -0.3378
14437TIP3    H164726   3.124   4.581   4.117 -0.9379  0.5733  0.0497
14437TIP3    H264727   3.100   4.511   4.249  1.5644  0.7524  0.6284
14438TIP3   OH264728   6.264   0.932  16.035 -0.4399  0.7267  0.2593
14438TIP3    H164729   6.310   1.015  16.045  2.5569 -1.1506  2.8529
14438TIP3    H264730   6.277   0.908  15.943  0.5586  2.0702  0.0409
14439TIP3   OH264731   4.612   2.086  14.699 -0.5140 -0.0230  0.3121
14439TIP3    H164732   4.537   2.115  14.647 -0.4809 -1.1921 -0.4181
14439TIP3    H264733   4.658   2.166  14.723 -0.6398  0.5533 -1.3068
14440TIP3   OH264734   1.663   1.570   0.640  0.2307 -0.1864  0.3050
14440TIP3    H164735   1.715   1.583   0.719  1.8487  0.3637 -0.8266
14440TIP3    H264736   1.720   1.600   0.569 -2.2612  2.1288 -0.8260
14441TIP3   OH264737   1.242   3.613   1.239 -0.5054 -0.0625 -0.0865
14441TIP3    H164738   1.304   3.639   1.171  1.8237 -0.8432  1.7063
14441TIP3    H264739   1.225   3.693   1.288 -0.6700  0.0655 -0.3456
14442TIP3   OH264740   5.133   2.601   0.829 -0.2054  0.2045  0.2036
14442TIP3    H164741   5.129   2.576   0.737  0.8598  2.5924 -0.5313
14442TIP3    H264742   5.222   2.578   0.856 -0.3296  0.0453  0.4834
14443TIP3   OH264743   5.102   1.938   4.611 -0.7548 -0.3361  0.0949
14443TIP3    H164744   5.129   2.015   4.561  2.1015 -0.1951  1.7628
14443TIP3    H264745   5.153   1.942   4.692  0.6798 -4.8293 -0.4313
14444TIP3   OH264746   3.657   0.482  14.390 -0.3570 -0.9080 -0.3529
14444TIP3    H164747   3.653   0.395  14.431 -0.5661 -0.3023  0.9465
14444TIP3    H264748   3.723   0.473  14.321 -0.6107 -2.1843 -0.4436
14445TIP3   OH264749   6.375   6.047  12.560 -0.2531 -0.5832  0.0453
14445TIP3    H164750   6.286   6.076  12.540 -0.1303 -1.1246 -1.3595
14445TIP3    H264751   6.430   6.124  12.546 -0.7481  0.3855  3.1364
14446TIP3   OH264752   2.975   6.260   3.498  0.2710  0.5510 -0.0657
14446TIP3    H164753   2.914   6.207   3.549 -0.7068  0.0463 -1.7043
14446TIP3    H264754   2.929   6.276   3.415  1.1985  2.6361 -0.2010
14447TIP3   OH264755   0.699   5.080  13.597  0.6941  0.2524 -0.6830
14447TIP3    H164756   0.613   5.095  13.638  0.0912 -0.5030 -1.6320
14447TIP3    H264757   0.743   5.020  13.656 -0.3972 -1.2910 -1.3895
14448TIP3   OH264758   5.548   3.534  13.993  0.0180 -0.0345  0.1902
14448TIP3    H164759   5.561   3.442  14.014  1.2444  0.0179 -0.3476
14448TIP3    H264760   5.598   3.581  14.060 -0.0245  0.2334  0.0313
14449TIP3   OH264761   2.132   2.605  15.672 -0.0277  0.4639  0.3592
14449TIP3    H164762   2.148   2.658  15.594 -2.2853  0.1319 -0.3517
14449TIP3    H264763   2.154   2.663  15.745  0.7684  1.2341 -0.4753
14450TIP3   OH264764   3.066   2.630   0.298  0.5572 -0.0559  0.6428
14450TIP3    H164765   3.127   2.648   0.370  0.5790  0.6851  0.4395
14450TIP3    H264766   3.019   2.552   0.326  1.2777 -0.3650  1.0096
14451TIP3   OH264767   4.587   2.600   0.936 -0.6081 -0.0818 -0.0021
14451TIP3    H164768   4.517   2.569   0.994 -3.4134  1.3909 -2.4052
14451TIP3    H264769   4.554   2.582   0.848  1.3547  2.1089 -1.2354
14452TIP3   OH264770   3.676   5.666  16.720  0.4358 -0.8020 -0.0739
14452TIP3    H164771   3.683   5.749  16.768 -3.7619 -0.2109 -0.3729
14452TIP3    H264772   3.667   5.599  16.789 -0.0477 -0.5770  0.0808
14453TIP3   OH264773   5.358   1.690  10.464  0.3216  0.1176 -0.3537
14453TIP3    H164774   5.287   1.629  10.484 -0.0955  0.7031 -0.0410
14453TIP3    H264775   5.423   1.637  10.417  1.0243 -1.1397  1.9511
14454TIP3   OH264776   0.241   2.179   0.871  0.3850  0.0595 -0.0190
14454TIP3    H164777   0.250   2.111   0.938  0.2893  0.1657  0.1035
14454TIP3    H264778   0.304   2.246   0.897  2.5484 -1.2405 -1.7229
14455TIP3   OH264779   4.530   3.494   3.778 -0.1855 -0.0509  0.2208
14455TIP3    H164780   4.463   3.436   3.812  0.8801  0.1210  2.7333
14455TIP3    H264781   4.611   3.444   3.784  0.4613  1.0310  0.6886
14456TIP3   OH264782   3.010   3.892  15.883  0.4069  0.0715 -0.4484
14456TIP3    H164783   3.026   3.968  15.826  3.6441 -0.4677 -0.3584
14456TIP3    H264784   3.037   3.922  15.970  0.5493 -0.7828 -0.1994
14457TIP3   OH264785   1.356   6.314   2.433 -0.3217  0.2593 -0.5398
14457TIP3    H164786   1.412   6.380   2.393  1.6967  0.2716  2.1259
14457TIP3    H264787   1.414   6.240   2.451 -1.4247 -0.2471  1.1329
14458TIP3   OH264788   2.291   5.711  16.674 -0.4323 -0.3917  0.5933
14458TIP3    H164789   2.229   5.693  16.603  1.3554 -1.5534 -0.7258
14458TIP3    H264790   2.255   5.788  16.718 -1.6194  0.3384 -1.5505
14459TIP3   OH264791   3.974   0.255   5.430  0.3061 -0.2392 -0.4117
14459TIP3    H164792   3.902   0.203   5.466 -0.3560  0.0085 -1.3539
14459TIP3    H264793   4.053   0.211   5.460 -0.2447 -0.9378  0.0210
14460TIP3   OH264794   4.389   0.499  15.303  0.2002  0.2271  0.5092
14460TIP3    H164795   4.295   0.502  15.318  0.5205 -0.3594  2.8326
14460TIP3    H264796   4.408   0.406  15.287  0.3872  0.3343  0.1139
14461TIP3   OH264797   5.012   2.306   3.568  0.0302  0.6099 -0.3931
14461TIP3    H164798   4.955   2.359   3.624 -0.4601 -0.8451  0.4897
14461TIP3    H264799   4.954   2.272   3.499  0.5269  1.9545 -1.5001
14462TIP3   OH264800   5.672   6.715   3.884  0.9751  0.0787  0.1885
14462TIP3    H164801   5.693   6.778   3.815 -1.0375 -0.7013 -1.1959
14462TIP3    H264802   5.704   6.631   3.851 -0.6109 -0.4205 -0.1735
14463TIP3   OH264803   4.080   5.161  11.548  0.8576  0.1555  0.3184
14463TIP3    H164804   4.150   5.096  11.551  2.8384  2.0985 -1.6656
14463TIP3    H264805   4.087   5.208  11.631  0.9829 -0.5985  0.7335
14464TIP3   OH264806   1.961   3.555  16.747 -0.4561 -0.7231  0.0503
14464TIP3    H164807   1.970   3.461  16.762 -0.6494 -0.7919 -0.2604
14464TIP3    H264808   1.904   3.585  16.817  0.3409 -0.6751  0.6829
14465TIP3   OH264809   2.947   2.366   0.388 -0.3588  0.0982  0.1649
14465TIP3    H164810   2.907   2.289   0.428  1.1750 -0.1515  1.2677
14465TIP3    H264811   2.956   2.343   0.296 -0.1220 -0.9604  0.4431
14466TIP3   OH264812   1.113   4.767  12.956 -0.7017 -0.1318  0.1435
14466TIP3    H164813   1.118   4.697  12.891  0.4928 -1.0255  1.1720
14466TIP3    H264814   1.178   4.831  12.927 -1.3471  0.2727 -0.4452
14467TIP3   OH264815   0.792   6.408  13.040  0.3000  0.4220  0.3498
14467TIP3    H164816   0.701   6.379  13.052  0.6904 -0.1849  1.9186
14467TIP3    H264817   0.839   6.330  13.012  0.7169  0.2785  1.4426
14468TIP3   OH264818   1.488   4.752  13.862  0.6881  0.6156  0.4252
14468TIP3    H164819   1.556   4.807  13.824  0.4812  1.3267  1.0698
14468TIP3    H264820   1.503   4.758  13.956 -0.3681  0.8948  0.5735
14469TIP3   OH264821   5.668   6.738  16.541 -1.1082  0.5082  0.2046
14469TIP3    H164822   5.755   6.777  16.550 -0.6482 -0.4902  0.1601
14469TIP3    H264823   5.615   6.781  16.609 -0.0523 -0.3317  1.5801
14470TIP3   OH264824   0.682   4.794  12.213 -0.2903 -0.1568  0.3332
14470TIP3    H164825   0.717   4.804  12.125  1.3615 -0.5545  0.9187
14470TIP3    H264826   0.751   4.749  12.261  0.0407  2.5176  2.5357
14471TIP3   OH264827   2.345   5.231  13.593 -0.1653 -0.6276  0.1294
14471TIP3    H164828   2.437   5.258  13.600 -0.2531  0.1932 -1.5833
14471TIP3    H264829   2.346   5.161  13.528 -0.8328 -0.1446 -0.4119
14472TIP3   OH264830   4.620   0.785  12.506 -0.4249 -0.5232 -0.0608
14472TIP3    H164831   4.713   0.779  12.525 -0.1927  0.8303 -0.7091
14472TIP3    H264832   4.605   0.719  12.438  0.3128  0.0809 -0.8257
14473TIP3   OH264833   0.479   0.696   5.766  0.2107 -0.0403  0.0160
14473TIP3    H164834   0.502   0.788   5.757  0.2809  0.0851  1.2967
14473TIP3    H264835   0.386   0.691   5.745  0.0532  0.4308  0.6065
14474TIP3   OH264836   1.244   4.266  16.336  0.2541 -0.2140 -0.0369
14474TIP3    H164837   1.184   4.213  16.283 -1.2712  1.5859 -0.1485
14474TIP3    H264838   1.309   4.203  16.368 -0.3400 -1.7973 -1.8252
14475TIP3   OH264839   1.825   1.441   2.644 -0.5368  0.4583  0.2924
14475TIP3    H164840   1.900   1.462   2.700  0.5618  0.2667 -1.0753
14475TIP3    H264841   1.751   1.436   2.704  0.9195 -1.5833  2.0156
14476TIP3   OH264842   0.480   4.234   1.654  0.2562  1.0153 -0.6201
14476TIP3    H164843   0.395   4.257   1.692  0.9789  0.0636  1.6849
14476TIP3    H264844   0.497   4.302   1.589 -1.2815  2.4498  0.4446
14477TIP3   OH264845   1.299   1.642  11.926  0.7293  0.2976  0.0364
14477TIP3    H164846   1.334   1.713  11.873  3.6074 -0.3304  0.9779
14477TIP3    H264847   1.327   1.663  12.015 -1.8101  0.0155  0.9393
14478TIP3   OH264848   1.296   3.286  12.743 -0.2531  0.1906  0.2798
14478TIP3    H164849   1.348   3.316  12.669  2.3629  3.3504  3.2260
14478TIP3    H264850   1.343   3.209  12.776 -2.0949 -1.9815 -1.9423
14479TIP3   OH264851   4.062   0.373   2.026 -0.1528 -0.2401 -0.1107
14479TIP3    H164852   3.992   0.345   2.086  0.6014 -1.5498  0.1833
14479TIP3    H264853   4.135   0.397   2.084  0.3333 -0.8392 -0.4642
14480TIP3   OH264854   1.319   3.706   0.986 -0.3742  0.5929  0.3451
14480TIP3    H164855   1.325   3.619   0.948 -0.0843  0.8894 -0.3010
14480TIP3    H264856   1.232   3.737   0.963 -0.6079  0.3377  0.8783
14481TIP3   OH264857   3.885   2.060   1.838  0.3031  0.2281  0.3447
14481TIP3    H164858   3.819   2.115   1.794 -1.6546 -0.3985  2.3871
14481TIP3    H264859   3.924   2.118   1.903 -0.4523 -0.2591  1.2434
14482TIP3   OH264860   5.870   0.615   4.008  0.5203 -0.0975  0.3989
14482TIP3    H164861   5.957   0.580   3.990  0.5204  1.0573 -2.0678
14482TIP3    H264862   5.861   0.609   4.103  2.5412 -1.9620  0.5171
14483TIP3   OH264863   5.685   3.860  12.367  0.3136 -0.0445 -0.2938
14483TIP3    H164864   5.662   3.895  12.281  0.7130 -1.1646 -0.8606
14483TIP3    H264865   5.600   3.845  12.409  0.0813 -0.7927 -1.0193
14484TIP3   OH264866   0.408   0.622  14.375 -0.3342 -0.2359  0.4512
14484TIP3    H164867   0.466   0.698  14.375 -1.1951  0.4442 -0.7378
14484TIP3    H264868   0.462   0.550  14.409  0.6595  0.7667  1.0310
14485TIP3   OH264869   3.724   6.432   5.185 -0.3724 -0.0741 -1.2234
14485TIP3    H164870   3.754   6.502   5.241  2.3103 -0.7004 -1.8018
14485TIP3    H264871   3.629   6.429   5.198  0.0407  0.6086  2.2559
14486TIP3   OH264872   6.184   4.256   3.967  0.0503 -0.7760 -0.4413
14486TIP3    H164873   6.100   4.246   4.012  0.1413 -0.4996 -0.2120
14486TIP3    H264874   6.238   4.307   4.027  1.0854 -2.7298  0.3556
14487TIP3   OH264875   0.351   5.713  15.395  0.0110 -0.0740 -0.3755
14487TIP3    H164876   0.273   5.768  15.396  0.6304  0.8183 -0.8908
14487TIP3    H264877   0.410   5.755  15.332  1.0903 -0.4929  0.3423
14488TIP3   OH264878   6.537   3.784   1.608 -0.0830  0.1095  0.0724
14488TIP3    H164879   6.528   3.852   1.542  2.4273 -1.1228 -1.5965
14488TIP3    H264880   6.448   3.773   1.643 -0.8450  2.9540 -0.8765
14489TIP3   OH264881   5.539   0.381  11.167 -0.1217 -0.4424 -0.4415
14489TIP3    H164882   5.505   0.414  11.084  0.5442 -1.1935 -1.0257
14489TIP3    H264883   5.568   0.292  11.147  0.9566 -0.2842  0.3563
14490TIP3   OH264884   5.190   4.804   2.664  0.2795  0.5877  0.3350
14490TIP3    H164885   5.215   4.727   2.714  2.5135  0.1055 -1.4386
14490TIP3    H264886   5.134   4.771   2.594  2.0741  0.3817 -1.0421
14491TIP3   OH264887   4.958   3.744   2.067  0.4049  0.3971  0.4235
14491TIP3    H164888   4.975   3.650   2.071 -2.4894 -0.1402  1.4055
14491TIP3    H264889   4.967   3.767   1.975  1.2711 -0.8155  0.2022
14492TIP3   OH264890   1.198   4.925  13.901 -0.3304 -0.0426 -0.6884
14492TIP3    H164891   1.208   4.987  13.973 -0.8531 -0.9473  0.1776
14492TIP3    H264892   1.265   4.951  13.837  0.1200  0.7832  0.1060
14493TIP3   OH264893   1.215   5.229  12.837 -0.6790  0.1356 -0.3911
14493TIP3    H164894   1.300   5.241  12.879 -0.4824 -0.4586 -0.6178
14493TIP3    H264895   1.227   5.261  12.748 -0.9875  1.0301 -0.1169
14494TIP3   OH264896   4.387   5.178   2.506  0.1569 -0.1810 -0.2977
14494TIP3    H164897   4.384   5.273   2.497  0.6063 -0.1353  0.0087
14494TIP3    H264898   4.440   5.149   2.431 -0.5369 -0.2504 -0.7704
14495TIP3   OH264899   1.142   4.155   2.353  0.3249 -0.3474 -0.1810
14495TIP3    H164900   1.105   4.115   2.274 -0.7556  0.5414 -0.1239
14495TIP3    H264901   1.176   4.239   2.324 -0.1008 -0.0065  0.3135
14496TIP3   OH264902   3.168   1.827  15.894 -0.2395 -0.0856  0.3400
14496TIP3    H164903   3.078   1.854  15.877  0.0846  0.8990  0.1456
14496TIP3    H264904   3.215   1.909  15.909  0.4588 -0.6436  1.2677
14497TIP3   OH264905   0.155   6.294  10.849  0.2205 -0.0569 -0.0234
14497TIP3    H164906   0.205   6.212  10.848  0.5050  0.1229 -0.3299
14497TIP3    H264907   0.200   6.349  10.912  0.7655  0.3284 -0.7444
14498TIP3   OH264908   0.846   3.394   5.899  0.2340  0.0090  0.1597
14498TIP3    H164909   0.751   3.394   5.910  0.3156 -0.9664  0.9873
14498TIP3    H264910   0.867   3.482   5.869 -0.9094  0.3041  0.2066
14499TIP3   OH264911   6.550   3.916   3.702 -0.1336  0.0284  0.0370
14499TIP3    H164912   6.459   3.946   3.704  0.4950  1.9635  1.7095
14499TIP3    H264913   6.602   3.996   3.697  1.4600 -1.1269 -2.8893
14500TIP3   OH264914   2.422   5.690   1.756  0.4109 -0.0802  0.1493
14500TIP3    H164915   2.480   5.765   1.746  0.4016  0.1673  1.8192
14500TIP3    H264916   2.448   5.650   1.839  1.6184 -2.9966 -1.5416
14501TIP3   OH264917   2.329   2.446  16.870 -0.2892  0.5031 -0.1881
14501TIP3    H164918   2.265   2.506  16.909  0.9801  1.2590  0.7484
14501TIP3    H264919   2.380   2.414  16.944 -0.3009 -0.9864 -0.7962
14502TIP3   OH264920   5.992   3.460   2.536  0.5237  0.5136  0.1942
14502TIP3    H164921   6.072   3.462   2.589  0.0736  1.5496  0.8533
14502TIP3    H264922   6.010   3.520   2.464  1.1769 -0.9789 -0.9186
14503TIP3   OH264923   3.978   5.778   5.273 -0.2106 -0.4188  0.4999
14503TIP3    H164924   3.989   5.871   5.291  0.0151 -0.3856  0.1958
14503TIP3    H264925   4.031   5.735   5.340 -2.1028 -0.4020  2.0411
14504TIP3   OH264926   6.688   4.520  11.562  0.0792 -0.0253  0.5082
14504TIP3    H164927   6.731   4.466  11.496 -1.1769 -1.0654  0.5264
14504TIP3    H264928   6.717   4.483  11.646  0.9309  0.7072  0.5474
14505TIP3   OH264929   1.813   2.582  15.066  0.2835  0.3424 -0.3305
14505TIP3    H164930   1.887   2.536  15.104 -0.8820 -0.7717  0.6126
14505TIP3    H264931   1.833   2.588  14.973  1.4579 -0.1243 -0.1038
14506TIP3   OH264932   5.093   3.108   0.044 -0.0809  0.2095 -0.0074
14506TIP3    H164933   5.072   3.038  -0.019 -2.3257  0.8715 -0.0244
14506TIP3    H264934   5.081   3.189  -0.006  2.2878  0.6415  0.0773
14507TIP3   OH264935   6.533   5.828   6.332  0.0486  1.1655  0.2549
14507TIP3    H164936   6.490   5.742   6.339  1.9003  0.2431  0.6409
14507TIP3    H264937   6.504   5.862   6.247 -0.0553 -0.2027 -0.2776
14508TIP3   OH264938   0.264   4.729   0.867 -0.1576 -0.4177 -0.0058
14508TIP3    H164939   0.255   4.807   0.922  0.2462  0.3125 -0.9452
14508TIP3    H264940   0.292   4.764   0.782  0.6521 -1.6459 -0.2506
14509TIP3   OH264941   6.350   6.556   3.153 -0.6327  0.7010 -0.5209
14509TIP3    H164942   6.329   6.646   3.177  0.1601  0.5225  0.8683
14509TIP3    H264943   6.346   6.508   3.235  3.6227  0.3824 -0.4181
14510TIP3   OH264944   5.501   2.983   4.551  0.6923 -0.6154  0.5818
14510TIP3    H164945   5.563   2.910   4.553  0.8293 -0.5784 -1.2861
14510TIP3    H264946   5.439   2.960   4.482  0.8385  1.0828 -0.1543
14511TIP3   OH264947   6.320   1.375   0.881 -0.2201 -0.4010 -0.3806
14511TIP3    H164948   6.400   1.337   0.918 -0.3803  1.1564  1.6394
14511TIP3    H264949   6.344   1.398   0.792  1.0977 -1.4400 -0.3204
14512TIP3   OH264950   5.079   4.664  11.496  0.3449 -0.1313 -0.1610
14512TIP3    H164951   5.144   4.720  11.538  0.3614 -0.7461  0.6325
14512TIP3    H264952   5.033   4.723  11.436  0.8332  0.5746  0.1472
14513TIP3   OH264953   6.012   3.805  10.992 -0.3436  0.5518  0.1383
14513TIP3    H164954   6.093   3.830  11.037  0.3904  0.2659 -1.0253
14513TIP3    H264955   6.001   3.712  11.013 -0.1807  0.4995 -0.0137
14514TIP3   OH264956   1.014   1.298  14.325  0.2358  0.5319 -0.1342
14514TIP3    H164957   0.977   1.350  14.254  2.2569  0.0396 -1.6035
14514TIP3    H264958   0.940   1.277  14.381 -1.5662  0.0840 -2.6359
14515TIP3   OH264959   6.431   2.481   0.876  0.1116  0.1357 -0.1808
14515TIP3    H164960   6.354   2.537   0.863  0.4849  0.6459 -0.2246
14515TIP3    H264961   6.409   2.427   0.952  0.9484  2.4644  1.7854
14516TIP3   OH264962   4.886   3.324  11.531  0.0219 -0.2013 -0.4188
14516TIP3    H164963   4.961   3.267  11.517 -0.6430 -0.7323 -1.9384
14516TIP3    H264964   4.813   3.264  11.545 -0.2844  0.3005  0.1489
14517TIP3   OH264965   5.106   5.377  14.799 -0.0778  0.2881  0.0956
14517TIP3    H164966   5.196   5.343  14.793  0.0555  0.4168  1.1603
14517TIP3    H264967   5.081   5.361  14.890 -0.9632  0.6913 -0.0708
14518TIP3   OH264968   5.955   6.085  14.637  0.1521  0.1785 -0.4686
14518TIP3    H164969   5.915   6.012  14.684  0.2245  0.1921 -0.3842
14518TIP3    H264970   6.041   6.054  14.612 -0.5747 -0.4807 -2.2175
14519TIP3   OH264971   0.171   6.200  13.660  0.1496  0.2732  0.2455
14519TIP3    H164972   0.086   6.238  13.682  0.4926 -0.4185  2.8236
14519TIP3    H264973   0.150   6.129  13.599 -1.0620  0.5451  0.3389
14520TIP3   OH264974   5.781   1.379   2.819  0.3093 -0.0754  0.1112
14520TIP3    H164975   5.698   1.331   2.828  1.4338 -2.1106 -0.0488
14520TIP3    H264976   5.774   1.421   2.733 -0.3504 -0.6366 -0.1207
14521TIP3   OH264977   5.762   1.379  13.594  0.0325 -0.2006  0.3600
14521TIP3    H164978   5.704   1.418  13.529 -0.9542 -0.7611  0.8839
14521TIP3    H264979   5.729   1.289  13.605  1.1467 -0.5994  0.4871
14522TIP3   OH264980   0.464   3.754  15.781  0.1618  0.3219  0.0346
14522TIP3    H164981   0.537   3.791  15.829  0.6903  0.3501 -0.7819
14522TIP3    H264982   0.455   3.665  15.815  0.2386  0.4958  0.5036
14523TIP3   OH264983   1.958   1.298   4.500  0.3936  0.5292  0.0137
14523TIP3    H164984   1.968   1.346   4.417  0.3949 -1.5988 -1.2617
14523TIP3    H264985   2.045   1.261   4.517  0.0464 -0.2136  0.2114
14524TIP3   OH264986   3.929   2.061  13.055 -0.1519 -0.3956 -0.3387
14524TIP3    H164987   3.914   2.109  12.973  0.5460  0.0288 -0.2265
14524TIP3    H264988   3.922   1.969  13.030 -1.5740 -0.2481 -0.5418
14525TIP3   OH264989   5.059   0.905  17.025  0.5515  0.4135 -0.4689
14525TIP3    H164990   5.122   0.886  17.095 -2.1153  1.2961  2.2860
14525TIP3    H264991   5.042   0.820  16.984  1.2823 -0.3208  0.7174
14526TIP3   OH264992   6.205   5.926  15.403  0.4472 -0.0366 -0.5805
14526TIP3    H164993   6.211   5.830  15.404  1.4932  0.0103 -0.8821
14526TIP3    H264994   6.226   5.952  15.493 -0.6107 -0.1257 -0.3072
14527TIP3   OH264995   1.101   5.178   3.172 -0.2650  0.6242 -0.2375
14527TIP3    H164996   1.118   5.242   3.103 -1.1662 -0.3488 -1.3990
14527TIP3    H264997   1.187   5.145   3.197  0.4008  3.5780  1.6944
14528TIP3   OH264998   5.403   6.038  15.449  0.7174 -0.1266  0.2604
14528TIP3    H164999   5.401   5.956  15.400 -0.5044  1.2210 -2.0602
14528TIP3    H265000   5.316   6.044  15.489  0.7815  0.0702  0.3708
14529TIP3   OH265001   1.701   6.063   4.225  0.6162  0.1594 -0.1069
14529TIP3    H165002   1.729   6.036   4.312 -1.5315 -0.7510  0.3394
14529TIP3    H265003   1.629   6.124   4.240 -0.7873 -1.1726 -1.2431
14530TIP3   OH265004   2.122   1.190   3.177 -0.8684  0.3058 -0.4541
14530TIP3    H165005   2.059   1.252   3.141 -2.8422 -1.2294  0.2962
14530TIP3    H265006   2.135   1.218   3.267 -0.5964  0.5061 -0.5527
14531TIP3   OH265007   2.425   3.885   1.564 -0.0242 -1.0642 -0.8802
14531TIP3    H165008   2.514   3.857   1.585  0.4243  0.8083 -0.2381
14531TIP3    H265009   2.419   3.974   1.597 -1.6500 -0.6283 -2.2760
14532TIP3   OH265010   0.612   6.268   4.549 -0.0430 -0.1479  0.0583
14532TIP3    H165011   0.701   6.293   4.571 -0.1066  0.3113 -0.1952
14532TIP3    H265012   0.581   6.338   4.490  0.2441 -1.4869 -1.7332
14533TIP3   OH265013   0.026   1.824  10.645 -0.7742  0.3031 -0.2109
14533TIP3    H165014   0.010   1.730  10.654  2.2207 -0.1115  1.6534
14533TIP3    H265015   0.100   1.830  10.584 -1.0331  1.4760 -0.4304
14534TIP3   OH265016   5.155   6.709   5.579 -0.6457  0.3009  0.4294
14534TIP3    H165017   5.232   6.663   5.546 -0.3716  1.5333 -0.6840
14534TIP3    H265018   5.084   6.645   5.575 -0.3075  0.0232 -1.2665
14535TIP3   OH265019   1.772   6.356   3.055  0.3704 -0.2457 -0.2902
14535TIP3    H165020   1.753   6.449   3.039 -1.0391 -0.4824 -0.0313
14535TIP3    H265021   1.847   6.337   2.999  0.0585  0.8077 -1.0728
14536TIP3   OH265022   4.700   3.382  11.875 -0.1852  0.8261 -0.2170
14536TIP3    H165023   4.776   3.364  11.820 -1.9328 -0.7347 -2.1961
14536TIP3    H265024   4.676   3.472  11.855  1.6575  1.6466  1.1126
14537TIP3   OH265025   2.518   5.213  16.251  0.2235  0.0931  0.3599
14537TIP3    H165026   2.533   5.303  16.220  1.7643 -0.0702  0.6103
14537TIP3    H265027   2.514   5.160  16.172 -1.8600  0.5444  0.1461
14538TIP3   OH265028   1.748   2.276   4.720  0.5701 -0.3790  0.5036
14538TIP3    H165029   1.833   2.317   4.738 -0.6618  1.5761  2.0219
14538TIP3    H265030   1.716   2.249   4.806 -0.1364 -1.5976 -0.1244
14539TIP3   OH265031   5.333   3.595  16.500 -0.0467 -0.1274  0.1416
14539TIP3    H165032   5.401   3.552  16.552  0.3287 -1.2597 -1.2709
14539TIP3    H265033   5.268   3.624  16.565  0.2796 -1.7521  1.2257
14540TIP3   OH265034   4.196   6.381   0.206 -0.8076 -0.2249 -0.2054
14540TIP3    H165035   4.109   6.353   0.179 -0.2543 -2.0495 -0.1275
14540TIP3    H265036   4.227   6.313   0.265 -0.3572  1.6945  1.8545
14541TIP3   OH265037   5.005   5.956   3.181  0.3866  0.0818 -0.0808
14541TIP3    H165038   5.039   5.887   3.125 -1.9886 -2.0914  1.0493
14541TIP3    H265039   5.061   5.954   3.258  1.3203  0.5284 -0.7391
14542TIP3   OH265040   3.096   1.307   5.528  0.1117 -0.6234 -0.0191
14542TIP3    H165041   3.148   1.382   5.501  0.0428  0.0697  1.7003
14542TIP3    H265042   3.144   1.270   5.602 -0.8927 -1.0596  0.4225
14543TIP3   OH265043   3.466   3.429  12.977 -0.4025  0.5107  0.4210
14543TIP3    H165044   3.398   3.398  12.917  0.1383 -0.2757  0.2027
14543TIP3    H265045   3.463   3.368  13.050  2.6855 -1.9766 -1.3782
14544TIP3   OH265046   1.138   1.454   0.377 -0.0042  0.9022  0.9170
14544TIP3    H165047   1.187   1.375   0.354 -0.6734  0.7257  0.0979
14544TIP3    H265048   1.078   1.426   0.446  1.2181  1.1833  2.1405
14545TIP3   OH265049   1.306   0.721  11.493  0.5407 -0.2962 -0.2064
14545TIP3    H165050   1.289   0.627  11.490  0.8300 -0.3447 -0.3668
14545TIP3    H265051   1.219   0.761  11.493  0.4106 -0.4862 -2.8003
14546TIP3   OH265052   4.874   5.713   5.364  0.5832  0.3988  0.0197
14546TIP3    H165053   4.829   5.685   5.444  1.0572  0.7285  0.4016
14546TIP3    H265054   4.842   5.802   5.349  0.4079  0.2963 -0.2275
14547TIP3   OH265055   0.264   2.431   3.346  0.0679  0.3979 -0.3824
14547TIP3    H165056   0.320   2.358   3.320  0.2182  0.9203 -1.5930
14547TIP3    H265057   0.295   2.505   3.294 -1.5881  0.7494 -0.9201
14548TIP3   OH265058   1.774   2.304   1.566 -0.6935 -0.9629  0.3120
14548TIP3    H165059   1.695   2.283   1.515 -0.3591  1.8791 -1.4527
14548TIP3    H265060   1.792   2.396   1.546  2.2163 -1.1434  1.8773
14549TIP3   OH265061   0.924   0.981  14.047  0.2196 -0.0650 -0.2148
14549TIP3    H165062   0.888   1.006  14.132 -0.8110  1.0522 -0.9545
14549TIP3    H265063   0.858   0.923  14.009  0.2750  0.1233 -0.6036
14550TIP3   OH265064   4.159   1.742   4.073 -0.3277 -0.1961 -0.0867
14550TIP3    H165065   4.086   1.695   4.034  1.1604 -2.8701  0.1928
14550TIP3    H265066   4.209   1.674   4.119  0.9352  1.9825  1.8609
14551TIP3   OH265067   5.059   3.410   3.501 -0.2138 -0.1977 -0.8541
14551TIP3    H165068   5.046   3.504   3.488  3.9228  0.5469 -0.3725
14551TIP3    H265069   5.095   3.379   3.417  1.2638 -0.7332 -0.0325
14552TIP3   OH265070   0.287   4.970   3.858  0.0865  0.4975  0.1442
14552TIP3    H165071   0.275   5.060   3.888 -2.7546  0.1470  0.1953
14552TIP3    H265072   0.322   4.978   3.769  0.0029  1.6604  0.2137
14553TIP3   OH265073   4.820   3.877   4.631  0.7148 -0.4971  0.4931
14553TIP3    H165074   4.829   3.957   4.577  1.7851  0.4336  2.0127
14553TIP3    H265075   4.828   3.806   4.568 -0.2248  0.5767 -0.9000
14554TIP3   OH265076   5.782   5.820  13.386  0.4179  0.3779 -0.4315
14554TIP3    H165077   5.754   5.899  13.339 -2.7537  0.6190  1.7403
14554TIP3    H265078   5.762   5.748  13.326 -0.7280  0.9023 -0.6879
14555TIP3   OH265079   4.833   3.704  13.100  0.1924 -0.2046  0.2661
14555TIP3    H165080   4.845   3.755  13.180 -0.4497 -2.7246  1.9931
14555TIP3    H265081   4.922   3.693  13.066  0.4593  0.9269  0.5562
14556TIP3   OH265082   4.771   0.807  10.334 -0.0930 -0.0123  0.6007
14556TIP3    H165083   4.769   0.746  10.260 -0.6479  0.8182 -0.0791
14556TIP3    H265084   4.720   0.882  10.304  1.0793  1.0378  1.2090
14557TIP3   OH265085   4.283   1.952  10.613 -0.5624  0.3887 -0.0788
14557TIP3    H165086   4.188   1.962  10.610 -0.4625  1.1062 -1.7167
14557TIP3    H265087   4.316   2.021  10.555  0.9129 -0.2876 -0.0711
14558TIP3   OH265088   2.041   0.933   4.677  0.6524 -0.1535  0.3700
14558TIP3    H165089   1.965   0.890   4.639 -0.3168  1.7359  0.1163
14558TIP3    H265090   2.059   0.884   4.758 -0.3261 -1.1061  0.0163
14559TIP3   OH265091   1.770   5.300  12.738 -0.1230  0.0696 -0.1328
14559TIP3    H165092   1.677   5.280  12.745  0.3758 -2.7255 -0.9881
14559TIP3    H265093   1.791   5.284  12.646  1.1465  0.9658 -0.0150
14560TIP3   OH265094   2.116   2.224   2.404 -0.2698  0.1438 -0.0918
14560TIP3    H165095   2.057   2.205   2.331  0.3609  1.4081 -0.9424
14560TIP3    H265096   2.061   2.218   2.482 -1.0329 -0.8409 -0.7056
14561TIP3   OH265097   1.370   3.280   4.032 -0.2540  0.8110 -0.5675
14561TIP3    H165098   1.429   3.302   4.104 -1.4163  0.5603  0.4682
14561TIP3    H265099   1.413   3.316   3.954  1.6355 -0.0580  0.0582
14562TIP3   OH265100   3.779   2.915   4.842  0.1514  0.3878 -0.6408
14562TIP3    H165101   3.805   2.823   4.851  3.8216  1.1757 -2.3654
14562TIP3    H265102   3.803   2.955   4.926  0.3431  0.1812 -0.5967
14563TIP3   OH265103   0.640   6.759   0.424  0.1774  0.3752 -0.6235
14563TIP3    H165104   0.722   6.724   0.460  0.6963  0.3492 -1.7931
14563TIP3    H265105   0.620   6.701   0.350 -0.9715  0.3118 -0.2782
14564TIP3   OH265106   1.260   2.392   1.829 -0.2384 -0.3104 -0.3550
14564TIP3    H165107   1.284   2.305   1.862  3.1450  0.7157  0.0749
14564TIP3    H265108   1.241   2.443   1.907  0.2397 -0.0030 -0.4333
14565TIP3   OH265109   4.055   2.601  13.409 -0.0543  0.3771  0.1707
14565TIP3    H165110   4.019   2.689  13.400  2.0341  1.0201 -2.5319
14565TIP3    H265111   4.058   2.566  13.320 -0.3303 -2.2425  1.1182
14566TIP3   OH265112   1.950   3.895  16.825  0.0994  0.0897 -0.5130
14566TIP3    H165113   1.925   3.911  16.734  0.6695 -0.6854 -0.8137
14566TIP3    H265114   2.007   3.969  16.847 -1.6886  1.3702 -0.1127
14567TIP3   OH265115   1.047   5.043  11.235  0.4825 -0.4856 -0.2600
14567TIP3    H165116   1.038   4.971  11.172 -0.0301  0.8786 -1.8077
14567TIP3    H265117   0.977   5.104  11.211  2.5353  1.7646 -0.6893
14568TIP3   OH265118   1.199   5.653   1.191 -0.1602 -0.2419  0.1803
14568TIP3    H165119   1.217   5.722   1.255  0.3469 -0.6183  0.4571
14568TIP3    H265120   1.250   5.677   1.114 -1.0011  0.3646 -0.1874
14569TIP3   OH265121   3.065   1.269   4.713 -0.1481  0.0553 -0.5274
14569TIP3    H165122   3.058   1.196   4.652 -0.9639  0.0490 -0.4256
14569TIP3    H265123   2.978   1.308   4.715  0.2483  0.9620 -0.4890
14570TIP3   OH265124   4.192   4.652  11.647  1.0007  0.4018 -0.1503
14570TIP3    H165125   4.287   4.651  11.635  0.8329  2.3919 -2.0001
14570TIP3    H265126   4.177   4.718  11.716  1.0799 -1.5565  1.7862
14571TIP3   OH265127   1.933   5.403  13.879 -0.1937  0.6244  0.4386
14571TIP3    H165128   2.007   5.343  13.885  0.0673  1.0992  1.9172
14571TIP3    H265129   1.924   5.420  13.785  1.5543  0.5633  0.2541
14572TIP3   OH265130   5.706   6.250  12.489 -0.0187 -0.2860  0.0044
14572TIP3    H165131   5.657   6.175  12.455 -1.2160 -1.0591  3.2830
14572TIP3    H265132   5.663   6.326  12.451 -0.7155 -1.1409 -0.9480
14573TIP3   OH265133   2.732   4.895   0.343  0.1439  0.1841 -1.1995
14573TIP3    H165134   2.785   4.822   0.312 -2.5285 -1.7041 -1.4804
14573TIP3    H265135   2.724   4.881   0.437 -0.6977 -0.1060 -1.3131
14574TIP3   OH265136   4.355   2.158  12.572  0.1452 -0.0856 -0.7480
14574TIP3    H165137   4.316   2.078  12.609  2.6300 -1.5695 -1.2104
14574TIP3    H265138   4.423   2.182  12.635  0.9108  0.3712 -1.7532
14575TIP3   OH265139   4.134   6.611  10.775 -0.4479 -0.0570  0.0239
14575TIP3    H165140   4.160   6.684  10.718  0.1919  0.0578  0.4570
14575TIP3    H265141   4.048   6.584  10.742  0.0042 -0.1262 -1.1341
14576TIP3   OH265142   5.552   2.831  17.072 -0.0600  0.2756 -0.1165
14576TIP3    H165143   5.526   2.855  17.161  0.0631  0.5396 -0.1504
14576TIP3    H265144   5.588   2.911  17.034  2.6363 -0.5838  0.5848
14577TIP3   OH265145   4.498   2.628   5.783  0.3331  0.6399  0.3968
14577TIP3    H165146   4.467   2.648   5.695 -0.4053  1.5989  0.8673
14577TIP3    H265147   4.465   2.700   5.837 -1.1428 -1.1099  1.8805
14578TIP3   OH265148   1.133   2.640  12.866  0.2440 -0.3165 -0.6754
14578TIP3    H165149   1.108   2.572  12.929 -0.8348  0.0237 -0.7306
14578TIP3    H265150   1.139   2.720  12.918  2.3636 -0.5894 -0.4480
14579TIP3   OH265151   6.572   2.210  16.563 -0.6250 -0.2500  0.3321
14579TIP3    H165152   6.487   2.171  16.584 -0.9033 -0.2794 -0.7991
14579TIP3    H265153   6.601   2.163  16.485 -0.2235  0.7112 -0.1043
14580TIP3   OH265154   2.851   5.274  16.074  0.1212 -0.3303  0.1746
14580TIP3    H165155   2.762   5.308  16.083  0.1702 -0.1502 -0.0082
14580TIP3    H265156   2.905   5.333  16.127  0.3364  0.4245 -0.8521
14581TIP3   OH265157   4.223   0.895   4.712 -0.7356  0.4303 -0.1196
14581TIP3    H165158   4.161   0.855   4.651  0.3092 -1.2506 -0.1394
14581TIP3    H265159   4.196   0.863   4.798 -0.9644  1.1325  0.0720
14582TIP3   OH265160   4.774   5.324   5.232 -0.4860 -0.0658 -0.4537
14582TIP3    H165161   4.742   5.237   5.208  1.3138 -0.6249 -0.9109
14582TIP3    H265162   4.783   5.321   5.327  2.4914 -1.4320 -0.7430
14583TIP3   OH265163   0.657   0.542  16.791 -0.0859 -0.4516 -0.3076
14583TIP3    H165164   0.705   0.579  16.866 -0.9075  2.3465 -1.0831
14583TIP3    H265165   0.725   0.514  16.730  0.5811  0.4924 -0.0142
14584TIP3   OH265166   5.684   4.193   3.490 -0.0173 -0.4199 -0.0231
14584TIP3    H165167   5.754   4.202   3.425  0.4413  0.8521  0.6444
14584TIP3    H265168   5.603   4.205   3.439  0.2969 -0.5049 -0.5503
14585TIP3   OH265169   1.914   6.393  15.425 -0.2151  0.2182 -0.0646
14585TIP3    H165170   1.919   6.303  15.390 -2.0586 -0.3434  1.0838
14585TIP3    H265171   2.001   6.408  15.462 -0.1330 -1.3959  0.4574
14586TIP3   OH265172   1.874   5.554  13.375 -0.6891 -0.1324 -0.2446
14586TIP3    H165173   1.950   5.611  13.364 -0.8480  0.3963  1.3310
14586TIP3    H265174   1.893   5.478  13.321 -0.0939  1.0204 -1.7181
14587TIP3   OH265175   5.960   1.184   5.716 -0.2126  0.2253 -0.1757
14587TIP3    H165176   5.896   1.113   5.706  0.7815 -0.6601 -0.3158
14587TIP3    H265177   5.925   1.255   5.663 -0.8828 -0.3873 -0.5715
14588TIP3   OH265178   3.704   5.732   4.791 -0.4128  0.2304  0.3456
14588TIP3    H165179   3.757   5.792   4.738 -1.5088  1.0394  0.1416
14588TIP3    H265180   3.748   5.730   4.876 -0.6535  1.7622  0.5294
14589TIP3   OH265181   6.135   1.693   1.977 -0.3484  0.7166  0.8241
14589TIP3    H165182   6.144   1.620   2.038  3.6744  0.4697  0.0299
14589TIP3    H265183   6.170   1.661   1.894 -3.3235  1.9077 -0.9854
14590TIP3   OH265184   3.460   6.574   4.135  0.3536 -0.3794  0.1007
14590TIP3    H165185   3.418   6.650   4.095  3.4446  2.2400  1.6659
14590TIP3    H265186   3.427   6.573   4.225  2.4444  0.8543  0.9165
14591TIP3   OH265187   4.187   4.901   4.042  0.4789 -0.3571  0.2106
14591TIP3    H165188   4.205   4.819   3.996  0.7298 -0.8157  1.0943
14591TIP3    H265189   4.259   4.909   4.105 -0.3400 -0.2138  1.1430
14592TIP3   OH265190   5.513   0.496  11.543  0.5013 -0.2422  0.3304
14592TIP3    H165191   5.567   0.465  11.471 -0.4143 -0.7448 -0.1465
14592TIP3    H265192   5.439   0.435  11.546  0.4545 -0.1320  1.5950
14593TIP3   OH265193   6.341   3.534  16.178  0.1060 -0.7634 -0.0266
14593TIP3    H165194   6.267   3.546  16.118 -0.1705 -2.4747 -0.0510
14593TIP3    H265195   6.418   3.562  16.128 -0.4502  0.5345 -0.1814
14594TIP3   OH265196   0.464   5.135  14.346  0.1843  0.1048 -0.2504
14594TIP3    H165197   0.542   5.141  14.401 -0.1130 -0.3926  0.2277
14594TIP3    H265198   0.463   5.045  14.315 -1.6562 -0.6647  1.9284
14595TIP3   OH265199   0.162   4.717  12.410 -0.3974  0.6322  0.0717
14595TIP3    H165200   0.139   4.768  12.333 -2.1655  0.4127  0.4322
14595TIP3    H265201   0.092   4.736  12.473  0.3412 -0.1804  1.1635
14596TIP3   OH265202   1.953   4.641   0.258 -0.8225  0.3548  0.2608
14596TIP3    H165203   2.026   4.578   0.253 -1.8880 -0.8662 -0.0797
14596TIP3    H265204   1.879   4.589   0.287 -2.0050  1.2355 -1.1334
14597TIP3   OH265205   6.034   5.001  12.583  0.4152 -0.5270 -0.4181
14597TIP3    H165206   6.044   4.919  12.632 -2.2341 -1.0731 -0.7114
14597TIP3    H265207   5.961   5.046  12.627  1.0158  1.1045 -1.0532
14598TIP3   OH265208   6.746   4.564   2.381 -0.3375  0.3716 -0.0638
14598TIP3    H165209   6.769   4.525   2.296  1.3138  2.0607 -0.4331
14598TIP3    H265210   6.830   4.583   2.422 -1.1263 -1.0532  2.2794
14599TIP3   OH265211   2.805   0.038   3.135 -0.4575 -0.0868 -0.3095
14599TIP3    H165212   2.743   0.104   3.104  1.0536  0.4212 -2.3603
14599TIP3    H265213   2.762  -0.046   3.117 -1.4031  0.2911  0.1685
14600TIP3   OH265214   5.176   4.632  15.813 -0.4431 -0.4451  0.0895
14600TIP3    H165215   5.244   4.607  15.752  0.2698  1.1220  0.2098
14600TIP3    H265216   5.216   4.700  15.868 -1.1581 -1.5858  2.0931
14601TIP3   OH265217   1.494   5.187  16.038 -0.2341  0.5223 -0.8023
14601TIP3    H165218   1.454   5.102  16.019 -0.2976  0.5165 -0.6479
14601TIP3    H265219   1.419   5.245  16.055 -0.1259 -0.3783  3.2078
14602TIP3   OH265220   2.728   6.664  12.078  0.2667 -0.3515  0.8879
14602TIP3    H165221   2.690   6.697  11.997 -0.2111 -1.2886  0.7310
14602TIP3    H265222   2.768   6.741  12.118 -1.6616  0.6271  0.9886
14603TIP3   OH265223   2.117   4.010  11.906 -0.2622 -0.3312 -0.7322
14603TIP3    H165224   2.043   4.025  11.846 -1.2921 -0.7779  0.3994
14603TIP3    H265225   2.076   3.991  11.990  1.1730  0.9133  0.2815
14604TIP3   OH265226   1.962   5.270  15.792  0.3325 -0.1124  0.0637
14604TIP3    H165227   2.018   5.193  15.803 -0.8105 -0.7020  2.0984
14604TIP3    H265228   1.881   5.247  15.838 -1.5494  0.7705 -2.6753
14605TIP3   OH265229   4.179   4.119  12.721 -0.3715  0.2789 -0.3993
14605TIP3    H165230   4.130   4.079  12.650  1.4519 -2.0687 -0.4114
14605TIP3    H265231   4.163   4.061  12.796  3.3696 -1.3633 -0.7545
14606TIP3   OH265232   3.243   0.754   1.438  0.3327 -0.1550 -0.3193
14606TIP3    H165233   3.177   0.822   1.448 -1.5961 -2.0940  0.7702
14606TIP3    H265234   3.264   0.753   1.345 -2.6662 -0.7782 -1.0406
14607TIP3   OH265235   6.028   5.522  15.735 -0.3317 -0.1793 -0.0417
14607TIP3    H165236   6.119   5.551  15.731  1.0049 -3.8881  0.9322
14607TIP3    H265237   6.001   5.511  15.644 -0.2828  2.2723 -0.3601
14608TIP3   OH265238   3.932   6.660   3.863 -0.3148  0.5149 -0.0179
14608TIP3    H165239   4.011   6.648   3.916  0.5167 -0.5683 -1.4560
14608TIP3    H265240   3.914   6.754   3.866 -0.7050  0.4006  2.7381
14609TIP3   OH265241   6.715   0.890   2.310 -0.0925 -0.0795  0.1367
14609TIP3    H165242   6.661   0.962   2.342  0.6728 -0.7773  3.1691
14609TIP3    H265243   6.799   0.901   2.354  0.6317 -1.8094 -0.7259
14610TIP3   OH265244   5.563   3.188  11.348 -0.6879  0.7532  0.5726
14610TIP3    H165245   5.587   3.126  11.279 -2.7755  0.7568 -0.1719
14610TIP3    H265246   5.501   3.140  11.403  0.6256  0.8959  2.2366
14611TIP3   OH265247   3.984   3.210  15.639 -0.7140 -0.0772  0.3885
14611TIP3    H165248   4.021   3.163  15.714 -1.3378  0.7074  1.1891
14611TIP3    H265249   4.044   3.189  15.567 -0.4737 -1.3679  0.9360
14612TIP3   OH265250   2.012   3.211  15.667 -0.5435 -0.4044  0.1317
14612TIP3    H165251   2.065   3.147  15.714  0.8688  0.0784 -0.7671
14612TIP3    H265252   2.065   3.291  15.668 -1.2110  0.0570 -0.8795
14613TIP3   OH265253   1.537   6.451  16.455  0.3945  0.0054  0.4320
14613TIP3    H165254   1.605   6.456  16.523  1.7743 -0.9960 -0.8337
14613TIP3    H265255   1.569   6.507  16.385 -0.6180  0.3784  0.2710
14614TIP3   OH265256   4.900   6.267   4.773  0.9489  0.5358  0.0614
14614TIP3    H165257   4.851   6.340   4.735 -0.3836 -0.4830 -0.2190
14614TIP3    H265258   4.956   6.235   4.702 -1.2572 -1.1245 -0.9697
14615TIP3   OH265259   1.594   5.089  11.361 -0.3846  0.2910 -0.2629
14615TIP3    H165260   1.652   5.072  11.287 -0.9485  0.1170 -0.6681
14615TIP3    H265261   1.614   5.019  11.423  1.5672  1.6283  0.6530
14616TIP3   OH265262   5.489   5.813   2.203  0.4392 -0.3354  0.3339
14616TIP3    H165263   5.446   5.884   2.252 -0.2139 -0.7340  0.3440
14616TIP3    H265264   5.579   5.815   2.234 -0.0623 -0.8557  1.8757
14617TIP3   OH265265   5.698   5.123  11.323 -0.4805  0.3351 -0.1345
14617TIP3    H165266   5.689   5.177  11.402 -0.4910  1.2836 -0.7771
14617TIP3    H265267   5.792   5.118  11.309 -0.4510 -0.3746  0.3038
14618TIP3   OH265268   0.528   3.341   0.804  0.3246 -0.0800 -0.6706
14618TIP3    H165269   0.507   3.412   0.744  0.6223  0.0673 -0.5990
14618TIP3    H265270   0.620   3.322   0.789  0.2698 -0.3900 -0.6248
14619TIP3   OH265271   5.100   4.206  16.409 -0.0975  0.0463 -0.1501
14619TIP3    H165272   5.074   4.142  16.343 -0.9318 -1.4464  1.5760
14619TIP3    H265273   5.047   4.284  16.390 -1.7798 -1.0600 -0.0440
14620TIP3   OH265274   2.752   0.467   4.765 -0.1375 -0.4157  0.3268
14620TIP3    H165275   2.834   0.467   4.814  0.2188 -1.0081 -0.2765
14620TIP3    H265276   2.777   0.491   4.676 -0.3742 -2.3178 -0.2724
14621TIP3   OH265277   3.163   4.263  12.098  0.0668  0.1823 -0.1575
14621TIP3    H165278   3.201   4.300  12.178  0.6528  0.5328 -0.5888
14621TIP3    H265279   3.129   4.178  12.124 -0.7877  0.7960  0.7198
14622TIP3   OH265280   4.495   0.066  10.656  0.2841 -0.3225  0.6190
14622TIP3    H165281   4.498   0.101  10.744  0.5130 -1.1063  0.9264
14622TIP3    H265282   4.582   0.081  10.620  0.5094 -0.9430  0.8988
14623TIP3   OH265283   3.969   0.808  10.752  0.5334  0.5176 -0.0869
14623TIP3    H165284   3.902   0.859  10.707 -0.3698 -1.6524 -1.2715
14623TIP3    H265285   3.951   0.717  10.728  1.8112 -0.4333  2.3351
14624TIP3   OH265286   5.683   5.298   1.926 -0.0258 -0.1768  0.4499
14624TIP3    H165287   5.680   5.237   1.999 -1.2309 -1.0197 -0.2646
14624TIP3    H265288   5.769   5.340   1.931 -0.0280 -0.3718  2.2061
14625TIP3   OH265289   2.080   4.941  13.513 -0.0666  0.1454  0.6086
14625TIP3    H165290   2.032   5.016  13.479 -1.2901 -0.3345  1.2406
14625TIP3    H265291   2.146   4.922  13.446 -0.3850  1.1616 -0.0044
14626TIP3   OH265292   5.258   3.916   1.576 -0.1368 -0.1213  0.4973
14626TIP3    H165293   5.188   3.895   1.514 -0.3976  1.1237  0.3489
14626TIP3    H265294   5.221   3.986   1.629  1.1231  0.7733  0.1958
14627TIP3   OH265295   4.182   0.864   1.715 -0.3454 -0.5572 -0.1218
14627TIP3    H165296   4.152   0.781   1.679 -0.5773 -0.2037 -0.7451
14627TIP3    H265297   4.277   0.854   1.724 -0.3169 -0.7233 -0.6276
14628TIP3   OH265298   4.806   0.083  13.998 -0.8124 -0.4183  0.3787
14628TIP3    H165299   4.870   0.147  14.029  0.1524 -0.6031 -1.1869
14628TIP3    H265300   4.845  -0.002  14.021 -0.6361 -0.5204 -0.2852
14629TIP3   OH265301   4.828   2.298  11.807 -0.3495 -0.7713 -0.1828
14629TIP3    H165302   4.893   2.302  11.877  1.1164 -0.7888 -1.5163
14629TIP3    H265303   4.782   2.382  11.812 -0.6440 -1.0092  1.1597
14630TIP3   OH265304   3.627   6.459  15.769  0.8281 -0.0634 -0.2760
14630TIP3    H165305   3.678   6.419  15.698  2.0724  2.2410 -0.7541
14630TIP3    H265306   3.641   6.553  15.757 -0.2504  0.4208  2.0978
14631TIP3   OH265307   6.133   2.302   5.611  0.0795  0.4666  0.2221
14631TIP3    H165308   6.049   2.262   5.632 -0.0095  0.3745 -0.2910
14631TIP3    H265309   6.148   2.279   5.519 -0.5644  2.6750 -0.4730
14632TIP3   OH265310   1.443   3.909  14.466 -0.9338  0.5439  0.3264
14632TIP3    H165311   1.416   3.817  14.461  1.0088 -0.2102  2.5839
14632TIP3    H265312   1.530   3.909  14.426 -1.9507  1.9030 -1.9432
14633TIP3   OH265313   5.245   1.903   4.385 -0.2382 -0.3011 -0.9590
14633TIP3    H165314   5.301   1.888   4.461  0.9536 -0.8300 -1.9348
14633TIP3    H265315   5.231   1.998   4.384 -0.9943 -0.3867  0.4280
14634TIP3   OH265316   5.496   1.064   4.828 -0.2380  0.2797  0.1047
14634TIP3    H165317   5.429   1.088   4.764 -1.2945 -0.0547  1.0838
14634TIP3    H265318   5.538   0.986   4.790 -2.0026 -0.9338  0.6290
14635TIP3   OH265319   4.695   0.412  13.042  0.4343 -0.5803 -0.1035
14635TIP3    H165320   4.726   0.500  13.062  1.3579 -0.2305 -2.8803
14635TIP3    H265321   4.717   0.360  13.120  1.5815  1.2219  0.7959
14636TIP3   OH265322   2.194   2.074  13.788  0.0795 -0.1898 -0.0538
14636TIP3    H165323   2.249   2.144  13.823  0.9838 -0.8021 -0.2092
14636TIP3    H265324   2.228   1.995  13.831  1.4803 -1.0071 -2.5797
14637TIP3   OH265325   5.282   0.657  16.244 -0.2030 -0.3105 -0.5263
14637TIP3    H165326   5.216   0.625  16.182 -1.2617  0.4311  0.1948
14637TIP3    H265327   5.233   0.713  16.304  1.3393  1.3738 -0.7983
14638TIP3   OH265328   3.371   5.371  14.019  0.0645 -0.4753 -0.3995
14638TIP3    H165329   3.339   5.343  13.933 -0.4301  0.7132 -0.6157
14638TIP3    H265330   3.464   5.389  14.006  0.3573 -1.8445 -0.2928
14639TIP3   OH265331   5.266   0.066   4.626  0.1057  0.2702  0.4350
14639TIP3    H165332   5.351   0.024   4.639  0.6950  1.1964 -0.3320
14639TIP3    H265333   5.281   0.127   4.553 -1.4750 -0.2970 -0.3876
14640TIP3   OH265334   1.189   1.387   5.146  0.4186 -0.5217  0.9416
14640TIP3    H165335   1.107   1.343   5.126  0.9801 -1.0603 -0.1766
14640TIP3    H265336   1.206   1.366   5.238 -0.2537 -1.1018  0.9337
14641TIP3   OH265337   3.892   1.378   0.673 -0.1639  0.2520 -0.1264
14641TIP3    H165338   3.887   1.316   0.600 -0.1491 -1.6307  1.4117
14641TIP3    H265339   3.829   1.345   0.736 -0.4385  2.0675  0.5750
14642TIP3   OH265340   4.447   6.303  13.150  0.7465 -0.0932 -0.1210
14642TIP3    H165341   4.463   6.382  13.097  0.9280 -0.1879 -0.2084
14642TIP3    H265342   4.422   6.236  13.086  3.2581 -0.8526 -0.3713
14643TIP3   OH265343   3.871   4.094   1.242  0.0095 -0.2619  0.5034
14643TIP3    H165344   3.843   4.028   1.305 -0.7021  0.3706  0.8481
14643TIP3    H265345   3.861   4.177   1.287  0.3810  0.1287 -0.1223
14644TIP3   OH265346   5.318   3.162  16.245  0.1183 -0.1760  0.2190
14644TIP3    H165347   5.263   3.235  16.216  0.4939  0.9078  2.1688
14644TIP3    H265348   5.373   3.199  16.313  2.0456 -1.6919 -0.4726
14645TIP3   OH265349   0.733   3.801   4.545  0.4434 -0.4457  0.1339
14645TIP3    H165350   0.765   3.842   4.625 -1.9147  3.5189 -0.8466
14645TIP3    H265351   0.808   3.801   4.486  1.1686  0.0040  1.0444
14646TIP3   OH265352   3.512   5.282   6.171 -0.2553 -0.5140 -0.0880
14646TIP3    H165353   3.505   5.260   6.264  2.1314  1.4788  0.6142
14646TIP3    H265354   3.421   5.286   6.140 -1.0296 -2.3260  1.8424
14647TIP3   OH265355   3.618   2.739   2.189 -0.1084  0.7557 -0.2260
14647TIP3    H165356   3.615   2.815   2.130 -0.2129  0.8999 -0.0324
14647TIP3    H265357   3.547   2.753   2.251  0.9998  1.3992  0.9190
14648TIP3   OH265358   3.030   3.297   3.819  0.1133  0.1552  0.0050
14648TIP3    H165359   3.029   3.322   3.911 -0.4051  2.0407 -0.4880
14648TIP3    H265360   3.035   3.202   3.820  0.9831  0.2013  1.9700
14649TIP3   OH265361   2.267   4.294   0.568  0.0215  0.4292  0.5626
14649TIP3    H165362   2.314   4.377   0.570  1.9147 -0.5955 -0.0941
14649TIP3    H265363   2.303   4.244   0.642 -0.5273 -0.1149  0.4671
14650TIP3   OH265364   4.210   6.671   0.248 -0.1965 -0.4258 -0.4816
14650TIP3    H165365   4.247   6.583   0.242  2.1801  0.4400  0.8243
14650TIP3    H265366   4.227   6.698   0.338 -0.9229  1.3647 -0.8543
14651TIP3   OH265367   5.067   4.962   1.466 -0.1048 -0.5045  0.4133
14651TIP3    H165368   5.096   5.051   1.447  0.0844 -1.0260 -1.8964
14651TIP3    H265369   5.144   4.919   1.503 -0.6896  0.7472  3.1707
14652TIP3   OH265370   6.488   5.719  11.917 -0.0466  0.4124 -0.0822
14652TIP3    H165371   6.417   5.691  11.974 -0.6287 -1.0537 -1.4943
14652TIP3    H265372   6.444   5.754  11.839  0.7425  2.1714  0.2269
14653TIP3   OH265373   4.818   5.098   3.438  0.1933  0.2086  0.2353
14653TIP3    H165374   4.864   5.057   3.511 -0.3479  0.0951  0.5170
14653TIP3    H265375   4.876   5.087   3.363  0.9753  0.7695  0.7603
14654TIP3   OH265376   1.562   5.000   4.078 -0.0888 -0.2455  1.0333
14654TIP3    H165377   1.606   4.993   3.993  0.6742  0.7854  1.3417
14654TIP3    H265378   1.543   5.093   4.087 -0.6700 -0.4317  1.7572
14655TIP3   OH265379   4.569   4.942  11.808  0.2948  0.5654  0.1246
14655TIP3    H165380   4.491   4.929  11.754  0.0350  0.1845  0.5809
14655TIP3    H265381   4.641   4.948  11.746 -0.0868  0.8442 -0.3009
14656TIP3   OH265382   2.705   5.345   5.533  0.2433 -0.9171 -0.7224
14656TIP3    H165383   2.616   5.361   5.564  0.2375 -0.4807 -0.9527
14656TIP3    H265384   2.695   5.277   5.466 -0.2666  0.9877 -2.6323
14657TIP3   OH265385   6.551   6.353  14.327 -0.3262 -0.3985 -0.6602
14657TIP3    H165386   6.458   6.370  14.313 -0.1890 -0.9128 -2.2765
14657TIP3    H265387   6.570   6.278  14.271  1.1115 -0.1592 -0.4970
14658TIP3   OH265388   1.517   6.520  17.238 -0.1081 -0.0878 -0.0681
14658TIP3    H165389   1.441   6.463  17.240 -1.4143  1.6117  0.1002
14658TIP3    H265390   1.530   6.541  17.146  1.1044 -1.5754 -0.2552
14659TIP3   OH265391   4.672   1.007  10.194 -0.3116 -0.1884 -0.2419
14659TIP3    H165392   4.589   1.033  10.233 -1.0453  0.0502 -1.8903
14659TIP3    H265393   4.726   1.085  10.197 -0.1809 -0.3163  0.7483
14660TIP3   OH265394   5.636   4.772   0.968 -0.3137  0.1116  0.4679
14660TIP3    H165395   5.702   4.810   0.911  0.8687 -1.5140  0.7051
14660TIP3    H265396   5.633   4.680   0.942 -1.3963 -0.1494  1.4931
14661TIP3   OH265397   0.477   5.762  12.024 -0.3507  0.0154  0.1607
14661TIP3    H165398   0.433   5.787  12.105  1.3280  1.7689  0.5596
14661TIP3    H265399   0.462   5.835  11.964  0.1750 -0.3360 -0.4189
14662TIP3   OH265400   3.434   5.495  16.461  0.6165 -0.2397  0.0630
14662TIP3    H165401   3.382   5.428  16.506 -0.9565  1.1771  0.4559
14662TIP3    H265402   3.374   5.531  16.395  2.1838 -0.7730 -1.6908
14663TIP3   OH265403   6.360   1.488   2.495 -0.4566  0.3989  0.3780
14663TIP3    H165404   6.438   1.520   2.540 -0.3327  1.4966 -0.5732
14663TIP3    H265405   6.366   1.393   2.499  0.4822  0.4831  1.0714
14664TIP3   OH265406   3.333   2.249   5.495  0.2879 -0.3680 -0.5289
14664TIP3    H165407   3.393   2.318   5.467 -0.4513 -0.6950 -3.0646
14664TIP3    H265408   3.301   2.210   5.414 -1.5915 -1.7307  0.8013
14665TIP3   OH265409   2.930   0.821   2.545 -0.3470 -0.1621 -0.4095
14665TIP3    H165410   2.960   0.731   2.558  1.5058 -0.2207 -4.2363
14665TIP3    H265411   2.963   0.845   2.458 -1.9354  3.7697 -0.0520
14666TIP3   OH265412   5.423   2.836   2.380  0.5021  0.3301 -0.2456
14666TIP3    H165413   5.348   2.853   2.323 -0.2724 -2.4706 -0.1452
14666TIP3    H265414   5.498   2.829   2.320 -0.2981 -2.5261 -0.9734
14667TIP3   OH265415   2.131   0.742  13.621  0.2272 -0.0278  0.2923
14667TIP3    H165416   2.156   0.805  13.689 -0.9897 -0.3291  1.0212
14667TIP3    H265417   2.088   0.671  13.668  0.4860 -0.8348 -0.6618
14668TIP3   OH265418   2.409   4.325  11.656  0.3439 -0.2675  0.4015
14668TIP3    H165419   2.314   4.333  11.649  0.5015  0.3310 -1.3247
14668TIP3    H265420   2.429   4.240  11.617  0.4635 -0.6502  1.2962
14669TIP3   OH265421   4.434   4.559   2.660 -0.8047 -0.4280  0.7672
14669TIP3    H165422   4.480   4.633   2.700 -1.3365  0.9453 -1.0806
14669TIP3    H265423   4.501   4.514   2.609 -0.1532 -2.1106  3.0101
14670TIP3   OH265424   4.427   3.427  11.102  0.2253  0.1879  0.5727
14670TIP3    H165425   4.434   3.332  11.089  0.6703  0.1934  0.7627
14670TIP3    H265426   4.347   3.452  11.056  1.1944  0.0325 -1.2455
14671TIP3   OH265427   5.785   2.187  14.750 -0.2286 -0.5900  0.1033
14671TIP3    H165428   5.742   2.229  14.676  0.7440 -0.4706 -0.4135
14671TIP3    H265429   5.799   2.258  14.813  1.4074 -0.1116 -0.7648
14672TIP3   OH265430   0.969   6.072  15.913 -0.2320  0.0379 -0.4310
14672TIP3    H165431   0.925   6.154  15.937 -1.8940 -1.7591  2.9963
14672TIP3    H265432   1.035   6.060  15.981  1.4671 -0.4357 -2.1234
14673TIP3   OH265433   1.456   4.447   0.627 -0.0292  0.1296 -0.0828
14673TIP3    H165434   1.528   4.404   0.580  0.2143  0.2826  0.1521
14673TIP3    H265435   1.418   4.508   0.563 -1.7392 -1.9391 -1.1382
14674TIP3   OH265436   1.098   2.426  13.028 -0.3901  0.0330 -0.4683
14674TIP3    H165437   1.033   2.359  13.005 -0.1243 -0.5850  0.5732
14674TIP3    H265438   1.182   2.382  13.020 -0.3627 -0.8478  3.7013
14675TIP3   OH265439   1.518   3.365  13.080  0.3776  0.2574  0.0111
14675TIP3    H165440   1.563   3.420  13.144  0.1766 -0.4076  0.7230
14675TIP3    H265441   1.434   3.343  13.120  0.5037 -0.6714 -0.2186
14676TIP3   OH265442   1.934   1.029  14.160  0.5126 -0.4540 -0.3147
14676TIP3    H165443   1.845   1.055  14.136  1.0470  0.9852 -0.8086
14676TIP3    H265444   1.990   1.089  14.111  1.7464 -0.9753  0.4398
14677TIP3   OH265445   1.432   6.711   3.931  0.1709  0.6060  0.4656
14677TIP3    H165446   1.458   6.771   3.861  0.6433  0.2361  0.3212
14677TIP3    H265447   1.486   6.736   4.006 -1.4164  1.9973  1.1636
14678TIP3   OH265448   3.003   4.388  13.147 -0.4636  0.4835 -0.4081
14678TIP3    H165449   3.013   4.302  13.105 -0.7698 -0.2001  0.9060
14678TIP3    H265450   3.087   4.402  13.192  0.3848  1.8365 -2.3459
14679TIP3   OH265451   2.408   6.519   1.941 -0.3688 -0.3482  0.3484
14679TIP3    H165452   2.389   6.613   1.937 -0.8306 -0.4493  0.1057
14679TIP3    H265453   2.471   6.510   2.012  0.9209  0.3587 -0.6971
14680TIP3   OH265454   1.912   2.171  13.347  0.1053  0.1994 -0.3736
14680TIP3    H165455   1.980   2.198  13.409  0.8491  0.4915 -1.3061
14680TIP3    H265456   1.849   2.123  13.400  1.6135 -1.0574  0.3109
14681TIP3   OH265457   5.909   2.262  16.011  0.4165  0.0094  0.0863
14681TIP3    H165458   5.955   2.334  16.053 -1.7471  0.2996  2.0406
14681TIP3    H265459   5.894   2.198  16.081 -2.3452  0.0476 -0.4021
14682TIP3   OH265460   0.779   2.407   3.677 -0.0263  0.6801  0.3264
14682TIP3    H165461   0.859   2.459   3.673  0.1671  0.4664  1.4475
14682TIP3    H265462   0.735   2.436   3.757 -0.9237  0.5853 -0.1259
14683TIP3   OH265463   5.709   4.870   4.148 -0.1604  0.5015 -0.5636
14683TIP3    H165464   5.649   4.854   4.076 -0.1496  2.6355 -1.0635
14683TIP3    H265465   5.711   4.965   4.158  2.8729  0.4587 -0.3473
14684TIP3   OH265466   0.793   1.057  12.614 -0.2778  0.0357  0.1840
14684TIP3    H165467   0.798   1.149  12.640  0.6950 -0.2177  0.9275
14684TIP3    H265468   0.872   1.017  12.652 -0.6812 -1.0961 -0.1495
14685TIP3   OH265469   1.610   1.047  12.868  0.3953  0.2257 -0.7320
14685TIP3    H165470   1.606   1.036  12.963  0.8970 -1.0479 -0.8477
14685TIP3    H265471   1.548   1.118  12.850  1.4249  1.5271  0.6991
14686TIP3   OH265472   6.753   0.123   1.174 -0.3529 -0.0777 -0.4219
14686TIP3    H165473   6.704   0.087   1.100 -0.4354  0.3445 -0.5719
14686TIP3    H265474   6.748   0.218   1.162 -0.5391 -0.0051  0.2396
14687TIP3   OH265475   5.790   1.310  11.187  0.4992 -0.4179  0.3212
14687TIP3    H165476   5.793   1.378  11.119  0.9144  0.2932  1.0421
14687TIP3    H265477   5.709   1.262  11.169  0.3755  0.0559 -0.4012
14688TIP3   OH265478   3.740   1.081   2.599  0.4908 -0.3731  0.1913
14688TIP3    H165479   3.811   1.044   2.547  0.5701  0.4793 -0.3226
14688TIP3    H265480   3.663   1.075   2.542  0.9655  2.3504 -0.8361
14689TIP3   OH265481   3.073   0.227   2.077 -0.2934 -0.0384 -0.7192
14689TIP3    H165482   3.093   0.146   2.030 -0.4128  1.1129 -2.8283
14689TIP3    H265483   2.993   0.260   2.035 -0.2983  1.1263  0.1803
14690TIP3   OH265484   6.219   2.657  14.172  0.4557  0.4372  0.0757
14690TIP3    H165485   6.133   2.661  14.130  0.2683  1.2458  0.5367
14690TIP3    H265486   6.211   2.589  14.238 -0.1134  1.1509  0.7495
14691TIP3   OH265487   1.608   2.261  13.781  0.2810  0.2991  0.6896
14691TIP3    H165488   1.515   2.274  13.801  0.1456  0.1120  0.1858
14691TIP3    H265489   1.614   2.169  13.756  0.4510  0.5313 -0.1199
14692TIP3   OH265490   5.450   6.431  14.285 -0.3477 -0.0128  0.3771
14692TIP3    H165491   5.485   6.344  14.302  1.4053  0.5967 -0.0130
14692TIP3    H265492   5.435   6.468  14.373 -1.3273 -0.7738  0.5424
14693TIP3   OH265493   4.998   3.609  16.370  0.1759  0.4483  0.2044
14693TIP3    H165494   5.076   3.593  16.423 -1.0425  2.1538  2.5901
14693TIP3    H265495   4.929   3.560  16.414 -0.8177  1.7206  0.0937
14694TIP3   OH265496   6.656   0.344   0.031  0.0680  0.3643  0.4983
14694TIP3    H165497   6.659   0.250   0.048  0.8869  0.3760  0.4666
14694TIP3    H265498   6.746   0.374   0.046  0.0208  0.9834 -0.3969
14695TIP3   OH265499   3.880   3.925  13.456 -0.8789 -0.0658 -0.1361
14695TIP3    H165500   3.826   3.847  13.446  0.1564 -0.9134  0.6510
14695TIP3    H265501   3.876   3.944  13.550 -1.2999  0.9521 -0.3635
14696TIP3   OH265502   3.260   5.232  16.085  0.5721 -1.0222 -0.0774
14696TIP3    H165503   3.214   5.149  16.073  0.4250 -0.4316 -4.3989
14696TIP3    H265504   3.350   5.206  16.106 -0.0014 -2.2184  0.9940
14697TIP3   OH265505   3.158   4.219  12.883  0.3557 -0.3883  0.0274
14697TIP3    H165506   3.223   4.243  12.818 -0.1666  1.5340  0.1998
14697TIP3    H265507   3.208   4.172  12.950  1.1110 -1.2023 -1.0966
14698TIP3   OH265508   3.499   0.388   2.233  0.2589  0.0817 -0.0765
14698TIP3    H165509   3.529   0.430   2.313  0.0364  1.3935 -0.6789
14698TIP3    H265510   3.548   0.431   2.163  0.3776 -0.9833 -0.6577
14699TIP3   OH265511   6.406   5.972  11.715  0.2865  0.3755 -0.0817
14699TIP3    H165512   6.332   6.029  11.736  0.1138 -0.5866  2.0301
14699TIP3    H265513   6.476   6.001  11.774  1.3648  0.7514 -1.5133
14700TIP3   OH265514   5.154   1.695  14.857 -0.6567  0.3203 -0.3935
14700TIP3    H165515   5.171   1.788  14.874  1.4656  0.0202 -0.7100
14700TIP3    H265516   5.060   1.684  14.873 -0.6506  2.2122  1.0664
14701TIP3   OH265517   2.485   4.892   5.002 -0.2879  0.5748  0.0422
14701TIP3    H165518   2.536   4.887   5.083 -1.3528  0.8451  0.7326
14701TIP3    H265519   2.521   4.821   4.947 -0.3406 -0.3604  1.1996
14702TIP3   OH265520   3.318   3.322   4.166  0.3290 -0.1470 -0.3243
14702TIP3    H165521   3.391   3.268   4.197  1.3400  0.9940 -0.6672
14702TIP3    H265522   3.323   3.401   4.219  0.7200  0.8854 -1.8596
14703TIP3   OH265523   6.337   4.422  11.953 -0.5513  0.9065  0.0147
14703TIP3    H165524   6.303   4.359  12.017 -1.6845  1.9461  0.4490
14703TIP3    H265525   6.387   4.368  11.891  0.2775 -0.1465  1.5779
14704TIP3   OH265526   5.289   6.041   1.599 -0.2143 -0.5318 -0.0445
14704TIP3    H165527   5.338   6.058   1.680  1.8651 -2.6063 -0.8299
14704TIP3    H265528   5.208   6.091   1.610  2.0491  3.1200  1.2731
14705TIP3   OH265529   1.766   4.238   2.169  0.6379  0.2142 -0.4953
14705TIP3    H165530   1.759   4.216   2.261 -0.0666 -0.0723 -0.6103
14705TIP3    H265531   1.690   4.294   2.152  0.4505 -0.1821 -1.0145
14706TIP3   OH265532   6.720   1.474   3.551 -0.1483  0.0849 -0.0275
14706TIP3    H165533   6.790   1.454   3.613 -0.9061  0.3231  0.9081
14706TIP3    H265534   6.765   1.486   3.467  1.0174  1.0718  0.7239
14707TIP3   OH265535   6.686   0.627   1.661  0.1665  0.5088  0.1564
14707TIP3    H165536   6.714   0.588   1.744  3.5483  2.5347  0.0780
14707TIP3    H265537   6.697   0.558   1.596 -0.4525 -0.4405  1.0588
14708TIP3   OH265538   6.684   6.311   2.349  0.1226  0.3191 -0.1615
14708TIP3    H165539   6.664   6.404   2.336 -1.6914  0.0241  0.3477
14708TIP3    H265540   6.761   6.311   2.406 -1.0620  1.5064  1.4902
14709TIP3   OH265541   4.410   3.323   5.611 -0.0511 -0.5907 -0.2190
14709TIP3    H165542   4.366   3.244   5.580 -2.6960 -0.1334  2.1817
14709TIP3    H265543   4.340   3.387   5.622  1.3120  0.4324  2.9398
14710TIP3   OH265544   5.903   1.229  14.071 -0.2934 -0.6944 -0.1446
14710TIP3    H165545   5.872   1.308  14.116  0.0557 -1.0337  0.7003
14710TIP3    H265546   5.842   1.161  14.098 -0.3976 -0.7856 -0.6113
14711TIP3   OH265547   1.121   4.557   1.746 -0.2190 -0.9002  0.0446
14711TIP3    H165548   1.090   4.642   1.715  0.3620  0.0042  1.8852
14711TIP3    H265549   1.167   4.520   1.671 -0.2584  0.5130 -0.7036
14712TIP3   OH265550   6.739   6.415  16.627 -0.5234  0.0996  0.4189
14712TIP3    H165551   6.793   6.479  16.581 -0.3095  0.2702  0.9057
14712TIP3    H265552   6.679   6.467  16.680 -0.7879 -0.0945  0.3097
14713TIP3   OH265553   4.367   1.415   5.704  0.1729 -0.2892 -0.7827
14713TIP3    H165554   4.331   1.334   5.741  0.3391  0.1747  0.4391
14713TIP3    H265555   4.291   1.470   5.688  0.2078  0.1234  0.4094
14714TIP3   OH265556   5.078   4.184   4.148  0.9057  0.0689 -0.0821
14714TIP3    H165557   5.092   4.229   4.232  3.1675 -0.4415 -0.1561
14714TIP3    H265558   5.024   4.108   4.171  0.6999  0.4518  0.7484
14715TIP3   OH265559   1.831   2.536   5.953  0.3484 -0.4103  0.3971
14715TIP3    H165560   1.766   2.604   5.933  0.7704  0.2897  1.3366
14715TIP3    H265561   1.907   2.585   5.985  0.3944 -1.3583  1.7817
14716TIP3   OH265562   4.018   1.290  10.943  0.8199  0.0997  0.1349
14716TIP3    H165563   4.039   1.328  10.858 -1.0970  1.7334  0.3599
14716TIP3    H265564   4.047   1.354  11.007 -2.0999  1.1171  0.5281
14717TIP3   OH265565   2.431   2.870   5.381 -0.0168 -0.1150 -0.0995
14717TIP3    H165566   2.493   2.943   5.388 -2.8348  2.2154  2.3506
14717TIP3    H265567   2.373   2.895   5.309  0.1512 -0.8702 -0.4983
14718TIP3   OH265568   3.864   1.045  15.798 -0.7493 -0.0648  0.6095
14718TIP3    H165569   3.772   1.034  15.824 -0.8295 -0.1555  0.2916
14718TIP3    H265570   3.913   0.996  15.864 -0.9709 -0.5540  0.4124
14719TIP3   OH265571   5.282   3.996   2.839 -0.5513 -0.0802 -0.6926
14719TIP3    H165572   5.283   4.063   2.908 -1.7107 -1.0368  0.2911
14719TIP3    H265573   5.213   3.936   2.866 -0.3270 -1.0280 -2.1850
14720TIP3   OH265574   1.733   4.162  15.863  0.1690 -0.2101 -0.4476
14720TIP3    H165575   1.797   4.221  15.824  0.5092 -0.0870  0.2802
14720TIP3    H265576   1.650   4.188  15.825  0.0003  2.1395  1.4063
14721TIP3   OH265577   2.884   3.526   5.126  0.4788  0.1664  0.8187
14721TIP3    H165578   2.932   3.596   5.170 -0.4860  1.4216 -0.0625
14721TIP3    H265579   2.792   3.542   5.149  0.2080 -0.5287  0.2352
14722TIP3   OH265580   2.939   1.735   3.933  0.2946 -0.0452 -0.0167
14722TIP3    H165581   2.936   1.830   3.923  1.5386  0.1739  1.5147
14722TIP3    H265582   2.848   1.711   3.952  0.0416  0.8848 -0.0265
14723TIP3   OH265583   0.190   0.388   3.177 -0.2255  0.3924 -0.0043
14723TIP3    H165584   0.254   0.380   3.247 -0.5177  0.6992  0.3032
14723TIP3    H265585   0.217   0.465   3.128 -0.6973  0.8772  0.4863
14724TIP3   OH265586   5.899   2.369   0.657 -0.0436 -0.1047 -0.1094
14724TIP3    H165587   5.835   2.390   0.589 -0.7923  0.5934  0.7872
14724TIP3    H265588   5.882   2.278   0.678  0.9065 -0.6433 -1.5948
14725TIP3   OH265589   2.165   4.832   5.045 -0.1401  0.1606  0.0217
14725TIP3    H165590   2.235   4.785   5.091  0.8252  1.1712 -0.3938
14725TIP3    H265591   2.167   4.920   5.082 -0.5677  0.4603 -0.6662
14726TIP3   OH265592   6.032   0.745   6.075 -0.3185  0.1805 -0.1437
14726TIP3    H165593   6.086   0.666   6.076  0.6099  0.7956 -0.1677
14726TIP3    H265594   6.077   0.803   6.013 -0.7270  0.9053  0.2336
14727TIP3   OH265595   0.228   0.576   4.805  0.1652  0.1553  0.2102
14727TIP3    H165596   0.275   0.589   4.723 -0.3370 -1.1930 -0.3230
14727TIP3    H265597   0.154   0.637   4.800 -0.0884 -0.1978 -0.5400
14728TIP3   OH265598   2.880   4.416  11.742  0.8935 -0.1498 -0.3369
14728TIP3    H165599   2.873   4.503  11.704  0.2931 -0.2616 -0.4790
14728TIP3    H265600   2.941   4.426  11.815  0.5382  0.4666 -0.1259
14729TIP3   OH265601   1.658   2.127  14.688  0.1975 -0.1654  0.8780
14729TIP3    H165602   1.565   2.105  14.688  0.0415  0.4754  1.6913
14729TIP3    H265603   1.697   2.068  14.753 -0.3209  2.2638  3.5195
14730TIP3   OH265604   6.276   3.776  15.591  0.7224 -0.2736 -0.5706
14730TIP3    H165605   6.358   3.809  15.626 -0.1482 -0.7494  2.0441
14730TIP3    H265606   6.266   3.690  15.631 -0.6426 -0.5536 -1.4872
14731TIP3   OH265607   5.549   0.426  16.953  0.0815  0.2495 -0.1085
14731TIP3    H165608   5.490   0.356  16.982  0.1560  0.1445 -0.2109
14731TIP3    H265609   5.490   0.493  16.916 -0.0769  0.7543  1.0402
14732TIP3   OH265610   3.751   2.447  16.442  0.8394  0.0996  0.6063
14732TIP3    H165611   3.701   2.375  16.479 -1.2335  0.9158 -0.5218
14732TIP3    H265612   3.762   2.508  16.514  2.3971 -1.2046  1.5096
14733TIP3   OH265613   3.273   0.549   0.320  0.0031  0.0466 -0.3945
14733TIP3    H165614   3.360   0.558   0.280  0.4852 -1.1988  0.3338
14733TIP3    H265615   3.242   0.639   0.330  0.7973  0.4628 -1.5430
14734TIP3   OH265616   1.910   4.964  12.558  0.0277 -0.2387  0.7033
14734TIP3    H165617   1.851   4.910  12.507 -1.3510  2.3155 -0.5292
14734TIP3    H265618   1.997   4.943  12.526 -0.4003 -2.2982  0.8450
14735TIP3   OH265619   6.300   3.695  15.280 -0.3609  0.1835  0.1994
14735TIP3    H165620   6.255   3.654  15.207 -0.1347  0.7911 -0.2890
14735TIP3    H265621   6.262   3.655  15.358  0.2127 -1.2944 -0.2761
14736TIP3   OH265622   3.218   4.727   2.234 -0.0986  0.6359 -0.2205
14736TIP3    H165623   3.261   4.659   2.286  1.1928  2.3716  1.0138
14736TIP3    H265624   3.144   4.755   2.288 -1.0125 -0.2059 -1.0104
14737TIP3   OH265625   1.823   4.133   5.533  0.1173  0.0935 -0.1225
14737TIP3    H165626   1.867   4.141   5.618  0.1553 -1.3167  0.0045
14737TIP3    H265627   1.761   4.062   5.545  1.4246 -1.3863 -1.8092
14738TIP3   OH265628   4.948   4.212   6.088 -0.3659 -0.0202 -0.8513
14738TIP3    H165629   4.977   4.225   5.998  1.0215 -1.0380 -0.5737
14738TIP3    H265630   4.928   4.300   6.120  0.1941  0.4558 -1.7894
14739TIP3   OH265631   0.773   2.115  17.082 -0.1743 -0.3916  0.7495
14739TIP3    H165632   0.847   2.134  17.024 -0.1098  0.4054  1.0804
14739TIP3    H265633   0.696   2.120  17.026 -0.0718 -0.0787  0.6386
14740TIP3   OH265634   4.642   0.532   5.313 -0.8004  0.2887 -1.0539
14740TIP3    H165635   4.714   0.513   5.252 -0.3114 -1.1814 -0.0488
14740TIP3    H265636   4.565   0.537   5.257 -0.3256 -0.8353 -1.8412
14741TIP3   OH265637   6.264   1.732  16.128 -0.0185 -0.0486 -0.2236
14741TIP3    H165638   6.311   1.685  16.197  0.3203  0.0239 -0.4022
14741TIP3    H265639   6.189   1.677  16.108 -1.1931  0.8611  1.5692
14742TIP3   OH265640   3.717   3.479   2.953 -0.0732 -0.8707 -0.3417
14742TIP3    H165641   3.780   3.420   2.911  1.7628  0.0935  0.9980
14742TIP3    H265642   3.642   3.423   2.975  0.3273 -2.0513 -1.8877
14743TIP3   OH265643   5.563   2.500  14.130  0.4556 -0.2018  0.0611
14743TIP3    H165644   5.645   2.493  14.179  0.6127 -0.6206 -0.2609
14743TIP3    H265645   5.519   2.417  14.144 -0.5070  0.5077  1.2769
14744TIP3   OH265646   6.048   4.305  13.818 -0.4623  0.1812  0.3538
14744TIP3    H165647   6.064   4.397  13.799 -1.8283  0.4465  0.4253
14744TIP3    H265648   6.034   4.301  13.912 -0.1069 -0.1493  0.3953
14745TIP3   OH265649   5.036   4.251   0.872 -0.7944 -0.2620  0.0977
14745TIP3    H165650   5.131   4.259   0.882 -0.9098 -1.8113  3.0232
14745TIP3    H265651   5.016   4.161   0.900 -2.9172 -0.6468 -2.4305
14746TIP3   OH265652   0.359   5.225  16.817  0.4306  0.0565 -0.4659
14746TIP3    H165653   0.315   5.164  16.758 -0.4882  1.1311 -0.9137
14746TIP3    H265654   0.349   5.185  16.904 -0.5982 -0.1957 -0.6866
14747TIP3   OH265655   0.862   3.177  11.184 -0.3372  0.0169  0.3420
14747TIP3    H165656   0.821   3.184  11.271 -2.6561 -0.2212 -0.6928
14747TIP3    H265657   0.870   3.267  11.154  2.7510  0.2737  1.7907
14748TIP3   OH265658   1.242   6.696  15.569 -0.2420  0.1394 -0.6001
14748TIP3    H165659   1.295   6.623  15.536  1.4882  0.4137  1.4697
14748TIP3    H265660   1.287   6.725  15.648 -1.9061  2.3088 -0.3959
14749TIP3   OH265661   1.147   6.621  14.039  0.2621 -0.2082 -0.6868
14749TIP3    H165662   1.072   6.657  13.991 -1.0610 -1.7258  0.1735
14749TIP3    H265663   1.128   6.640  14.131  0.2962 -1.6809 -0.3516
14750TIP3   OH265664   5.519   1.412  15.448 -0.9087 -0.2053 -0.0354
14750TIP3    H165665   5.525   1.448  15.359 -0.7065 -1.4818 -0.5561
14750TIP3    H265666   5.488   1.485  15.501 -0.6057  0.7082 -1.0736
14751TIP3   OH265667   0.776   0.238   5.705  0.1574 -0.2887  0.4190
14751TIP3    H165668   0.854   0.291   5.723 -0.4389  0.5146  0.6611
14751TIP3    H265669   0.806   0.173   5.642  0.4726  1.5324 -1.3778
14752TIP3   OH265670   5.992   4.952  16.748  0.4789  0.0694 -0.1010
14752TIP3    H165671   6.001   4.995  16.664 -0.3129 -0.7831 -0.6333
14752TIP3    H265672   5.902   4.968  16.774  0.0659 -1.5228 -0.4712
14753TIP3   OH265673   6.073   4.181   2.168 -0.0778  0.4427 -0.4300
14753TIP3    H165674   6.157   4.171   2.125  0.2639 -3.4192  0.9637
14753TIP3    H265675   6.094   4.193   2.261 -1.0259 -1.9918  0.1496
14754TIP3   OH265676   3.804   4.669  11.834  0.3675  0.1124 -0.2187
14754TIP3    H165677   3.792   4.755  11.793 -0.4197  0.1091 -0.0136
14754TIP3    H265678   3.760   4.608  11.775  1.8100 -0.2942 -0.8877
14755TIP3   OH265679   5.626   6.075  10.423  1.2060  0.4336 -1.1989
14755TIP3    H165680   5.701   6.072  10.483  0.8775 -0.3010 -0.8194
14755TIP3    H265681   5.618   6.168  10.401  0.7817  0.8566  0.6080
14756TIP3   OH265682   2.428   0.186   1.176 -0.0104  0.0012  0.7147
14756TIP3    H165683   2.408   0.276   1.203  1.6727 -0.3213  3.1369
14756TIP3    H265684   2.350   0.136   1.200  0.0225  0.3867  1.6543
14757TIP3   OH265685   2.554   2.869   0.523  0.1435  0.4947 -0.3141
14757TIP3    H165686   2.460   2.881   0.535  0.0835 -0.9109  0.7957
14757TIP3    H265687   2.567   2.775   0.526  1.4066  0.5857 -2.0352
14758TIP3   OH265688   4.802   2.612   5.171 -0.4813 -0.5168 -0.5818
14758TIP3    H165689   4.724   2.652   5.209 -1.3333 -0.7224 -2.0662
14758TIP3    H265690   4.784   2.518   5.174 -0.9108 -0.4979 -2.2108
14759TIP3   OH265691   5.017   4.710  15.046  0.0674  0.1236 -0.6130
14759TIP3    H165692   5.066   4.674  14.972  0.6187  0.6830 -0.5193
14759TIP3    H265693   5.073   4.779  15.081 -0.3580  0.1121  0.0982
14760TIP3   OH265694   2.780   1.111  13.266 -0.0778 -0.3684 -0.5858
14760TIP3    H165695   2.851   1.176  13.272 -0.6934  0.2213  0.4513
14760TIP3    H265696   2.713   1.154  13.213 -0.5528 -0.1058  0.2360
14761TIP3   OH265697   5.764   1.756  11.835 -0.1565  0.1113  0.3435
14761TIP3    H165698   5.743   1.685  11.773 -0.9611  0.3121  0.3800
14761TIP3    H265699   5.845   1.794  11.800 -0.5730  0.1876 -0.5656
14762TIP3   OH265700   2.753   3.012   2.550 -0.1308  0.0939 -0.7117
14762TIP3    H165701   2.715   3.000   2.637 -0.7948  2.0055 -0.6961
14762TIP3    H265702   2.677   3.028   2.493  0.4475  1.0939 -1.2132
14763TIP3   OH265703   0.969   4.423   3.310  0.4053 -0.0022  0.1906
14763TIP3    H165704   0.904   4.461   3.368  0.7256 -0.9328  1.1791
14763TIP3    H265705   1.053   4.445   3.350  0.6370 -0.3436 -0.1058
14764TIP3   OH265706   5.446   2.853   0.093  0.6056  0.5133  0.0945
14764TIP3    H165707   5.511   2.833   0.161  1.2670  0.3119 -0.5997
14764TIP3    H265708   5.364   2.818   0.128  0.9255  0.4925  0.8347
14765TIP3   OH265709   5.228   3.908  17.194  0.1706 -0.5922  0.1869
14765TIP3    H165710   5.136   3.897  17.216  0.3620 -2.6869  0.0366
14765TIP3    H265711   5.231   3.898  17.099  0.1262  2.7986 -0.2345
14766TIP3   OH265712   3.609   2.563   3.391  0.0328 -0.3071  0.3534
14766TIP3    H165713   3.679   2.528   3.447 -0.0009 -0.1166  0.5170
14766TIP3    H265714   3.639   2.650   3.367  0.1197 -0.4519 -0.0610
14767TIP3   OH265715   4.560   3.305   4.319 -0.4039  0.2534  0.0075
14767TIP3    H165716   4.644   3.266   4.343 -0.7927 -0.7318 -0.1723
14767TIP3    H265717   4.531   3.253   4.244 -1.2201  0.5081  0.1458
14768TIP3   OH265718   3.009   4.182   3.984  0.1240 -0.7104 -0.8125
14768TIP3    H165719   2.966   4.216   3.905 -1.6301 -0.0212  0.3939
14768TIP3    H265720   2.989   4.089   3.984  0.3769 -0.7672 -1.3326
14769TIP3   OH265721   5.859   0.837   3.284 -0.1034  0.1494  0.0772
14769TIP3    H165722   5.897   0.925   3.274  0.1912 -0.0401 -0.5132
14769TIP3    H265723   5.891   0.807   3.369  0.0319  0.4970  0.1516
14770TIP3   OH265724   2.101   1.911   3.012 -0.6516  0.4268  0.0895
14770TIP3    H165725   2.142   1.901   2.926 -1.6236 -1.2040 -0.2046
14770TIP3    H265726   2.112   2.003   3.033  0.7940  0.5576 -1.1811
14771TIP3   OH265727   0.931   0.367   6.009  0.0124  0.4989 -0.3441
14771TIP3    H165728   0.991   0.361   5.935  0.8379 -0.3920  0.3864
14771TIP3    H265729   0.944   0.285   6.057 -1.1071  0.7143  0.3342
14772TIP3   OH265730   0.874   0.732   6.192 -0.5725 -0.0166  0.3028
14772TIP3    H165731   0.865   0.820   6.156 -0.5348  1.0545  2.8656
14772TIP3    H265732   0.940   0.740   6.260  1.8241 -2.7198 -1.5885
14773TIP3   OH265733   0.840   6.248  12.367 -0.5814 -0.5008  0.0287
14773TIP3    H165734   0.787   6.170  12.350 -1.0779  0.0305 -0.9273
14773TIP3    H265735   0.786   6.321  12.338  0.4640  0.0874 -0.4818
14774TIP3   OH265736   2.142   3.425  12.019 -0.0996 -0.2985 -0.7332
14774TIP3    H165737   2.205   3.366  11.978  0.2302 -0.2219 -0.3519
14774TIP3    H265738   2.122   3.490  11.951 -3.7237 -3.2283 -2.5858
14775TIP3   OH265739   4.097   2.336  15.165 -0.0242  0.1537  0.2938
14775TIP3    H165740   4.167   2.314  15.225 -2.1003 -0.1017  2.6901
14775TIP3    H265741   4.071   2.425  15.190  0.0174  0.5962 -1.1698
14776TIP3   OH265742   1.090   1.325  17.152 -0.2669  0.1102  0.5461
14776TIP3    H165743   1.131   1.268  17.217  1.0723 -1.1681 -1.3698
14776TIP3    H265744   1.156   1.335  17.083 -1.6968  1.3129 -0.6873
14777TIP3   OH265745   2.450   5.748   5.464 -0.2403  0.4457 -0.3811
14777TIP3    H165746   2.361   5.783   5.451 -0.0446  0.1998 -2.4835
14777TIP3    H265747   2.482   5.794   5.542 -1.9838  0.9810  0.0456
14778TIP3   OH265748   2.628   0.879  13.072 -0.0838 -0.0934  0.3049
14778TIP3    H165749   2.634   0.889  13.167 -1.6962  0.7644  0.3429
14778TIP3    H265750   2.685   0.948  13.038  0.9532 -0.7670  0.6290
14779TIP3   OH265751   3.111   1.272   3.325  0.2141 -0.1667 -0.2772
14779TIP3    H165752   3.053   1.200   3.302 -0.8218  0.6275 -0.1962
14779TIP3    H265753   3.063   1.322   3.390  0.6990  0.9012 -0.7232
14780TIP3   OH265754   0.204   2.268   2.547 -0.6673  0.1797  0.1309
14780TIP3    H165755   0.271   2.232   2.489  0.2110  0.5940  0.8790
14780TIP3    H265756   0.237   2.252   2.635 -1.8657 -0.2048  0.5266
14781TIP3   OH265757   4.632   0.563  15.447  0.5746 -0.0413 -0.0193
14781TIP3    H165758   4.632   0.489  15.508 -1.2295 -1.4325 -1.6414
14781TIP3    H265759   4.545   0.561  15.406  0.7277  2.5838 -0.5935
14782TIP3   OH265760   5.934   0.053   5.502  0.1883  0.3400  0.1049
14782TIP3    H165761   5.924  -0.008   5.429  1.5265  0.8556 -0.5245
14782TIP3    H265762   5.978   0.129   5.464 -0.2475  1.1457  1.1784
14783TIP3   OH265763   2.723   6.036   4.033  0.0009  0.1149  0.0133
14783TIP3    H165764   2.660   5.970   4.061  1.2618 -0.7329  0.9441
14783TIP3    H265765   2.677   6.088   3.969 -0.9405 -1.8621 -0.9521
14784TIP3   OH265766   3.640   5.150  13.084 -0.1391 -0.0571  0.0089
14784TIP3    H165767   3.585   5.213  13.129 -0.9414 -1.8649  1.6121
14784TIP3    H265768   3.650   5.186  12.995 -4.4450 -0.0123 -0.5571
14785TIP3   OH265769   6.160   6.489  14.542 -0.3163  0.3426  0.4495
14785TIP3    H165770   6.097   6.466  14.610 -0.2529  0.5705  0.5876
14785TIP3    H265771   6.245   6.491  14.587 -0.1840 -0.1586  0.2247
14786TIP3   OH265772   3.943   3.804   2.178 -0.0651 -0.7150  0.1963
14786TIP3    H165773   4.035   3.791   2.201  0.0713  0.8847  0.5898
14786TIP3    H265774   3.936   3.897   2.158 -1.4613 -0.9529 -0.4739
14787TIP3   OH265775   0.486   1.886   0.044  0.9910 -0.3263 -0.4967
14787TIP3    H165776   0.580   1.873   0.035  0.9375 -0.1203 -1.4499
14787TIP3    H265777   0.451   1.870  -0.044  0.0777 -0.9203 -0.0354
14788TIP3   OH265778   0.673   0.595   2.723 -0.7391  0.3321  0.7034
14788TIP3    H165779   0.645   0.678   2.683  0.9793  0.6381  0.0658
14788TIP3    H265780   0.689   0.537   2.648 -0.1006  0.0464  1.0609
14789TIP3   OH265781   3.953   0.566   0.712  0.3732 -0.0203  0.3114
14789TIP3    H165782   4.021   0.536   0.772  0.4444 -0.5996 -0.0548
14789TIP3    H265783   4.000   0.592   0.633  0.0231 -2.1944 -0.6390
14790TIP3   OH265784   3.180   1.740  12.487 -0.3134 -0.0575 -0.5974
14790TIP3    H165785   3.087   1.761  12.496 -0.3500 -0.5017  0.1357
14790TIP3    H265786   3.210   1.794  12.414 -1.4051 -0.7319 -1.5625
14791TIP3   OH265787   2.018   3.879   3.433  0.4043 -0.1117 -0.0800
14791TIP3    H165788   2.024   3.892   3.527 -1.4225  1.9165 -0.2033
14791TIP3    H265789   2.098   3.832   3.410  0.1901 -1.9293  2.6625
14792TIP3   OH265790   2.660   1.451  15.218  0.2545  0.0751 -0.0760
14792TIP3    H165791   2.650   1.440  15.123 -1.1091  1.4282 -0.1163
14792TIP3    H265792   2.665   1.362  15.253  1.8551 -0.4244 -1.5169
14793TIP3   OH265793   2.880   5.117  15.381 -0.1197 -0.4145 -0.0104
14793TIP3    H165794   2.958   5.170  15.398 -1.0066  0.9272 -0.0158
14793TIP3    H265795   2.864   5.070  15.463  0.2105 -0.0400  0.2697
14794TIP3   OH265796   2.264   2.563   2.664  0.5908  0.3023  0.6019
14794TIP3    H165797   2.234   2.635   2.719  1.4545  1.7842 -0.8285
14794TIP3    H265798   2.351   2.541   2.697  0.5903  0.3432  0.6300
14795TIP3   OH265799   6.618   6.357   5.652  0.1456  0.9646  0.3674
14795TIP3    H165800   6.544   6.380   5.596 -0.0971  1.4078  0.8658
14795TIP3    H265801   6.577   6.325   5.733  0.4967  0.6165  0.4118
14796TIP3   OH265802   4.140   4.368  13.744 -0.4685  0.3095  0.5312
14796TIP3    H165803   4.122   4.318  13.665 -0.4827  0.5188  0.4041
14796TIP3    H265804   4.087   4.447  13.736  0.6570  1.0288  0.0561
14797TIP3   OH265805   5.275   4.068   5.597 -0.3973 -0.2155 -0.1500
14797TIP3    H165806   5.212   4.031   5.659 -0.2108 -1.4606 -0.7021
14797TIP3    H265807   5.236   4.054   5.511  0.8196 -1.3988 -0.5311
14798TIP3   OH265808   5.452   2.210   5.096  0.2455  0.1864  0.5823
14798TIP3    H165809   5.526   2.262   5.126 -0.1249  1.3453 -0.4445
14798TIP3    H265810   5.474   2.185   5.006 -0.7578  0.9015  0.1132
14799TIP3   OH265811   6.375   5.401   1.395  0.6267  0.3276  0.4118
14799TIP3    H165812   6.435   5.338   1.432 -0.7220 -0.8000  0.7335
14799TIP3    H265813   6.339   5.357   1.317 -1.2182  0.2026  1.3117
14800TIP3   OH265814   4.851   0.136   4.852  0.3888 -0.1205  0.2070
14800TIP3    H165815   4.784   0.196   4.818  0.6262 -0.1897 -0.3847
14800TIP3    H265816   4.931   0.160   4.806  0.5121 -0.8209  0.0449
14801TIP3   OH265817   0.485   2.684  10.936 -0.2547  0.2646 -0.3488
14801TIP3    H165818   0.489   2.606  10.881 -0.7770 -0.1371  0.1710
14801TIP3    H265819   0.518   2.755  10.880  0.1112 -0.3058 -0.8598
14802TIP3   OH265820   2.285   5.288  12.130 -0.2599  1.4846  0.1185
14802TIP3    H165821   2.233   5.257  12.204  0.0478  1.1774  0.2077
14802TIP3    H265822   2.220   5.316  12.065 -0.5811 -0.8181 -0.5964
14803TIP3   OH265823   0.368   5.607   6.014  0.2553  0.1734  0.6177
14803TIP3    H165824   0.451   5.606   6.062  0.4595 -1.8238  0.2851
14803TIP3    H265825   0.337   5.517   6.019 -0.1258  0.1040 -2.2824
14804TIP3   OH265826   6.156   2.139  16.971 -0.3222  0.2815 -0.5567
14804TIP3    H165827   6.194   2.201  16.909 -1.9421  1.9076  0.0418
14804TIP3    H265828   6.195   2.161  17.056  0.1624 -0.4561 -0.5782
14805TIP3   OH265829   2.314   2.873  17.030 -0.0867  0.4866 -0.3379
14805TIP3    H165830   2.288   2.781  17.036  1.4831  0.1242  1.0250
14805TIP3    H265831   2.235   2.921  17.055 -0.8068 -0.4755 -0.7057
14806TIP3   OH265832   1.563   5.839   0.269  0.3683 -0.1374  0.0662
14806TIP3    H165833   1.539   5.752   0.301 -1.9683  0.9394  1.3222
14806TIP3    H265834   1.610   5.822   0.187 -0.6280 -2.5551 -0.0463
14807TIP3   OH265835   0.093   4.957   3.549 -0.0524 -0.0918 -0.0497
14807TIP3    H165836  -0.002   4.947   3.538  0.0767  0.8583 -2.2320
14807TIP3    H265837   0.126   4.867   3.548 -0.6973 -0.3272 -1.7282
14808TIP3   OH265838   1.873   5.418  12.987 -0.3844  0.5983  0.3332
14808TIP3    H165839   1.833   5.387  12.906  1.7348  0.4340 -0.6798
14808TIP3    H265840   1.841   5.508  12.996  0.4267  1.1098 -1.4650
14809TIP3   OH265841   3.322   6.164  13.360  0.1966 -0.1194  0.3079
14809TIP3    H165842   3.403   6.182  13.312  0.0192 -1.8920 -0.7011
14809TIP3    H265843   3.255   6.160  13.292 -0.4144 -0.5440  0.9278
14810TIP3   OH265844   5.069   6.490   2.516 -0.1995  0.1466  0.1521
14810TIP3    H165845   5.159   6.512   2.541 -0.3569 -0.0972  0.9620
14810TIP3    H265846   5.047   6.414   2.570 -0.4571 -0.5893 -0.9689
14811TIP3   OH265847   1.697   2.487   4.959 -0.0991  0.0901 -0.0993
14811TIP3    H165848   1.776   2.448   4.921 -0.7791 -1.8789  0.4567
14811TIP3    H265849   1.721   2.505   5.050 -0.5763 -1.4060  0.3352
14812TIP3   OH265850   6.068   2.935   0.676  0.3636  0.1050  0.1366
14812TIP3    H165851   6.034   2.864   0.621 -1.1294  2.2078 -1.7783
14812TIP3    H265852   6.027   2.922   0.761  0.0991 -1.3145 -0.2028
14813TIP3   OH265853   4.722   1.238  16.689 -0.1429 -0.0483  0.1659
14813TIP3    H165854   4.633   1.233  16.725 -0.2519 -1.2431 -0.2463
14813TIP3    H265855   4.779   1.226  16.765 -0.3660 -1.3356  0.1540
14814TIP3   OH265856   6.060   0.861  11.834  0.2578  0.6951 -0.2694
14814TIP3    H165857   6.089   0.930  11.894  0.8711  0.4655 -0.3002
14814TIP3    H265858   6.027   0.907  11.757 -2.3528  1.0864  1.0170
14815TIP3   OH265859   4.229   4.474   2.871 -0.7047  0.2276 -0.0568
14815TIP3    H165860   4.245   4.541   2.805 -0.8361  0.4084  0.0947
14815TIP3    H265861   4.311   4.425   2.877 -0.0445  1.4420  1.0476
14816TIP3   OH265862   4.041   4.603  11.959  0.3732  0.2318 -0.9802
14816TIP3    H165863   4.089   4.686  11.952  0.2825  0.1661 -2.5798
14816TIP3    H265864   3.954   4.623  11.925  0.2107 -0.4189 -0.9517
14817TIP3   OH265865   4.015   3.066   6.398 -0.4676 -0.1293  0.0967
14817TIP3    H165866   3.948   3.127   6.430  0.1210 -0.3086  1.7461
14817TIP3    H265867   3.965   2.994   6.359 -1.2529 -0.1643  1.1376
14818TIP3   OH265868   0.807   2.238   4.843 -0.4098 -0.2260 -0.0330
14818TIP3    H165869   0.885   2.236   4.898  0.1233 -0.6222 -0.8017
14818TIP3    H265870   0.734   2.242   4.905  0.2202  0.2466  0.6839
14819TIP3   OH265871   4.243   2.298   4.309 -0.8735 -0.0034  0.4941
14819TIP3    H165872   4.283   2.229   4.362 -0.1214 -1.6191 -2.0865
14819TIP3    H265873   4.202   2.356   4.372  0.0452 -1.8338  2.8394
14820TIP3   OH265874   6.427   3.954  17.033 -0.0674 -0.2989  0.0759
14820TIP3    H165875   6.370   3.986  17.103 -0.2538 -1.1364  0.3197
14820TIP3    H265876   6.381   3.975  16.952 -1.1395 -1.7038  0.2915
14821TIP3   OH265877   0.221   2.758   4.469  0.4294  0.1557 -0.4268
14821TIP3    H165878   0.168   2.788   4.542  2.7459  1.8237  0.6454
14821TIP3    H265879   0.258   2.675   4.499 -0.4827 -0.3249 -0.6335
14822TIP3   OH265880   2.482   0.778   4.206 -0.3699 -0.1460  0.2662
14822TIP3    H165881   2.420   0.707   4.224 -0.6036  0.3214  1.3453
14822TIP3    H265882   2.487   0.827   4.288  1.5891 -0.2861  0.2570
14823TIP3   OH265883   4.075   0.982  13.240  0.1020  0.3829  0.0309
14823TIP3    H165884   4.109   1.048  13.180 -1.7684  1.3443  0.0009
14823TIP3    H265885   3.981   0.979  13.222  0.0436 -1.7821  0.5304
14824TIP3   OH265886   4.039   1.965   0.819 -0.4858 -0.2167 -0.0516
14824TIP3    H165887   3.950   1.932   0.818 -0.2298 -0.9023 -0.3276
14824TIP3    H265888   4.030   2.060   0.816 -1.2574 -0.2140  1.6158
14825TIP3   OH265889   3.793   5.584   2.336  0.5108  0.1500  0.6611
14825TIP3    H165890   3.876   5.629   2.328  0.9720 -1.1103 -2.3068
14825TIP3    H265891   3.816   5.492   2.348 -0.4422  0.2839  4.0097
14826TIP3   OH265892   3.297   6.511   3.078 -0.0983  0.0295  0.9482
14826TIP3    H165893   3.301   6.493   3.172 -1.7758  0.1814  1.0694
14826TIP3    H265894   3.272   6.603   3.073 -1.0426 -0.2513  0.3667
14827TIP3   OH265895   0.437   2.105  15.510  0.0455 -0.0272  0.7296
14827TIP3    H165896   0.524   2.138  15.486 -0.8138  1.5542 -0.2245
14827TIP3    H265897   0.442   2.011  15.494  1.3229  0.1750 -0.1229
14828TIP3   OH265898   3.281   5.869   0.153 -0.0556  0.3012 -0.3767
14828TIP3    H165899   3.204   5.837   0.199  0.0809  1.5012  0.7105
14828TIP3    H265900   3.270   5.838   0.063 -0.6029 -1.5657  0.3314
14829TIP3   OH265901   1.910   0.231   1.299 -0.0552 -0.7007  0.0536
14829TIP3    H165902   1.967   0.208   1.226  0.4624  0.3598  0.1193
14829TIP3    H265903   1.837   0.279   1.259  1.6834  2.4528  0.5199
14830TIP3   OH265904   2.694   0.249  11.289  0.2303  0.0469  0.1133
14830TIP3    H165905   2.633   0.257  11.363 -2.0353  2.9761 -1.9195
14830TIP3    H265906   2.691   0.157  11.266 -0.3352 -0.6052  2.5815
14831TIP3   OH265907   0.986   3.247   1.957 -0.9711  0.0637 -0.0292
14831TIP3    H165908   1.050   3.288   2.014 -2.2997  1.0380  0.7856
14831TIP3    H265909   0.966   3.163   1.999  0.6149 -0.7789 -0.9026
14832TIP3   OH265910   5.281   5.694   4.449  0.0410 -0.2417 -0.4189
14832TIP3    H165911   5.247   5.738   4.371  1.5181  1.5480 -0.0838
14832TIP3    H265912   5.366   5.658   4.421 -1.3991 -3.4516 -0.8552
14833TIP3   OH265913   5.518   5.740  13.057 -0.0519 -0.3321 -0.0146
14833TIP3    H165914   5.534   5.832  13.078 -1.1246 -0.4544  1.3735
14833TIP3    H265915   5.468   5.743  12.975  2.5685  0.1943 -1.6665
14834TIP3   OH265916   5.911   3.114  16.744 -0.2177  0.1500  0.2083
14834TIP3    H165917   5.990   3.082  16.786  0.5714  0.3012 -1.1156
14834TIP3    H265918   5.841   3.095  16.806  1.0665  1.5875  2.1478
14835TIP3   OH265919   2.553   3.093  12.639  0.2713 -0.2133  0.1037
14835TIP3    H165920   2.644   3.122  12.636  0.6249 -1.3193 -0.3227
14835TIP3    H265921   2.557   3.009  12.686 -0.3768 -0.7615 -0.8099
14836TIP3   OH265922   6.128   4.775   2.404  1.0255 -0.3013  0.6907
14836TIP3    H165923   6.123   4.696   2.351 -0.2747  0.5559 -0.5171
14836TIP3    H265924   6.178   4.837   2.350  0.1984  0.3898  0.7134
14837TIP3   OH265925   1.577   3.458   0.845  0.8189 -0.6630  0.4191
14837TIP3    H165926   1.568   3.475   0.751  1.9821  1.0226  0.5958
14837TIP3    H265927   1.488   3.441   0.875  0.4073 -0.9636 -0.9455
14838TIP3   OH265928   3.424   3.789  12.645  0.8424  0.0149  0.2578
14838TIP3    H165929   3.403   3.880  12.622  0.4780 -0.3401 -0.8771
14838TIP3    H265930   3.462   3.753  12.565 -0.2536 -1.2101  0.2734
14839TIP3   OH265931   5.467   2.588   4.661  0.6438 -0.4119 -0.1969
14839TIP3    H165932   5.374   2.598   4.682  0.5026  0.7389 -1.3595
14839TIP3    H265933   5.511   2.653   4.716  0.7066 -0.5083 -0.1320
14840TIP3   OH265934   6.168   0.081   5.663 -0.4424 -0.3826 -0.5074
14840TIP3    H165935   6.113   0.061   5.587 -1.3261  0.4384 -0.0963
14840TIP3    H265936   6.183   0.176   5.658 -1.7901 -0.0401  1.1597
14841TIP3   OH265937   4.146   5.283   0.147 -0.0002  0.1841 -0.0732
14841TIP3    H165938   4.232   5.279   0.106 -0.3034  0.7701 -0.7759
14841TIP3    H265939   4.093   5.333   0.086 -0.6534  0.4258  0.6841
14842TIP3   OH265940   0.087   4.755  15.826 -0.3469 -0.8550 -0.0071
14842TIP3    H165941   0.104   4.666  15.794 -0.5428 -0.9402  0.1231
14842TIP3    H265942   0.119   4.812  15.756  0.3393 -1.0151  0.1767
14843TIP3   OH265943   0.368   1.288   4.345 -0.2360 -0.7852  0.3816
14843TIP3    H165944   0.429   1.360   4.329 -0.7203 -0.4618 -0.0127
14843TIP3    H265945   0.405   1.214   4.297 -1.2168 -0.0591 -1.5537
14844TIP3   OH265946   1.232   3.858   1.645  0.0671 -0.2281  0.1721
14844TIP3    H165947   1.289   3.781   1.642 -0.6521 -0.7282 -1.1513
14844TIP3    H265948   1.207   3.872   1.554 -1.1177  0.5860  0.6176
14845TIP3   OH265949   3.417   0.618   3.272  0.2891 -0.2774  0.4992
14845TIP3    H165950   3.345   0.583   3.325  0.5018 -3.2986 -1.0518
14845TIP3    H265951   3.494   0.570   3.303  1.5855  2.4828  1.7146
14846TIP3   OH265952   3.984   5.917   1.633 -0.0095 -0.0219 -0.5910
14846TIP3    H165953   3.909   5.870   1.668 -0.6098  0.7090 -0.8740
14846TIP3    H265954   3.953   6.007   1.622  0.5492  0.0300 -1.8307
14847TIP3   OH265955   4.082   5.910  13.196 -0.1150 -0.7406  0.1988
14847TIP3    H165956   4.000   5.861  13.196 -0.1762 -0.6743  1.8535
14847TIP3    H265957   4.150   5.844  13.181 -0.4987 -0.6976 -1.8490
14848TIP3   OH265958   2.385   0.754  16.472  0.0223 -0.7021 -0.3869
14848TIP3    H165959   2.371   0.753  16.377  0.8318 -1.6399 -0.4980
14848TIP3    H265960   2.320   0.817  16.505  1.0339  1.1312 -1.7704
14849TIP3   OH265961   0.947   6.503   0.737 -0.6303 -0.4830 -0.0231
14849TIP3    H165962   0.961   6.589   0.698 -1.1635  0.6513  2.1780
14849TIP3    H265963   0.862   6.474   0.704 -1.6602  1.0254  1.2623
14850TIP3   OH265964   1.563   0.447  11.683 -0.3168 -0.7360 -0.3606
14850TIP3    H165965   1.483   0.468  11.634 -0.4904 -1.8063 -0.5474
14850TIP3    H265966   1.556   0.353  11.700  0.1914 -0.5495  0.9170
14851TIP3   OH265967   0.037   1.253  14.358 -0.0172  0.2040  0.2959
14851TIP3    H165968  -0.036   1.195  14.338 -0.0462  0.6070 -0.8077
14851TIP3    H265969   0.022   1.280  14.449  1.8457 -4.1523  2.0285
14852TIP3   OH265970   2.485   1.219   1.756 -0.0750 -0.3165  0.5308
14852TIP3    H165971   2.468   1.132   1.720 -0.6008  0.2605 -0.6281
14852TIP3    H265972   2.562   1.250   1.708 -0.9546  0.5746 -0.3194
14853TIP3   OH265973   2.355   4.000  16.484 -0.2568 -0.2581  0.0136
14853TIP3    H165974   2.399   4.075  16.445  0.6597 -2.0276 -2.4771
14853TIP3    H265975   2.305   3.961  16.412  1.0408 -3.3058  0.6810
14854TIP3   OH265976   5.167   3.929  14.037  0.0287  0.2804  0.2947
14854TIP3    H165977   5.155   3.894  14.126 -4.5687 -1.4232 -0.8397
14854TIP3    H265978   5.200   3.855  13.986 -1.1132  0.0895 -0.1977
14855TIP3   OH265979   4.620   6.695  16.937  0.2685 -0.7987 -0.0123
14855TIP3    H165980   4.655   6.729  17.020  0.1015  0.6279 -0.5141
14855TIP3    H265981   4.603   6.773  16.885 -1.3833 -1.5991 -0.6969
14856TIP3   OH265982   1.739   4.055   1.973 -0.8715 -0.2345 -0.2573
14856TIP3    H165983   1.682   3.993   2.019 -0.8603  0.4721  0.7271
14856TIP3    H265984   1.738   4.133   2.028  0.9027 -0.1594 -0.3044
14857TIP3   OH265985   4.280   0.428  14.319 -0.1564 -0.7072 -0.2633
14857TIP3    H165986   4.252   0.352  14.269 -2.2871  0.3172 -0.6971
14857TIP3    H265987   4.300   0.494  14.252  1.4828 -0.8062  0.1151
14858TIP3   OH265988   1.160   4.658   4.948  0.1643  0.4972  0.1361
14858TIP3    H165989   1.148   4.629   4.857 -0.3302  1.1951 -0.0309
14858TIP3    H265990   1.200   4.744   4.940  0.4759  0.3963  0.5956
14859TIP3   OH265991   3.647   1.463   5.418 -0.9488 -0.3304  0.4803
14859TIP3    H165992   3.607   1.542   5.454 -1.6807 -0.3553 -0.2721
14859TIP3    H265993   3.718   1.495   5.363 -1.0375 -0.2114  0.4357
14860TIP3   OH265994   6.764   5.218  11.793 -0.4784  0.0130 -0.0490
14860TIP3    H165995   6.685   5.266  11.819  0.5281  1.4390  0.4323
14860TIP3    H265996   6.784   5.252  11.706 -0.8766 -0.9793 -0.5356
14861TIP3   OH265997   5.627   6.339  17.047 -0.3264 -0.8305  0.1914
14861TIP3    H165998   5.616   6.366  17.138  0.5011 -1.7636  0.5786
14861TIP3    H265999   5.593   6.250  17.044  1.9665 -1.7282  0.1646
14862TIP3   OH266000   3.195   2.333   0.515  0.2921  0.2219  0.1176
14862TIP3    H166001   3.140   2.397   0.470 -1.2754 -1.3676 -0.2681
14862TIP3    H266002   3.270   2.321   0.458 -0.2348  0.4440 -0.6299
14863TIP3   OH266003   0.798   4.526  13.919  0.4919 -0.1616  0.5967
14863TIP3    H166004   0.778   4.600  13.976  0.3862  1.0711 -1.0253
14863TIP3    H266005   0.721   4.515  13.864  1.8739  0.8264 -1.6073
14864TIP3   OH266006   3.980   5.337  16.642 -0.1611 -0.2744  0.5078
14864TIP3    H166007   3.898   5.298  16.613  0.2404  0.0984 -1.2233
14864TIP3    H266008   4.026   5.359  16.561  0.9271  1.0307  1.4511
14865TIP3   OH266009   5.537   2.163  15.743  0.7785 -0.2110  0.3289
14865TIP3    H166010   5.584   2.145  15.662 -0.7685  0.3622 -0.6979
14865TIP3    H266011   5.595   2.223  15.791  1.1734  0.3496 -0.8458
14866TIP3   OH266012   5.156   4.016  13.584 -0.1461 -0.4699  0.0794
14866TIP3    H166013   5.141   4.104  13.618  0.2064 -1.0940  1.9706
14866TIP3    H266014   5.071   3.973  13.589  0.0742 -0.8172  0.9919
14867TIP3   OH266015   0.752   1.043   4.698  0.0872 -0.2661  0.5064
14867TIP3    H166016   0.689   1.075   4.633  0.4717 -0.0691  0.2331
14867TIP3    H266017   0.717   0.957   4.723  1.0486 -1.2794 -1.5223
14868TIP3   OH266018   4.220   0.042  16.033 -0.1521 -0.5461 -0.3267
14868TIP3    H166019   4.263  -0.034  15.996 -1.1284 -0.5130 -1.5540
14868TIP3    H266020   4.220   0.107  15.963  1.5442  0.9533  1.0089
14869TIP3   OH266021   4.392   4.176   3.852 -0.4419  0.8366 -0.3617
14869TIP3    H166022   4.437   4.107   3.901  1.3486  0.9873 -1.7337
14869TIP3    H266023   4.313   4.133   3.817  1.0634 -0.7619 -1.8835
14870TIP3   OH266024   5.526   5.229   3.383 -0.1205  0.0826  0.1742
14870TIP3    H166025   5.618   5.257   3.384 -0.3476  0.8399  1.3421
14870TIP3    H266026   5.530   5.136   3.405  0.3639  0.1291  0.3040
14871TIP3   OH266027   4.891   4.067   0.628  0.6159  0.0040 -0.7269
14871TIP3    H166028   4.963   4.129   0.634 -0.5861  1.4409 -1.0003
14871TIP3    H266029   4.834   4.088   0.702  1.7901 -2.8867  1.1035
14872TIP3   OH266030   0.150   6.299  13.038 -0.1345  0.6553 -0.0350
14872TIP3    H166031   0.191   6.351  12.969 -1.5050 -0.8629 -2.0238
14872TIP3    H266032   0.056   6.308  13.023 -0.4176 -0.7870  0.8061
14873TIP3   OH266033   2.000   4.084   3.852 -0.1837 -0.7671 -0.0084
14873TIP3    H166034   1.913   4.089   3.815 -0.1453 -1.1703 -0.1596
14873TIP3    H266035   2.039   4.170   3.837 -0.5258 -0.6154 -0.0113
14874TIP3   OH266036   4.779   1.200  12.976  0.0299 -0.6544  0.3604
14874TIP3    H166037   4.814   1.166  13.058  0.9722 -0.8898 -0.1274
14874TIP3    H266038   4.788   1.295  12.984  0.4462 -0.6937  0.3942
14875TIP3   OH266039   1.055   2.359   6.770  0.5717 -0.2871 -0.8305
14875TIP3    H166040   0.965   2.354   6.801 -0.1296 -2.0061 -3.0283
14875TIP3    H266041   1.070   2.452   6.753 -0.4524  0.1234  0.4613
14876TIP3   OH266042   4.186   1.925  12.222  0.4270  0.7784  0.1099
14876TIP3    H166043   4.159   1.880  12.142 -0.2980 -0.0363  0.7978
14876TIP3    H266044   4.277   1.950  12.207  0.3998  0.3089 -0.8228
14877TIP3   OH266045   4.352   4.551  16.818 -0.3563  0.1095 -0.4469
14877TIP3    H166046   4.411   4.518  16.750 -0.7272 -1.6402  0.0578
14877TIP3    H266047   4.264   4.531  16.786 -0.5535 -0.2365  0.2904
14878TIP3   OH266048   1.526   6.508  10.532 -0.1351 -0.0637  0.3541
14878TIP3    H166049   1.485   6.426  10.502 -0.3603  0.2959 -0.3206
14878TIP3    H266050   1.619   6.497  10.512  0.1911 -1.0507  2.2567
14879TIP3   OH266051   3.491   4.750   1.279  0.5461 -0.2352 -0.2300
14879TIP3    H166052   3.410   4.793   1.251  1.0438  0.7810 -0.1335
14879TIP3    H266053   3.477   4.730   1.372  1.3240  2.1703  0.4470
14880TIP3   OH266054   2.963   6.142   4.125 -0.2085  0.0964 -0.4003
14880TIP3    H166055   2.994   6.152   4.035 -0.2402  0.8947 -0.3233
14880TIP3    H266056   2.874   6.107   4.116 -0.9792  2.0920 -0.7439
14881TIP3   OH266057   1.313   0.044  17.187 -0.3441  0.4188  0.6428
14881TIP3    H166058   1.298  -0.050  17.175 -1.9721  0.5911  1.1370
14881TIP3    H266059   1.259   0.086  17.120 -0.1647  1.0259  0.8729
14882TIP3   OH266060   2.209   2.535   1.609 -0.2371 -0.5492 -0.5666
14882TIP3    H166061   2.181   2.624   1.628 -1.2847 -1.0962  0.5518
14882TIP3    H266062   2.177   2.517   1.521 -0.0821  0.1462 -0.7642
14883TIP3   OH266063   0.607   6.046   0.580  0.1422 -0.3195 -0.2564
14883TIP3    H166064   0.600   6.091   0.664 -0.3390 -1.3384  0.2652
14883TIP3    H266065   0.697   6.015   0.576  1.0936  2.4825 -1.5699
14884TIP3   OH266066   3.847   0.474  11.423  0.6759 -0.4787 -0.3566
14884TIP3    H166067   3.793   0.407  11.465  2.0260 -0.5549  1.3055
14884TIP3    H266068   3.788   0.550  11.414 -0.1322 -1.0486  0.0399
14885TIP3   OH266069   2.964   5.531   4.681 -0.7453  0.4159 -0.0977
14885TIP3    H166070   2.935   5.446   4.712 -0.3133  0.3346  0.0894
14885TIP3    H266071   3.013   5.513   4.601 -1.1507  0.5440 -0.3738
14886TIP3   OH266072   4.001   0.008   2.263 -0.0383 -0.3538  0.2247
14886TIP3    H166073   4.060  -0.027   2.330 -1.2981 -0.1058  1.4845
14886TIP3    H266074   3.986   0.099   2.290  1.5816  0.5672 -1.8904
14887TIP3   OH266075   1.831   6.508  14.786  0.1402 -0.4463 -0.0870
14887TIP3    H166076   1.859   6.417  14.777 -1.0011 -0.6617 -1.6126
14887TIP3    H266077   1.742   6.502  14.820 -0.2497  0.0647 -0.9942
14888TIP3   OH266078   2.949   4.141   1.021  0.4570  0.4010  0.5873
14888TIP3    H166079   2.897   4.220   1.037  0.8793  0.7171  0.3905
14888TIP3    H266080   3.024   4.171   0.970  0.0558 -0.2956 -0.4289
14889TIP3   OH266081   4.111   5.693  13.575 -0.2808 -0.3175 -0.7020
14889TIP3    H166082   4.023   5.682  13.612 -0.8898 -1.4328 -2.4055
14889TIP3    H266083   4.168   5.702  13.651 -1.4759 -2.7103  0.5434
14890TIP3   OH266084   4.295   5.089  13.595  0.5688 -0.6097 -0.3149
14890TIP3    H166085   4.305   5.066  13.502  0.9380 -0.8880 -0.2076
14890TIP3    H266086   4.379   5.130  13.618  0.5944 -0.8297 -0.0207
14891TIP3   OH266087   6.706   3.638   0.916  0.0120  0.5251  0.2279
14891TIP3    H166088   6.745   3.554   0.939 -0.9854  0.1075  0.3833
14891TIP3    H266089   6.777   3.701   0.929  0.6323 -0.2318  0.5344
14892TIP3   OH266090   6.491   2.890  15.432  0.3245 -0.0871 -0.0631
14892TIP3    H166091   6.402   2.857  15.443 -0.2728  2.0468  2.2082
14892TIP3    H266092   6.498   2.913  15.340 -1.3119 -0.7186 -0.3523
14893TIP3   OH266093   0.863   2.028  14.105  0.2592  0.0492  0.4201
14893TIP3    H166094   0.775   2.007  14.073  0.1823  2.9780 -1.3618
14893TIP3    H266095   0.848   2.089  14.177  0.8602  2.2822 -1.2903
14894TIP3   OH266096   2.782   1.624  11.715  0.2188  0.0268 -0.3090
14894TIP3    H166097   2.712   1.560  11.707 -1.9050  2.0412  1.2820
14894TIP3    H266098   2.796   1.656  11.625  0.0178 -1.3331 -0.8265
14895TIP3   OH266099   2.134   5.739   0.273  0.3266  0.3776 -0.3416
14895TIP3    H166100   2.208   5.764   0.329  0.7964 -0.0409 -0.7706
14895TIP3    H266101   2.146   5.645   0.257 -0.0288  0.4085 -0.8146
14896TIP3   OH266102   5.849   3.241   2.409 -0.0543  0.0535 -0.2852
14896TIP3    H166103   5.867   3.319   2.461 -0.5821  1.1632 -1.7396
14896TIP3    H266104   5.760   3.253   2.376  0.1088 -0.8263 -1.0876
14897TIP3   OH266105   6.172   3.216  16.400  0.3150 -0.5948  0.0297
14897TIP3    H166106   6.095   3.214  16.344  0.5571 -0.3162 -0.3138
14897TIP3    H266107   6.246   3.212  16.340  0.6235  1.9871  0.1706
14898TIP3   OH266108   0.830   1.503  15.281  0.3585  0.5039 -0.0344
14898TIP3    H166109   0.886   1.452  15.339 -0.1450 -0.2863 -0.2401
14898TIP3    H266110   0.866   1.487  15.194 -0.7703 -0.7856 -0.2785
14899TIP3   OH266111   6.001   0.512  13.627  0.0460  0.2002  0.6020
14899TIP3    H166112   6.060   0.475  13.693  0.4955 -1.3283 -0.6188
14899TIP3    H266113   5.980   0.438  13.570 -0.5089  1.4376 -0.8392
14900TIP3   OH266114   1.195   4.484  13.139  0.0108  0.5202  0.1933
14900TIP3    H166115   1.162   4.410  13.089  1.2223  0.3344 -0.3630
14900TIP3    H266116   1.155   4.561  13.099 -0.8122  0.2015  0.4100
14901TIP3   OH266117   2.064   0.572   5.426 -0.3271  0.2461 -0.2452
14901TIP3    H166118   2.090   0.548   5.338  1.2001 -1.0441  0.5294
14901TIP3    H266119   2.090   0.498   5.480 -0.3428  1.4139  1.4284
14902TIP3   OH266120   0.486   1.871   5.901 -0.4215  0.1051  0.1167
14902TIP3    H166121   0.573   1.911   5.896 -2.3787  4.8567  0.7391
14902TIP3    H266122   0.448   1.885   5.815 -0.9741 -0.8949  0.1928
14903TIP3   OH266123   3.716   3.938   1.431 -0.5305  0.6936 -0.0824
14903TIP3    H166124   3.638   3.941   1.377 -1.0623 -1.0900  0.5523
14903TIP3    H266125   3.691   3.980   1.513 -0.8008  0.2295  0.0755
14904TIP3   OH266126   3.205   3.934   4.934  0.3802 -0.2988  0.0425
14904TIP3    H166127   3.178   4.025   4.924 -0.0710 -0.0716  2.8252
14904TIP3    H266128   3.293   3.939   4.972  0.7468 -1.0320 -0.7030
14905TIP3   OH266129   0.065   0.253  14.669 -0.7003 -0.3435  0.1720
14905TIP3    H166130   0.126   0.180  14.673  0.4349  0.6426  1.4595
14905TIP3    H266131   0.110   0.319  14.616 -0.7056  0.3191  0.9774
14906TIP3   OH266132   6.520   2.701   4.184  0.0203  1.0571  0.4154
14906TIP3    H166133   6.527   2.615   4.142 -0.7185  0.8605  0.6786
14906TIP3    H266134   6.539   2.763   4.115 -2.8977  0.8072 -0.7068
14907TIP3   OH266135   4.080   4.240   2.891 -0.6643 -0.3664  0.5691
14907TIP3    H166136   4.147   4.194   2.942  1.5720 -0.5650 -2.4259
14907TIP3    H266137   4.115   4.328   2.878 -0.5560 -0.7032 -1.6810
14908TIP3   OH266138   1.450   4.178   1.888  0.7530 -0.0728 -0.2268
14908TIP3    H166139   1.412   4.158   1.803 -1.4188 -1.3764  0.9854
14908TIP3    H266140   1.539   4.144   1.884  0.6127 -0.2503 -1.9346
14909TIP3   OH266141   5.088   3.100  15.739 -0.3658  0.0780 -0.1728
14909TIP3    H166142   5.149   3.125  15.670  0.0111 -0.1028  0.0926
14909TIP3    H266143   5.054   3.015  15.712  0.0889 -0.1821  0.0624
14910TIP3   OH266144   5.140   0.218  14.857  0.4450  0.0169 -0.4605
14910TIP3    H166145   5.187   0.300  14.842  0.6993  0.1831  1.1539
14910TIP3    H266146   5.197   0.168  14.916 -0.3676 -0.7246 -0.2943
14911TIP3   OH266147   4.550   3.892  15.471  0.2501 -0.3666  0.0202
14911TIP3    H166148   4.549   3.965  15.409 -0.8812  0.4473  0.9678
14911TIP3    H266149   4.613   3.918  15.538 -0.6990  0.0836  0.7470
14912TIP3   OH266150   5.300   5.169   0.797  0.5837 -0.3122 -0.9606
14912TIP3    H166151   5.208   5.175   0.771  0.5749 -0.1897 -0.8996
14912TIP3    H266152   5.348   5.170   0.715  0.5498 -0.0361 -0.9776
14913TIP3   OH266153   3.392   6.088  11.185 -0.0469  0.0032 -0.2176
14913TIP3    H166154   3.366   6.082  11.093  0.5616 -0.5965 -0.3566
14913TIP3    H266155   3.352   6.012  11.226  0.5541 -0.3204 -0.2113
14914TIP3   OH266156   1.277   6.358   0.073 -0.0455 -0.4597  0.0795
14914TIP3    H166157   1.193   6.382   0.112 -0.5258  1.7725 -2.2079
14914TIP3    H266158   1.293   6.269   0.104 -2.9311 -0.6777  1.1027
14915TIP3   OH266159   3.256   3.029   5.596 -0.4083 -0.4408  0.1509
14915TIP3    H166160   3.176   3.019   5.649 -0.3779 -0.6555  0.1586
14915TIP3    H266161   3.290   2.940   5.588 -1.0331 -0.5728 -1.2062
14916TIP3   OH266162   2.352   1.261  14.661  0.6863 -0.1646  0.3588
14916TIP3    H166163   2.304   1.213  14.728  0.8684  1.3318  1.5910
14916TIP3    H266164   2.432   1.211  14.646  0.6346 -0.5073  1.2502
14917TIP3   OH266165   1.617   0.894   2.122 -0.4164  0.1826 -0.6722
14917TIP3    H166166   1.534   0.908   2.168  0.6759 -0.3473  1.5382
14917TIP3    H266167   1.670   0.970   2.145  0.8426 -1.0437  0.6092
14918TIP3   OH266168   0.368   5.070   4.429  0.3834  0.0978 -0.2651
14918TIP3    H166169   0.297   5.128   4.401 -0.3903 -0.6822  0.0600
14918TIP3    H266170   0.326   5.007   4.488  1.0947 -1.1697 -1.0927
14919TIP3   OH266171   4.782   1.598   4.032 -0.6265 -0.6583 -0.2107
14919TIP3    H166172   4.808   1.604   3.940 -1.8954 -1.0254 -0.6113
14919TIP3    H266173   4.688   1.578   4.028 -0.4749 -1.6446  1.1674
14920TIP3   OH266174   1.556   1.831   3.666 -0.3719  0.1495 -0.5430
14920TIP3    H166175   1.542   1.812   3.573  2.8164  2.0309 -1.4551
14920TIP3    H266176   1.493   1.900   3.686  0.1615  1.0297 -1.8137
14921TIP3   OH266177   0.041   4.538   0.806  0.2314 -0.2402 -0.0880
14921TIP3    H166178   0.114   4.562   0.864 -0.9670 -0.4382  1.5554
14921TIP3    H266179   0.005   4.621   0.776 -0.2002 -0.0877  0.8316
14922TIP3   OH266180   1.571   4.999   4.691  0.1324  0.5421 -0.3981
14922TIP3    H166181   1.648   4.979   4.637  0.0230 -1.0756  0.0124
14922TIP3    H266182   1.528   4.914   4.703 -0.1217  0.9617  1.8175
14923TIP3   OH266183   3.148   2.028  13.265 -0.2905  0.1448 -0.0463
14923TIP3    H166184   3.242   2.024  13.286  0.5813  2.0433 -3.2320
14923TIP3    H266185   3.116   2.104  13.312 -0.2752 -0.5651  1.1282
14924TIP3   OH266186   4.152   1.478   5.432 -0.3994 -0.0364  0.5180
14924TIP3    H166187   4.090   1.514   5.496  0.2648  1.5097  0.3311
14924TIP3    H266188   4.177   1.393   5.468 -1.0330  0.2454  1.6482
14925TIP3   OH266189   5.131   1.586   4.558  0.8535  0.2819 -0.6643
14925TIP3    H166190   5.075   1.659   4.532 -0.0693 -0.4906 -0.8652
14925TIP3    H266191   5.179   1.619   4.635  0.4542  1.0973 -0.7628
14926TIP3   OH266192   4.637   5.467   1.119 -0.2703 -0.1148 -0.5063
14926TIP3    H166193   4.579   5.401   1.157 -0.6450 -0.7417 -2.1343
14926TIP3    H266194   4.672   5.425   1.040  2.1291  0.3758  0.2605
14927TIP3   OH266195   5.663   3.879  14.521  0.2439  0.0762 -0.2395
14927TIP3    H166196   5.587   3.917  14.476 -0.0829 -1.2279 -0.8188
14927TIP3    H266197   5.713   3.954  14.551 -1.2033  0.9595  0.0221
14928TIP3   OH266198   1.692   1.286   3.696  0.6215 -0.0033 -0.4795
14928TIP3    H166199   1.774   1.269   3.741  0.3016  0.2388  0.1984
14928TIP3    H266200   1.695   1.379   3.674  0.8268 -0.1445 -1.0668
14929TIP3   OH266201   6.467   1.735   3.164  0.1314 -0.0262  0.1706
14929TIP3    H166202   6.514   1.663   3.122 -0.1840  0.1333 -0.4527
14929TIP3    H266203   6.444   1.794   3.093 -1.2066 -0.2066  0.4302
14930TIP3   OH266204   2.828   4.134   5.927 -0.1396  0.0846  0.3414
14930TIP3    H166205   2.820   4.123   6.022  0.2574  0.0206  0.3675
14930TIP3    H266206   2.838   4.045   5.894 -0.0902  0.1228  0.2563
14931TIP3   OH266207   1.563   4.840   1.095 -0.1629 -0.2930  0.1558
14931TIP3    H166208   1.541   4.911   1.035  0.6036 -0.5339 -0.4190
14931TIP3    H266209   1.554   4.878   1.182 -1.7912 -0.0802 -0.0950
14932TIP3   OH266210   5.702   1.167   1.899 -0.2260  0.0247  0.1395
14932TIP3    H166211   5.703   1.173   1.995 -3.2562 -1.6138  0.3392
14932TIP3    H266212   5.738   1.081   1.880  0.5001  0.4029 -0.2480
14933TIP3   OH266213   3.674   2.515   2.912 -0.0357 -0.1292 -0.6133
14933TIP3    H166214   3.719   2.594   2.942 -0.0734  0.3690 -1.8174
14933TIP3    H266215   3.614   2.546   2.845  0.4987 -1.2790 -1.6529
14934TIP3   OH266216   3.386   2.143   3.303 -0.3968 -0.1273 -0.2667
14934TIP3    H166217   3.436   2.105   3.375  0.0014 -0.2023 -0.5788
14934TIP3    H266218   3.423   2.231   3.292  1.2661 -0.9989 -2.0170
14935TIP3   OH266219   3.252   2.870  10.895 -0.0554 -0.4641 -0.5587
14935TIP3    H166220   3.225   2.786  10.858  0.3930 -0.5120 -0.7868
14935TIP3    H266221   3.238   2.861  10.989 -0.4671 -0.6220 -0.6353
14936TIP3   OH266222   6.225   3.636   2.652  0.0843  0.3357  0.7982
14936TIP3    H166223   6.163   3.686   2.598  0.3680  0.8585  0.9543
14936TIP3    H266224   6.282   3.703   2.690  0.2697 -0.0861  1.2556
14937TIP3   OH266225   1.274   4.273  15.056 -0.0414  0.6791  0.0909
14937TIP3    H166226   1.333   4.198  15.056 -0.1942  0.5595  0.7780
14937TIP3    H266227   1.189   4.236  15.030 -0.3412  0.4313  1.3857
14938TIP3   OH266228   1.064   1.739   1.062 -0.8293  0.4954 -0.6679
14938TIP3    H166229   0.974   1.712   1.078 -0.9764  0.0708 -2.1407
14938TIP3    H266230   1.061   1.785   0.978  0.4570 -0.1885 -1.1027
14939TIP3   OH266231   5.664   1.799   5.279  0.1085  0.5054  0.1008
14939TIP3    H166232   5.748   1.765   5.247  0.2031  0.6124  0.2362
14939TIP3    H266233   5.688   1.873   5.334 -0.1085  0.9747 -0.4245
14940TIP3   OH266234   3.835   4.267  12.817  0.5897  0.1395  0.1046
14940TIP3    H166235   3.841   4.361  12.802  2.4866 -0.2343 -1.6390
14940TIP3    H266236   3.875   4.253  12.903  0.6835  0.8514  0.1774
14941TIP3   OH266237   4.859   5.762   0.729  0.0608  0.7435 -0.0688
14941TIP3    H166238   4.812   5.807   0.800 -0.9490  0.7194 -0.7083
14941TIP3    H266239   4.907   5.692   0.773 -1.6873 -0.1805  0.4574
14942TIP3   OH266240   5.347   0.558  14.475  0.0426  0.1356 -0.1257
14942TIP3    H166241   5.256   0.526  14.473 -0.2472  0.7310  1.7746
14942TIP3    H266242   5.390   0.500  14.538  0.4860  1.0696  0.4372
14943TIP3   OH266243   3.757   5.023   2.789  0.0785 -0.2104 -0.0691
14943TIP3    H166244   3.680   4.998   2.839 -0.1023  0.2474 -0.1149
14943TIP3    H266245   3.723   5.079   2.719  0.8118  3.0550  2.0579
14944TIP3   OH266246   0.737   3.614   0.777 -0.2417 -0.2726  0.0299
14944TIP3    H166247   0.779   3.673   0.714 -2.3093  0.4976 -0.6479
14944TIP3    H266248   0.739   3.528   0.734 -2.7768  0.4867 -1.6605
14945TIP3   OH266249   5.231   0.118  13.937  0.1621  0.2818  0.1337
14945TIP3    H166250   5.301   0.078  13.989 -0.1724  0.8603  1.0380
14945TIP3    H266251   5.269   0.128  13.850  0.5286 -1.2454  0.0990
14946TIP3   OH266252   5.479   3.025  14.002  0.1905 -0.5760 -0.0267
14946TIP3    H166253   5.476   2.953  14.065  0.8047 -1.7186 -1.2715
14946TIP3    H266254   5.387   3.037  13.976  0.1572 -1.3350 -0.2801
14947TIP3   OH266255   0.936   2.852  12.221 -0.1759  0.4270  0.0511
14947TIP3    H166256   0.889   2.931  12.193  2.0129  1.6088 -0.4160
14947TIP3    H266257   0.962   2.871  12.311 -0.4278 -0.1353  0.2407
14948TIP3   OH266258   2.197   2.976   4.680 -0.3517 -0.4935  0.5127
14948TIP3    H166259   2.238   2.893   4.658  1.3297 -0.2374  2.4736
14948TIP3    H266260   2.200   3.027   4.599 -0.9264 -2.1360 -0.5583
14949TIP3   OH266261   6.173   3.070   2.024 -0.2421  0.6470  0.2731
14949TIP3    H166262   6.201   3.161   2.016  1.1205  0.3298  1.2390
14949TIP3    H266263   6.078   3.075   2.030 -0.4354  1.7799 -2.7894
14950TIP3   OH266264   1.702   3.512  12.514  0.1444  0.3243  0.0399
14950TIP3    H166265   1.649   3.495  12.591  1.4718 -1.8677  0.4880
14950TIP3    H266266   1.657   3.584  12.469 -2.2781 -0.4105  1.2574
14951TIP3   OH266267   0.853   2.290   0.999 -0.3476  0.8953 -0.0416
14951TIP3    H166268   0.775   2.327   0.959 -2.5183 -2.4187  0.9757
14951TIP3    H266269   0.906   2.259   0.925 -0.8375  1.5038 -0.6440
14952TIP3   OH266270   3.666   1.524  13.709 -0.0251  0.4124 -0.2784
14952TIP3    H166271   3.625   1.608  13.726  0.0736  0.5633 -0.7793
14952TIP3    H266272   3.673   1.519  13.613  2.9763  1.2698 -0.1364
14953TIP3   OH266273   2.281   4.851  11.308  0.0989 -0.5402  0.0196
14953TIP3    H166274   2.283   4.882  11.399 -1.6783  0.2157 -0.1898
14953TIP3    H266275   2.272   4.931  11.255  0.4546 -1.0292 -0.7896
14954TIP3   OH266276   2.537   3.077  15.287 -0.1567 -0.1770 -0.1945
14954TIP3    H166277   2.510   3.151  15.341 -1.0881 -1.5340  1.2314
14954TIP3    H266278   2.618   3.046  15.327  1.4115  1.3585 -2.0575
14955TIP3   OH266279   0.136   0.571  12.194  0.0951  0.0771  0.4879
14955TIP3    H166280   0.079   0.499  12.167  1.9576 -0.9503 -0.8602
14955TIP3    H266281   0.171   0.543  12.279 -0.4798  0.1526  0.7479
14956TIP3   OH266282   0.712   2.035  16.711  0.3099 -0.4963 -0.6471
14956TIP3    H166283   0.646   2.080  16.763  0.7505 -0.1956 -0.3492
14956TIP3    H266284   0.687   1.942  16.717 -0.7196 -0.2777 -1.4506
14957TIP3   OH266285   6.425   3.052   1.824 -0.4866 -0.1162 -0.2189
14957TIP3    H166286   6.509   3.056   1.869  0.4497  1.1045 -2.0113
14957TIP3    H266287   6.374   3.125   1.861 -0.6310 -0.6276  0.5986
14958TIP3   OH266288   0.697   3.713  15.900  0.7412  0.0527 -0.3474
14958TIP3    H166289   0.675   3.623  15.924 -0.4768  1.4201  4.1206
14958TIP3    H266290   0.789   3.722  15.926  0.3105  0.6096  1.0554
14959TIP3   OH266291   5.223   6.023   2.806  0.5520  0.3613 -0.0956
14959TIP3    H166292   5.147   6.012   2.749  1.3216 -1.4319 -0.8005
14959TIP3    H266293   5.279   6.085   2.760 -0.1836  1.2147  0.1371
14960TIP3   OH266294   5.021   5.581  15.871  0.4028 -0.9433 -0.3905
14960TIP3    H166295   5.088   5.601  15.937  0.8243 -1.3619 -0.6789
14960TIP3    H266296   4.990   5.494  15.896  1.1567 -1.4582 -1.2167
14961TIP3   OH266297   4.368   5.598   1.495  0.6260 -0.2442  0.7442
14961TIP3    H166298   4.288   5.650   1.488  0.7915 -0.0268  0.4448
14961TIP3    H266299   4.423   5.646   1.557  0.4593 -0.4751  1.0686
14962TIP3   OH266300   0.366   5.557  12.501  0.2566  0.0792 -0.3938
14962TIP3    H166301   0.283   5.600  12.480  1.5212  2.3193 -0.9965
14962TIP3    H266302   0.393   5.597  12.583  0.0488 -1.7034  0.5569
14963TIP3   OH266303   2.141   4.261   1.630  0.0332  0.8161 -0.6046
14963TIP3    H166304   2.092   4.299   1.703  1.1968 -0.9016  1.1415
14963TIP3    H266305   2.086   4.189   1.599  0.5857  0.0536  0.1519
14964TIP3   OH266306   2.672   3.610   2.774  0.0160  0.5700 -0.5217
14964TIP3    H166307   2.672   3.606   2.870 -3.7458 -0.6934 -0.4967
14964TIP3    H266308   2.729   3.538   2.747  0.1687  0.1999  0.7420
14965TIP3   OH266309   5.375   0.360  14.679 -0.4997 -0.0992  1.0565
14965TIP3    H166310   5.436   0.296  14.714  0.1403  0.5135  1.0878
14965TIP3    H266311   5.367   0.426  14.748 -0.1224  0.5226  0.5239
14966TIP3   OH266312   4.657   0.755  10.073 -0.0196  0.1638  0.0768
14966TIP3    H166313   4.563   0.737  10.075 -0.2197  1.2262  0.8212
14966TIP3    H266314   4.663   0.850  10.065  0.9954 -0.0036 -1.4374
14967TIP3   OH266315   1.880   2.224  15.540 -0.0449  0.3506 -0.1389
14967TIP3    H166316   1.878   2.245  15.633 -2.5601  3.4229 -0.8190
14967TIP3    H266317   1.962   2.262  15.509 -0.6747  2.0837  0.2552
14968TIP3   OH266318   0.049   2.500  10.219  0.4456  0.0512  0.3711
14968TIP3    H166319  -0.030   2.446  10.209 -0.2084  1.2327 -1.0518
14968TIP3    H266320   0.018   2.579  10.262  0.5488  1.1206 -1.4469
14969TIP3   OH266321   6.645   6.556   1.191 -0.0802 -0.0099 -0.3904
14969TIP3    H166322   6.739   6.563   1.205 -0.0627 -0.0048 -0.5163
14969TIP3    H266323   6.608   6.630   1.240  0.1187  1.0777 -1.8506
14970TIP3   OH266324   5.970   2.012  11.391  0.5373  0.3369  0.0419
14970TIP3    H166325   6.026   2.087  11.371  2.2372 -1.1551 -0.9464
14970TIP3    H266326   6.028   1.950  11.435 -0.8945 -0.3246  1.0268
14971TIP3   OH266327   0.938   2.904  16.212 -0.3785 -0.1743  0.0394
14971TIP3    H166328   0.919   2.811  16.225  0.2826 -0.3082  0.0374
14971TIP3    H266329   0.871   2.933  16.150 -1.6002 -0.2696  1.2715
14972TIP3   OH266330   6.088   0.874  16.242 -0.1594 -0.4063 -0.2047
14972TIP3    H166331   6.058   0.792  16.279 -0.6718 -0.6736 -1.1872
14972TIP3    H266332   6.177   0.855  16.210 -0.5968 -0.8303 -1.2040
14973TIP3   OH266333   1.215   6.482   1.746  0.1308  0.3542  0.2935
14973TIP3    H166334   1.258   6.487   1.661 -0.3327  0.1647  0.0423
14973TIP3    H266335   1.202   6.388   1.761  1.7573  0.2814  1.3691
14974TIP3   OH266336   4.640   4.659  12.448 -0.0776  0.1272  0.3907
14974TIP3    H166337   4.586   4.663  12.369  0.1071  0.4600  0.2812
14974TIP3    H266338   4.601   4.588  12.499  0.6613 -1.0337 -0.6332
14975TIP3   OH266339   5.715   3.017   5.523 -0.3844 -0.1859 -0.5254
14975TIP3    H166340   5.713   2.931   5.565 -0.0032 -0.6051 -1.3688
14975TIP3    H266341   5.808   3.035   5.510 -0.5375 -0.4944 -2.0924
14976TIP3   OH266342   1.809   4.452  13.184 -0.6235  0.1722 -0.6607
14976TIP3    H166343   1.749   4.405  13.125 -3.3784 -0.2061  2.3039
14976TIP3    H266344   1.864   4.383  13.221  0.4842  0.2937 -2.0456
14977TIP3   OH266345   3.299   3.057  12.500 -0.3078 -0.1644 -0.4314
14977TIP3    H166346   3.213   3.031  12.469 -0.8290  3.5159 -2.3303
14977TIP3    H266347   3.283   3.095  12.586 -0.2792 -1.2068  0.0427
14978TIP3   OH266348   5.428   4.869   2.832  0.2803  0.2344 -0.1120
14978TIP3    H166349   5.400   4.932   2.765  2.5045  1.7258  0.3226
14978TIP3    H266350   5.376   4.891   2.909 -1.7602 -1.0182 -1.0526
14979TIP3   OH266351   1.076   5.699  12.705  0.1029  0.0168 -0.4485
14979TIP3    H166352   1.151   5.647  12.734  0.8257  1.4667  0.3320
14979TIP3    H266353   1.101   5.731  12.618  0.6939  1.0822  0.1078
14980TIP3   OH266354   5.700   3.587  14.837  0.1696  0.3375 -0.3847
14980TIP3    H166355   5.674   3.590  14.929 -0.4316 -1.5147 -0.4781
14980TIP3    H266356   5.649   3.657  14.796  0.9699  1.6581  0.7918
14981TIP3   OH266357   6.268   4.300  16.018 -0.1531  0.1816  0.2571
14981TIP3    H166358   6.272   4.395  16.012 -1.5669  0.1795 -0.8596
14981TIP3    H266359   6.229   4.282  16.103  0.7813  0.5806  0.7737
14982TIP3   OH266360   1.034   4.952  16.727  0.1237  0.0035 -0.6486
14982TIP3    H166361   0.959   4.948  16.787 -1.0359 -1.5546 -2.1584
14982TIP3    H266362   1.007   5.013  16.658  0.2049 -0.6460 -1.2572
14983TIP3   OH266363   2.059   1.998  16.917  0.0545 -0.2386  0.7340
14983TIP3    H166364   2.143   1.956  16.933  0.7134  0.1156 -1.5776
14983TIP3    H266365   2.064   2.081  16.965  1.2679  0.0379  0.1528
14984TIP3   OH266366   4.936   4.134  13.441  0.4203 -0.7262  0.4963
14984TIP3    H166367   4.846   4.112  13.465  1.0895 -1.7727  2.1094
14984TIP3    H266368   4.928   4.216  13.392 -1.3203 -0.3014  1.4537
14985TIP3   OH266369   0.352   3.182   4.044  0.5123  0.4484 -0.5324
14985TIP3    H166370   0.404   3.254   4.080  0.6856 -0.0838  0.3003
14985TIP3    H266371   0.266   3.192   4.085  0.4947  0.2743 -0.5268
14986TIP3   OH266372   3.427   2.861  13.423 -0.3678 -0.0567  0.3231
14986TIP3    H166373   3.339   2.873  13.459 -0.6164  0.9621 -0.5949
14986TIP3    H266374   3.416   2.871  13.329  0.3512 -2.2616 -0.0323
14987TIP3   OH266375   4.910   2.029   0.596 -0.1319  0.7184 -0.2814
14987TIP3    H166376   4.864   1.949   0.572 -0.3598  0.5514  0.6850
14987TIP3    H266377   4.890   2.091   0.525  1.0515 -0.4499 -1.6570
14988TIP3   OH266378   5.242   1.327  15.873  0.2944 -0.1903  0.5746
14988TIP3    H166379   5.272   1.292  15.957  0.0148  0.6811  1.0429
14988TIP3    H266380   5.231   1.250  15.817  0.4926 -0.7713  1.3332
14989TIP3   OH266381   0.020   0.781   0.025  0.8995  0.2463  0.1551
14989TIP3    H166382  -0.043   0.713  -0.001  1.8680 -0.8824  0.6751
14989TIP3    H266383   0.089   0.775  -0.041  0.8429  0.9398  0.0347
14990TIP3   OH266384   3.527   0.152  10.686  0.1762 -0.4889  0.2452
14990TIP3    H166385   3.607   0.196  10.656  0.2631 -0.9703 -0.2363
14990TIP3    H266386   3.547   0.058  10.680 -1.0970 -0.6639 -1.7641
14991TIP3   OH266387   1.740   3.168  14.944  0.1817 -0.5143  0.7307
14991TIP3    H166388   1.703   3.173  14.857 -0.1022  0.4824  0.9046
14991TIP3    H266389   1.821   3.118  14.933 -0.3260 -1.2031  0.0692
14992TIP3   OH266390   5.076   5.328   2.018  0.4201 -0.0320 -0.4834
14992TIP3    H166391   5.089   5.268   2.091 -2.9862 -1.2730 -0.8073
14992TIP3    H266392   5.117   5.285   1.944  1.9764  0.2163  0.2044
14993TIP3   OH266393   0.629   4.040   2.885  0.3204  0.6425 -0.0186
14993TIP3    H166394   0.700   4.104   2.878  1.2781 -0.3871  0.2619
14993TIP3    H266395   0.670   3.955   2.870 -1.1715  0.1705 -1.6892
14994TIP3   OH266396   5.329   5.241  10.825 -0.0196 -0.2903  0.0645
14994TIP3    H166397   5.309   5.331  10.796  1.4762  0.0916  0.2057
14994TIP3    H266398   5.243   5.203  10.844 -0.5453  1.8131  2.0762
14995TIP3   OH266399   4.075   6.562  16.413  0.5415  0.2928  0.3237
14995TIP3    H166400   4.077   6.654  16.385 -0.6497  0.6022  1.1695
14995TIP3    H266401   3.985   6.548  16.442  0.8417 -1.0021  0.6753
14996TIP3   OH266402   6.735   0.687  16.367  0.9473 -0.5188  0.6151
14996TIP3    H166403   6.676   0.671  16.440 -0.5188 -1.4081 -0.7111
14996TIP3    H266404   6.703   0.769  16.328  1.0914 -0.5806  0.3651
14997TIP3   OH266405   3.573   6.095  14.518 -0.1667  0.0710 -0.0648
14997TIP3    H166406   3.552   6.104  14.425  0.0648  1.1265 -0.0200
14997TIP3    H266407   3.488   6.093  14.562 -0.2537  0.8055 -0.1939
14998TIP3   OH266408   4.825   3.839  10.793  0.1777 -0.3063 -0.1571
14998TIP3    H166409   4.896   3.900  10.772  1.3131 -0.4132  2.9525
14998TIP3    H266410   4.870   3.759  10.820 -0.8572  0.6388  4.9605
14999TIP3   OH266411   1.663   4.084  15.545  0.0787  0.3127 -0.3185
14999TIP3    H166412   1.683   4.155  15.484  1.9299  0.1118  0.0487
14999TIP3    H266413   1.568   4.089  15.557 -0.0043  1.7373 -1.5057
15000TIP3   OH266414   5.163   1.452   4.028  0.1808  0.3261  0.4258
15000TIP3    H166415   5.084   1.398   4.030  0.6953 -0.6467 -2.7010
15000TIP3    H266416   5.134   1.537   3.996  0.0691  0.6168  1.2887
15001TIP3   OH266417   6.732   2.693  12.699 -0.0321 -0.1159 -0.3559
15001TIP3    H166418   6.806   2.725  12.752 -0.1317  0.1669 -0.3873
15001TIP3    H266419   6.770   2.624  12.645  0.0060 -0.6055  0.2880
15002TIP3   OH266420   1.728   1.181  14.014 -0.2426 -0.5061 -0.6463
15002TIP3    H166421   1.645   1.137  14.032  0.7151 -2.0394  0.2160
15002TIP3    H266422   1.739   1.241  14.088 -0.3094 -0.7183 -0.4617
15003TIP3   OH266423   2.723   1.300   6.663  0.0651  0.2111  0.0281
15003TIP3    H166424   2.804   1.249   6.651 -0.3448 -0.5458  0.4737
15003TIP3    H266425   2.722   1.360   6.589  0.1604 -0.9660 -0.9476
15004TIP3   OH266426   0.523   3.133   6.361 -0.3538 -0.0081  0.4613
15004TIP3    H166427   0.436   3.110   6.392 -0.4599 -0.9475 -0.4964
15004TIP3    H266428   0.561   3.185   6.431 -1.2662 -0.5491  1.3640
15005TIP3   OH266429   5.362   2.719   3.600  0.2454 -0.1092  0.2613
15005TIP3    H166430   5.326   2.662   3.532  0.2869  1.2087 -0.8853
15005TIP3    H266431   5.302   2.793   3.605  0.7074  0.2280  1.0580
15006TIP3   OH266432   4.572   6.138  13.746 -0.1745 -0.6378 -0.0592
15006TIP3    H166433   4.625   6.179  13.678  0.4941  1.2997  1.5722
15006TIP3    H266434   4.575   6.200  13.819 -1.4679 -2.3248  1.4717
15007TIP3   OH266435   5.292   5.441  14.129  0.0955  0.1094 -0.0563
15007TIP3    H166436   5.207   5.413  14.163 -1.4496  1.3487 -2.7437
15007TIP3    H266437   5.309   5.525  14.173  0.7678 -0.9132  1.7100
15008TIP3   OH266438   2.193   4.560  17.121  0.2417 -0.9069  0.1689
15008TIP3    H166439   2.200   4.614  17.200 -0.4407 -0.8450  0.1875
15008TIP3    H266440   2.131   4.607  17.065  0.7968 -0.9032 -0.4430
15009TIP3   OH266441   6.405   0.145  16.003  0.4583  0.2244 -1.2193
15009TIP3    H166442   6.440   0.192  16.078 -1.8380  0.5162 -0.3104
15009TIP3    H266443   6.447   0.059  16.007 -1.9588 -0.9274  2.2921
15010TIP3   OH266444   5.724   4.555  16.442  0.8660 -0.0138 -0.6050
15010TIP3    H166445   5.732   4.508  16.525  0.4916  1.7304  0.4434
15010TIP3    H266446   5.782   4.630  16.451 -0.3541  1.0315 -1.3187
15011TIP3   OH266447   2.820   6.598  16.284  0.1176  0.0415  0.2531
15011TIP3    H166448   2.843   6.672  16.340  1.6198 -1.7878  2.1344
15011TIP3    H266449   2.766   6.542  16.340  0.9930 -1.4332 -0.3790
15012TIP3   OH266450   4.704   4.970  10.691  0.3233 -0.4337 -0.3490
15012TIP3    H166451   4.780   4.941  10.640  0.7896 -1.6046  0.9711
15012TIP3    H266452   4.633   4.913  10.662  0.0721  0.2553 -1.1359
15013TIP3   OH266453   1.646   6.472   2.535 -0.3069 -0.2296  0.5813
15013TIP3    H166454   1.720   6.445   2.481  0.5233  3.1488 -0.1109
15013TIP3    H266455   1.686   6.509   2.614 -1.1819  1.7776  0.1333
15014TIP3   OH266456   1.534   6.237   5.138 -0.7875  0.1757 -0.0831
15014TIP3    H166457   1.440   6.226   5.123 -1.0567  0.3204  1.4356
15014TIP3    H266458   1.569   6.148   5.140 -1.0450  0.0848  0.3400
15015TIP3   OH266459   0.405   2.421  15.309  0.4894  0.2516  0.2294
15015TIP3    H166460   0.489   2.378  15.323  0.2930  0.2831  1.6070
15015TIP3    H266461   0.340   2.355  15.333  0.1128  0.1040 -1.1868
15016TIP3   OH266462   2.974   5.401  12.569 -0.3010 -0.4160  0.3981
15016TIP3    H166463   2.903   5.357  12.521  0.5993 -0.4820 -0.8987
15016TIP3    H266464   2.995   5.478  12.516  1.9668 -1.4809 -0.3547
15017TIP3   OH266465   0.468   0.834   1.047 -0.4241  0.5200 -0.6333
15017TIP3    H166466   0.551   0.789   1.029 -1.8155 -1.8822 -1.2111
15017TIP3    H266467   0.466   0.906   0.984  1.2267  0.6357 -0.5829
15018TIP3   OH266468   3.592   6.096  17.092  0.2242  0.0176  0.2143
15018TIP3    H166469   3.546   6.131  17.016  1.8492  1.6758 -0.0209
15018TIP3    H266470   3.548   6.135  17.167 -0.2304 -0.2034  0.0614
15019TIP3   OH266471   4.607   1.071   6.274 -0.2644  0.2670 -0.0867
15019TIP3    H166472   4.586   1.077   6.181 -0.2349  0.2549 -0.0938
15019TIP3    H266473   4.635   1.160   6.298 -1.1285  0.4910  0.1168
15020TIP3   OH266474   0.826   1.439  16.520  0.1933 -0.0748  0.4721
15020TIP3    H166475   0.734   1.413  16.526  0.1694  0.4466  3.0692
15020TIP3    H266476   0.867   1.368  16.470 -1.7042 -0.0072 -1.2613
15021TIP3   OH266477   1.531   1.419   2.456  0.4218  0.4087  0.8729
15021TIP3    H166478   1.535   1.364   2.378 -2.4708 -0.8780  1.5603
15021TIP3    H266479   1.575   1.368   2.524 -0.5168 -0.2044  1.0269
15022TIP3   OH266480   3.135   2.966   1.989  0.5649  0.4111  0.1866
15022TIP3    H166481   3.141   2.907   2.064  0.5365  2.3434  1.7530
15022TIP3    H266482   3.209   2.943   1.934  1.5777  0.1035  1.6569
15023TIP3   OH266483   5.169   4.491   5.683 -0.3963 -0.4419  0.0106
15023TIP3    H166484   5.239   4.468   5.744  0.7239 -0.2379 -1.1692
15023TIP3    H266485   5.106   4.540   5.735  0.1336 -1.0040  1.1865
15024TIP3   OH266486   3.492   1.513   0.257 -0.2056 -0.2180 -0.3667
15024TIP3    H166487   3.532   1.463   0.328  2.1829  3.2758  0.9101
15024TIP3    H266488   3.402   1.483   0.253  0.6963 -3.3754  1.3869
15025TIP3   OH266489   5.325   5.140   1.129 -0.3579  0.2175  0.2093
15025TIP3    H166490   5.394   5.076   1.147 -0.0205  0.4879 -0.1170
15025TIP3    H266491   5.295   5.117   1.041 -0.6772  0.1040  0.3499
15026TIP3   OH266492   1.285   4.591  14.940  0.0708 -0.0049 -0.1756
15026TIP3    H166493   1.234   4.619  15.016  0.3150  0.4452 -0.1805
15026TIP3    H266494   1.363   4.549  14.977  0.8958  1.5021 -0.1819
15027TIP3   OH266495   2.093   1.309  14.224 -0.1995  0.1312  0.1842
15027TIP3    H166496   2.124   1.309  14.315 -0.1167  0.0054  0.1555
15027TIP3    H266497   2.148   1.243  14.181  0.3160  0.7804 -0.1511
15028TIP3   OH266498   5.930   2.820  14.470  0.5569 -0.4733 -0.5265
15028TIP3    H166499   5.990   2.758  14.511 -0.6635 -0.8209  0.7797
15028TIP3    H266500   5.983   2.899  14.456  1.2823 -0.7338  0.7055
15029TIP3   OH266501   1.185   0.478   0.739 -0.0240 -0.6885  0.0491
15029TIP3    H166502   1.146   0.554   0.696 -1.0465 -0.2657  1.6491
15029TIP3    H266503   1.275   0.475   0.708 -0.1243  0.8916 -0.3968
15030TIP3   OH266504   5.454   0.465   4.162  0.0213 -0.3807  0.0518
15030TIP3    H166505   5.415   0.439   4.079  1.8593  0.4302 -1.0877
15030TIP3    H266506   5.491   0.385   4.198  0.1556 -0.5249 -0.4138
15031TIP3   OH266507   2.454   6.070  14.054  0.0026  0.4896  0.4670
15031TIP3    H166508   2.375   6.065  14.001  0.6479  0.3541 -0.5097
15031TIP3    H266509   2.441   6.006  14.124 -0.5980  0.2165  0.1094
15032TIP3   OH266510   4.109   4.034  13.264 -0.0240  0.0160 -0.6718
15032TIP3    H166511   4.025   4.032  13.311 -0.3493 -0.2858 -1.2507
15032TIP3    H266512   4.149   3.949  13.283 -0.3525 -0.2853 -1.2654
15033TIP3   OH266513   6.110   5.570   4.430 -0.0583 -0.7485 -0.1456
15033TIP3    H166514   6.127   5.478   4.409 -2.5478 -1.3023  0.1189
15033TIP3    H266515   6.037   5.567   4.493 -0.4168  1.4183 -0.4296
15034TIP3   OH266516   1.001   5.748  11.674  0.0950  0.3895  1.2263
15034TIP3    H166517   1.049   5.823  11.710 -0.0942  0.3053  1.6546
15034TIP3    H266518   0.919   5.786  11.640  1.5784  0.9680 -1.9372
15035TIP3   OH266519   1.791   1.109   2.680  0.3016  0.9344 -0.1592
15035TIP3    H166520   1.840   1.115   2.598  1.2526  1.6818  0.4501
15035TIP3    H266521   1.708   1.154   2.662  0.9881  2.1423 -0.3690
15036TIP3   OH266522   5.419   3.069   2.537 -0.0388 -0.3268  0.2296
15036TIP3    H166523   5.506   3.068   2.575 -0.9091 -2.9174  2.3363
15036TIP3    H266524   5.422   3.004   2.467 -0.3745 -0.6742  0.5366
15037TIP3   OH266525   3.996   3.446   1.841  0.2785  0.8078  0.5003
15037TIP3    H166526   3.948   3.401   1.772 -0.4299 -1.3276  2.3328
15037TIP3    H266527   3.931   3.503   1.882  0.1551  0.4061  0.8553
15038TIP3   OH266528   0.348   0.003  15.135 -0.3361  0.4912 -0.0496
15038TIP3    H166529   0.320  -0.080  15.096  0.4501  0.2578 -0.1296
15038TIP3    H266530   0.340   0.067  15.065 -1.3614  0.5729  0.1346
15039TIP3   OH266531   4.412   0.539  13.074 -0.6645  0.0761 -0.0772
15039TIP3    H166532   4.324   0.507  13.093 -0.2481 -0.6427  0.6499
15039TIP3    H266533   4.417   0.624  13.119  0.1718 -1.4226  2.7417
15040TIP3   OH266534   4.912   0.289   0.953  0.8409  0.2602  0.4108
15040TIP3    H166535   4.882   0.199   0.940 -0.9869  0.6161  1.8167
15040TIP3    H266536   4.962   0.287   1.035  0.3251  0.5968  0.7444
15041TIP3   OH266537   0.623   6.440  15.074  0.2390 -0.6774 -0.5842
15041TIP3    H166538   0.670   6.513  15.115 -1.1089  0.8717 -1.7253
15041TIP3    H266539   0.671   6.425  14.992  0.8075 -1.4117 -0.1230
15042TIP3   OH266540   1.943   2.823  14.280  0.0382  0.1099  0.0974
15042TIP3    H166541   1.884   2.747  14.275  1.6355 -1.0673 -1.5468
15042TIP3    H266542   1.917   2.868  14.360 -3.3343 -0.1771 -0.7482
15043TIP3   OH266543   2.693   0.562   3.623 -0.0146  0.3220  0.0840
15043TIP3    H166544   2.732   0.608   3.549 -1.1609  1.8665  0.4207
15043TIP3    H266545   2.623   0.619   3.653 -0.5634 -1.0027  1.4033
15044TIP3   OH266546   5.932   2.057  12.250 -0.4489  0.3325  0.4028
15044TIP3    H166547   5.867   2.019  12.190 -0.2365 -0.2943  0.5642
15044TIP3    H266548   6.012   2.008  12.232 -0.2124  0.6073  0.7206
15045TIP3   OH266549   1.062   0.289  13.769  0.7263  0.1181  0.0521
15045TIP3    H166550   1.011   0.236  13.708 -0.2644 -0.5629  1.4584
15045TIP3    H266551   1.123   0.228  13.809  0.9637  0.4491  0.1981
15046TIP3   OH266552   3.058   2.556   2.186 -0.6656  0.1059 -0.0462
15046TIP3    H166553   3.052   2.643   2.226  1.8449 -0.4554  1.6339
15046TIP3    H266554   3.127   2.564   2.120  2.6084 -1.5983  3.0089
15047TIP3   OH266555   4.259   6.720  16.902  0.1001 -0.4878 -0.0460
15047TIP3    H166556   4.355   6.725  16.909  0.1900 -1.0551 -0.9064
15047TIP3    H266557   4.234   6.649  16.961 -0.0337  1.3343  2.1742
15048TIP3   OH266558   0.165   4.978  15.661  0.2891  0.2271 -0.4855
15048TIP3    H166559   0.163   5.071  15.642  0.7976  0.8003  2.1055
15048TIP3    H266560   0.124   4.937  15.584  1.1016  2.4550 -2.1693
15049TIP3   OH266561   5.347   2.657  16.757 -0.5637 -0.9128  0.5015
15049TIP3    H166562   5.389   2.703  16.830  1.9231 -0.9913 -0.8077
15049TIP3    H266563   5.332   2.724  16.691 -1.6038 -1.0759  0.5694
15050TIP3   OH266564   3.444   0.256  15.040 -0.3492  0.0933  0.3775
15050TIP3    H166565   3.352   0.267  15.065  0.0012  0.6012  1.5014
15050TIP3    H266566   3.485   0.212  15.115  0.2884 -0.2936 -0.1871
15051TIP3   OH266567   1.006   0.244  11.736  0.5550  0.1669 -0.2722
15051TIP3    H166568   0.950   0.176  11.773  2.7764 -0.9161  1.2792
15051TIP3    H266569   0.955   0.324  11.744 -1.0820 -0.8975  0.3170
15052TIP3   OH266570   3.790   2.299   2.371 -0.5201 -0.0389  0.5130
15052TIP3    H166571   3.743   2.346   2.439 -2.6069 -0.1834 -0.7962
15052TIP3    H266572   3.803   2.211   2.408  1.6412  0.9261  2.1638
15053TIP3   OH266573   5.995   0.659   5.718 -0.2826 -0.1434  0.0721
15053TIP3    H166574   6.007   0.608   5.798 -1.0185 -1.5879 -0.7149
15053TIP3    H266575   6.075   0.646   5.668 -1.2906 -2.2572 -1.0543
15054TIP3   OH266576   5.543   6.259   4.264 -0.4559  0.5931 -0.2487
15054TIP3    H166577   5.531   6.185   4.205 -0.2042  1.2519 -1.1326
15054TIP3    H266578   5.530   6.222   4.351 -1.6634 -0.2018 -0.7558
15055TIP3   OH266579   2.959   2.474  10.697  0.7134 -0.0926  0.6601
15055TIP3    H166580   3.034   2.417  10.714  2.0045  1.6335  0.9002
15055TIP3    H266581   2.994   2.563  10.707 -1.6120  0.7260  1.7960
15056TIP3   OH266582   2.825   0.277   0.619  0.5057  0.0790  0.2963
15056TIP3    H166583   2.861   0.364   0.601 -0.4381  0.8303  1.8984
15056TIP3    H266584   2.752   0.268   0.557 -0.0333  0.8727  0.7931
15057TIP3   OH266585   3.529   0.311   3.882 -0.4723 -0.7181  0.5524
15057TIP3    H166586   3.559   0.380   3.941  2.8140  0.1715 -2.0221
15057TIP3    H266587   3.569   0.231   3.916 -0.7072 -0.6392  1.0143
15058TIP3   OH266588   0.694   3.049  12.579  0.2283  0.0234  0.4407
15058TIP3    H166589   0.610   3.041  12.534  1.5723 -2.1789 -1.8253
15058TIP3    H266590   0.686   2.991  12.655 -0.2224 -0.3951  0.0782
15059TIP3   OH266591   2.293   1.682   3.203 -0.1771 -0.3276  0.3017
15059TIP3    H166592   2.269   1.774   3.209 -0.4014 -0.3227 -0.4825
15059TIP3    H266593   2.388   1.681   3.210  0.2518  0.4169 -3.7464
15060TIP3   OH266594   2.442   6.106   1.632  0.5056  0.3791 -0.3500
15060TIP3    H166595   2.348   6.117   1.643  0.6489 -0.3058  1.8353
15060TIP3    H266596   2.481   6.179   1.681  1.1168  0.2553 -0.6438
15061TIP3   OH266597   4.562   0.075   2.243 -0.0151 -0.7646 -0.5426
15061TIP3    H166598   4.497   0.107   2.180  0.6693 -1.6093 -1.7073
15061TIP3    H266599   4.560   0.139   2.314 -0.9143  0.1370 -1.3546
15062TIP3   OH266600   3.372   4.000  15.592 -0.3260  0.3473 -0.3428
15062TIP3    H166601   3.295   4.019  15.644  0.6019 -0.6974  1.4563
15062TIP3    H266602   3.358   3.912  15.558  0.5428 -0.2946  0.9109
15063TIP3   OH266603   6.572   5.070  15.620 -0.0152  0.1824 -0.1149
15063TIP3    H166604   6.498   5.104  15.569  0.7912  1.4177 -0.4979
15063TIP3    H266605   6.641   5.055  15.555  0.9801  1.6400  0.5558
15064TIP3   OH266606   0.039   2.906  15.949  0.7947 -0.2523  0.1495
15064TIP3    H166607  -0.011   2.932  16.026 -1.4849  0.0735 -1.4015
15064TIP3    H266608   0.031   2.811  15.946 -0.0833 -0.1674 -0.3170
15065TIP3   OH266609   2.894   2.563   3.258  0.9815 -0.0693  0.0026
15065TIP3    H166610   2.942   2.636   3.218  1.3367 -1.1905 -1.6586
15065TIP3    H266611   2.802   2.582   3.240  0.8222  1.5311  2.2627
15066TIP3   OH266612   6.706   5.296   3.921 -0.0448 -0.2255 -0.0754
15066TIP3    H166613   6.658   5.359   3.868  0.5909  0.4392  0.1377
15066TIP3    H266614   6.758   5.246   3.857 -2.4258 -2.2433 -0.5347
15067TIP3   OH266615   4.560   4.266   1.400  0.1661  0.3690  0.4684
15067TIP3    H166616   4.489   4.330   1.407 -0.4211 -0.2488  0.1668
15067TIP3    H266617   4.592   4.276   1.310 -0.0563  0.0947  0.3601
15068TIP3   OH266618   2.680   1.765   2.280  0.4315 -0.6124 -0.4883
15068TIP3    H166619   2.621   1.841   2.272  0.4998 -0.5093 -0.0520
15068TIP3    H266620   2.623   1.694   2.309  0.8213 -0.0708  1.7008
15069TIP3   OH266621   4.080   1.043   0.224 -0.2923  0.8702  0.5527
15069TIP3    H166622   4.022   0.967   0.218 -0.8656  1.2069  1.6931
15069TIP3    H266623   4.128   1.031   0.306 -0.4029  1.7484  0.7535
15070TIP3   OH266624   5.252   4.092  11.547 -0.1084 -0.6147 -0.0793
15070TIP3    H166625   5.214   4.004  11.544  0.7879 -1.0114  0.0647
15070TIP3    H266626   5.251   4.122  11.456 -0.5275 -0.7277 -0.1102
15071TIP3   OH266627   2.389   4.675   2.921 -0.0837  0.4575  0.2929
15071TIP3    H166628   2.326   4.679   2.849 -0.8282 -0.0888  0.9059
15071TIP3    H266629   2.363   4.746   2.980  0.0913  0.4584  0.3686
15072TIP3   OH266630   5.483   5.554  12.549 -0.2056  0.9085  0.2331
15072TIP3    H166631   5.434   5.635  12.558  0.7262  1.5800 -0.6949
15072TIP3    H266632   5.527   5.561  12.465 -1.4341 -1.2951 -0.6348
15073TIP3   OH266633   5.455   2.454   1.960 -0.0408 -0.3230 -0.0672
15073TIP3    H166634   5.496   2.419   2.039 -0.9904 -0.2049  0.4857
15073TIP3    H266635   5.367   2.416   1.960 -0.4871  0.6945 -0.3801
15074TIP3   OH266636   1.014   2.400   2.346 -0.3860 -0.1171 -0.2591
15074TIP3    H166637   0.974   2.459   2.281 -1.3185  2.8293  2.8452
15074TIP3    H266638   0.942   2.346   2.377 -0.5224  0.4266  0.3664
15075TIP3   OH266639   5.610   1.045  15.723 -0.0393  0.7854  0.5854
15075TIP3    H166640   5.686   0.991  15.747 -1.3083 -0.8348  1.0305
15075TIP3    H266641   5.571   1.000  15.648 -0.5090  1.6722  0.2876
15076TIP3   OH266642   3.694   0.532   3.295  0.2590  0.1122  0.4890
15076TIP3    H166643   3.774   0.576   3.268  0.1282 -0.3355 -0.6441
15076TIP3    H266644   3.709   0.512   3.387  0.8842  1.2603  0.6537
15077TIP3   OH266645   5.439   1.387  11.572 -0.8268 -0.4266 -0.1362
15077TIP3    H166646   5.462   1.304  11.530  1.0885  0.3282 -0.6326
15077TIP3    H266647   5.433   1.450  11.499 -2.6475 -0.2008  0.1942
15078TIP3   OH266648   5.100   1.274  15.431  0.0033 -0.5493  0.1060
15078TIP3    H166649   5.097   1.312  15.519  0.5164  0.0186 -0.1199
15078TIP3    H266650   5.108   1.349  15.372  1.1052 -1.0042 -0.3327
15079TIP3   OH266651   4.043   1.840   5.666  0.7963 -0.0803  0.2058
15079TIP3    H166652   4.056   1.835   5.571  3.9177  1.7833  0.4684
15079TIP3    H266653   3.965   1.894   5.676  0.6186 -0.0242 -1.2902
15080TIP3   OH266654   3.373   4.133  14.141  0.7021  0.4298 -0.8983
15080TIP3    H166655   3.305   4.133  14.074  1.6462 -0.0191 -1.8904
15080TIP3    H266656   3.408   4.043  14.138  1.6299  0.7800 -0.7340
15081TIP3   OH266657   4.733   1.092  13.685 -0.0803 -0.4394  0.0068
15081TIP3    H166658   4.644   1.124  13.673 -0.5727 -1.2374  1.4239
15081TIP3    H266659   4.787   1.171  13.687 -0.6806  0.0196 -1.3797
15082TIP3   OH266660   2.862   5.293  12.931 -0.4246 -0.8991 -0.7317
15082TIP3    H166661   2.931   5.357  12.915 -1.2124 -0.0237 -0.7062
15082TIP3    H266662   2.804   5.301  12.855 -1.1836 -0.6990 -0.1418
15083TIP3   OH266663   3.496   4.297   0.112  0.0458  0.8119  0.3035
15083TIP3    H166664   3.480   4.391   0.104  1.0404  0.9763  0.2446
15083TIP3    H266665   3.548   4.288   0.192 -1.1653  0.1743  1.0431
15084TIP3   OH266666   3.679   3.146   5.519  0.1578 -0.0735  0.5701
15084TIP3    H166667   3.607   3.170   5.578 -1.0833  1.3244 -1.4328
15084TIP3    H266668   3.700   3.227   5.473  0.9467 -1.1614 -1.0397
15085TIP3   OH266669   1.655   5.562  14.371 -0.2020  0.2574 -0.2659
15085TIP3    H166670   1.631   5.634  14.429 -1.3953 -1.0826  0.9248
15085TIP3    H266671   1.634   5.595  14.283 -0.4165  1.4849  0.2271
15086TIP3   OH266672   1.130   4.896   0.084 -1.0092  0.0558  0.3659
15086TIP3    H166673   1.168   4.881   0.170 -1.1288  2.4338  0.8597
15086TIP3    H266674   1.110   4.808   0.051  0.9225 -0.9889  1.8845
15087TIP3   OH266675   1.088   3.770   0.836 -0.5031 -0.6759 -0.0695
15087TIP3    H166676   1.045   3.689   0.809  4.2727 -3.4657  0.1477
15087TIP3    H266677   1.125   3.805   0.755  1.6074 -1.3740  0.5760
15088TIP3   OH266678   5.792   3.232  12.999 -0.3366 -0.3202 -0.0607
15088TIP3    H166679   5.725   3.198  12.940  0.3312  0.6680 -1.4298
15088TIP3    H266680   5.874   3.213  12.954  0.0775  2.5217 -0.6027
15089TIP3   OH266681   4.878   1.624  14.856  0.3869  0.4120  0.1286
15089TIP3    H166682   4.821   1.630  14.932 -0.6756 -0.2461 -0.6103
15089TIP3    H266683   4.845   1.690  14.796  0.7730  0.4317 -0.0647
15090TIP3   OH266684   3.935   6.311   4.310  0.0479  0.7397 -0.2622
15090TIP3    H166685   4.030   6.302   4.302 -0.0413  0.2365 -0.7977
15090TIP3    H266686   3.908   6.354   4.229 -0.1827  0.8872 -0.1076
15091TIP3   OH266687   3.184   2.775  11.892 -0.5312  0.6835  0.0971
15091TIP3    H166688   3.101   2.749  11.852 -1.0991 -0.1627  1.8056
15091TIP3    H266689   3.189   2.725  11.973  2.2447 -0.2248 -0.5740
15092TIP3   OH266690   4.932   4.055   2.951 -0.2384 -0.7873  0.0474
15092TIP3    H166691   4.984   4.099   3.018  0.8066  2.4515 -2.7317
15092TIP3    H266692   4.848   4.101   2.952 -0.3053 -0.8934 -0.6682
15093TIP3   OH266693   0.448   1.264   2.936  0.1430 -0.7130  0.2012
15093TIP3    H166694   0.542   1.277   2.939 -0.0313  1.1340 -1.1622
15093TIP3    H266695   0.413   1.321   3.004 -0.1142  0.2143 -0.6903
15094TIP3   OH266696   0.435   0.715   0.064  0.1308  0.2724 -0.5397
15094TIP3    H166697   0.433   0.622   0.085  0.9567  0.4006  0.1138
15094TIP3    H266698   0.477   0.720  -0.022 -0.1086  0.0353 -0.6713
15095TIP3   OH266699   4.051   3.375  11.567 -0.7860 -0.8103 -0.0324
15095TIP3    H166700   4.113   3.411  11.504  0.7139 -1.7772  0.8660
15095TIP3    H266701   3.994   3.448  11.589  0.1780  0.1616 -0.6896
15096TIP3   OH266702   1.130   5.874   4.256 -0.3744 -0.0887 -0.2230
15096TIP3    H166703   1.208   5.881   4.201  0.3082  0.9566  0.8560
15096TIP3    H266704   1.136   5.949   4.316 -1.8661 -0.3742  0.2979
15097TIP3   OH266705   0.155   3.089  16.844  0.2107  0.3297 -0.1546
15097TIP3    H166706   0.155   3.010  16.899  0.9254 -0.9336 -1.9232
15097TIP3    H266707   0.127   3.159  16.903  0.0634 -1.1500  1.5859
15098TIP3   OH266708   2.620   5.937  10.297  0.1140 -0.0680 -0.2311
15098TIP3    H166709   2.662   6.011  10.253  1.5601 -0.3109  0.7353
15098TIP3    H266710   2.581   5.976  10.376 -0.1187 -0.1363 -0.3118
15099TIP3   OH266711   0.506   6.222  16.695 -0.4932 -0.8403 -0.0846
15099TIP3    H166712   0.498   6.165  16.618 -0.7286 -0.8339 -0.0615
15099TIP3    H266713   0.442   6.188  16.757 -2.5360  1.0723 -1.0633
15100TIP3   OH266714   6.491   2.268  11.991  0.0566  0.0001 -0.2196
15100TIP3    H166715   6.554   2.197  11.980 -1.2964 -1.2942  0.1789
15100TIP3    H266716   6.486   2.281  12.086  1.1365  1.4320 -0.3316
15101TIP3   OH266717   3.815   2.612  12.542  0.6707  0.0561 -0.1938
15101TIP3    H166718   3.742   2.657  12.500 -0.7132 -0.8836  1.1190
15101TIP3    H266719   3.860   2.680  12.591  0.3221  0.5438 -0.5492
15102TIP3   OH266720   6.785   6.519   4.368  0.1929  0.0354  0.2643
15102TIP3    H166721   6.805   6.428   4.347  0.0895  0.5430 -2.2284
15102TIP3    H266722   6.690   6.525   4.358  0.0265  0.1055  1.7870
15103TIP3   OH266723   0.853   5.857   4.196  0.0234 -0.0603  0.4029
15103TIP3    H166724   0.880   5.947   4.175 -1.0214  0.3822  0.8961
15103TIP3    H266725   0.911   5.831   4.267  1.1104 -0.2153 -0.5162
15104TIP3   OH266726   1.764   0.675   1.227 -0.2717  0.1869 -0.2185
15104TIP3    H166727   1.809   0.617   1.166 -1.5473  0.4166 -1.4084
15104TIP3    H266728   1.749   0.621   1.305 -2.0437 -1.3373 -1.5556
15105TIP3   OH266729   1.734   4.935  11.791  0.1204 -0.1327  0.0450
15105TIP3    H166730   1.697   4.894  11.713  1.2197  1.1637 -1.1906
15105TIP3    H266731   1.825   4.906  11.793  0.5275  1.1060 -0.0559
15106TIP3   OH266732   4.289   3.326   2.908  0.0488  0.1394  0.8461
15106TIP3    H166733   4.283   3.345   2.814  0.0340 -0.0903  0.8003
15106TIP3    H266734   4.340   3.398   2.944 -0.1886  0.3783  0.7062
15107TIP3   OH266735   4.126   0.174  14.248  0.5309 -0.1244  0.1892
15107TIP3    H166736   4.138   0.156  14.155 -1.5333  1.6352 -0.4633
15107TIP3    H266737   4.031   0.172  14.261  0.7101  1.3475  1.8993
15108TIP3   OH266738   0.745   5.928  12.588 -0.4526  0.3472  0.6157
15108TIP3    H166739   0.728   5.990  12.517  1.1842 -0.4216 -0.4885
15108TIP3    H266740   0.798   5.978  12.651  1.4514 -0.0832 -0.5953
15109TIP3   OH266741   1.217   4.496  15.212 -0.1089 -0.0559 -0.7622
15109TIP3    H166742   1.129   4.529  15.194 -0.6940 -0.6430  0.8767
15109TIP3    H266743   1.229   4.424  15.151 -0.9746 -0.2926 -0.6648
15110TIP3   OH266744   5.597   5.831  15.846 -0.5272 -0.1634  0.5725
15110TIP3    H166745   5.640   5.910  15.876  1.0863 -1.6131  2.1934
15110TIP3    H266746   5.657   5.795  15.779 -1.8226  0.5915 -1.0153
15111TIP3   OH266747   5.573   5.897  16.524 -0.1792 -0.2812 -0.3390
15111TIP3    H166748   5.526   5.923  16.445  0.8963 -0.0516 -0.9123
15111TIP3    H266749   5.551   5.965  16.588 -2.2422 -1.2646  0.0329
15112TIP3   OH266750   4.811   1.450  16.958  0.2848 -0.2530  0.1102
15112TIP3    H166751   4.800   1.355  16.955  0.9251 -0.3325  0.2207
15112TIP3    H266752   4.891   1.467  16.908  0.9347  0.0930  1.2374
15113TIP3   OH266753   0.955   6.260   4.736 -0.1325  0.0650 -0.0885
15113TIP3    H166754   0.940   6.350   4.707  0.7470  0.3690  0.4081
15113TIP3    H266755   0.920   6.206   4.665  0.2400  0.8004 -0.8401
15114TIP3   OH266756   3.390   1.688   4.096 -0.3950  0.0114 -0.2656
15114TIP3    H166757   3.480   1.703   4.124 -1.1748  2.0335  1.3455
15114TIP3    H266758   3.386   1.722   4.007 -0.0070  1.7261  0.3392
15115TIP3   OH266759   3.242   0.566   9.880 -0.3583 -0.0544 -0.4595
15115TIP3    H166760   3.327   0.607   9.894 -0.6118  0.5853 -0.7562
15115TIP3    H266761   3.208   0.550   9.968  0.7640 -1.7943 -0.3343
15116TIP3   OH266762   5.171   0.947   0.098 -0.2149 -0.0073  0.1496
15116TIP3    H166763   5.195   0.960   0.190  0.0721  2.0231 -0.1909
15116TIP3    H266764   5.121   0.865   0.097 -0.6982  0.2481  2.1900
15117TIP3   OH266765   4.374   4.206   5.927  0.3442 -0.0619  0.1787
15117TIP3    H166766   4.283   4.233   5.945 -0.0577 -1.3772  0.1594
15117TIP3    H266767   4.418   4.287   5.903 -1.5387  0.1771 -2.7479
15118TIP3   OH266768   2.857   4.163   4.885 -0.3456 -0.0237  0.4335
15118TIP3    H166769   2.951   4.178   4.890 -0.3898  0.1915  0.6199
15118TIP3    H266770   2.838   4.107   4.961 -0.3248 -0.2909  0.2421
15119TIP3   OH266771   4.155   5.720  16.517  0.1591  0.0875  0.1969
15119TIP3    H166772   4.110   5.671  16.585  0.5913  1.2785  1.3695
15119TIP3    H266773   4.236   5.672  16.501 -0.7853 -1.2038 -0.8008
15120TIP3   OH266774   6.279   1.742  14.046 -0.4890 -0.4204  0.4251
15120TIP3    H166775   6.265   1.827  14.004 -1.6307 -1.1518 -0.7050
15120TIP3    H266776   6.337   1.695  13.985 -0.3199 -0.6618  0.7719
15121TIP3   OH266777   1.056   1.704  13.826 -0.3980 -0.0010 -0.2205
15121TIP3    H166778   1.087   1.790  13.797  0.1704 -0.5615 -1.3212
15121TIP3    H266779   1.135   1.651  13.832 -0.8610 -0.7432 -0.6081
15122TIP3   OH266780   1.153   6.181  14.226  0.4239  0.1589  0.1774
15122TIP3    H166781   1.116   6.134  14.152 -0.4103  1.6862 -0.3997
15122TIP3    H266782   1.086   6.245  14.250  0.8146 -0.1085  2.0579
15123TIP3   OH266783   2.121   5.576   4.454 -0.1488  0.3521  0.0181
15123TIP3    H166784   2.119   5.622   4.369 -0.9488  1.9270  0.8610
15123TIP3    H266785   2.034   5.591   4.491  0.7315  1.0916  1.8430
15124TIP3   OH266786   1.692   4.893  13.772  0.1229  0.1647 -0.5874
15124TIP3    H166787   1.767   4.951  13.757  0.7357 -0.7156 -1.0197
15124TIP3    H266788   1.729   4.805  13.768 -1.2621 -0.3429 -2.6389
15125TIP3   OH266789   1.766   6.631   5.724 -0.0604  0.8818 -0.4344
15125TIP3    H166790   1.724   6.637   5.810  0.1172 -0.6768 -0.2246
15125TIP3    H266791   1.848   6.586   5.741  0.0166  0.6519 -1.4122
15126TIP3   OH266792   0.337   2.337  13.260 -0.3551 -0.2826 -0.8392
15126TIP3    H166793   0.403   2.400  13.289  0.0123  0.1123 -2.4941
15126TIP3    H266794   0.310   2.292  13.340  0.6775  0.7376  0.0989
15127TIP3   OH266795   4.319   2.222   0.691  0.0607  0.3342 -0.1385
15127TIP3    H166796   4.296   2.145   0.639 -0.5371 -0.8433  1.8154
15127TIP3    H266797   4.271   2.294   0.650 -1.7601 -0.8787 -0.1891
15128TIP3   OH266798   3.129   1.226  12.774 -0.4955  0.0673  0.0992
15128TIP3    H166799   3.154   1.161  12.840 -0.3274 -0.4355 -0.4578
15128TIP3    H266800   3.203   1.286  12.770  0.5256 -1.2655 -1.3519
15129TIP3   OH266801   5.303   0.146   2.040  0.0306 -0.0380  0.2513
15129TIP3    H166802   5.215   0.147   2.077 -0.3107 -0.3438 -0.5424
15129TIP3    H266803   5.335   0.236   2.051 -0.8344  0.3783 -0.5107
15130TIP3   OH266804   0.500   3.975   4.561 -0.3733 -0.1124 -0.5203
15130TIP3    H166805   0.580   3.922   4.560 -1.0236 -1.1851  1.5364
15130TIP3    H266806   0.529   4.063   4.540  1.6700 -0.1240  2.0289
15131TIP3   OH266807   0.403   3.819   3.319  0.2906 -0.3602  0.1421
15131TIP3    H166808   0.414   3.803   3.225 -2.3186  0.6024 -0.3571
15131TIP3    H266809   0.427   3.911   3.331  0.1894 -0.3605  0.3525
15132TIP3   OH266810   5.899   1.107   0.267 -0.1414 -0.2076 -0.4372
15132TIP3    H166811   5.956   1.183   0.255  0.8090 -0.8469 -0.1348
15132TIP3    H266812   5.837   1.111   0.195  0.8193  0.0584 -1.2643
15133TIP3   OH266813   2.354   4.441  13.089  0.2511  0.5326 -0.2388
15133TIP3    H166814   2.428   4.421  13.147 -0.7952 -0.4947  0.7771
15133TIP3    H266815   2.391   4.495  13.020  2.6066 -2.3979 -1.4022
15134TIP3   OH266816   3.115   1.029  15.674  0.0311  0.3843  0.1430
15134TIP3    H166817   3.021   1.044  15.666 -0.1033 -0.7473 -0.5282
15134TIP3    H266818   3.152   1.116  15.692 -0.8122  1.3847 -2.5794
15135TIP3   OH266819   3.147   2.434  15.846  0.0918 -0.6200 -0.0636
15135TIP3    H166820   3.225   2.455  15.793  0.8399 -1.7988  0.5499
15135TIP3    H266821   3.102   2.366  15.795 -1.1968  0.8899 -1.0037
15136TIP3   OH266822   1.997   2.319  14.486  0.2275 -0.5762 -0.0232
15136TIP3    H166823   2.035   2.390  14.537  1.3075 -1.9989  1.2093
15136TIP3    H266824   1.911   2.304  14.525  0.5055 -0.7616  0.5247
15137TIP3   OH266825   1.294   4.651   0.064 -0.5611  0.0159 -0.1603
15137TIP3    H166826   1.316   4.566   0.027  1.8586 -0.1613  1.5532
15137TIP3    H266827   1.239   4.631   0.140  0.9335 -0.1336  0.9111
15138TIP3   OH266828   0.749   2.304   0.069 -0.5815  0.3535  0.7157
15138TIP3    H166829   0.734   2.258  -0.014  0.1848  0.4430  0.5219
15138TIP3    H266830   0.727   2.240   0.137  1.9028 -0.8165  0.4690
15139TIP3   OH266831   1.480   2.222   4.985  0.5249 -0.0753 -0.6765
15139TIP3    H166832   1.478   2.229   4.890  0.1651 -0.4805 -0.7053
15139TIP3    H266833   1.566   2.185   5.005  1.6969  2.6173 -0.6436
15140TIP3   OH266834   4.143   6.081  11.799  0.2609  0.3309 -0.4319
15140TIP3    H166835   4.100   6.030  11.731 -0.2961 -1.3269  1.1135
15140TIP3    H266836   4.070   6.120  11.849  0.6384  0.6268 -0.1099
15141TIP3   OH266837   3.527   6.673   1.806  0.2239 -0.4229 -0.0139
15141TIP3    H166838   3.462   6.743   1.803  0.3254 -0.3240  0.1061
15141TIP3    H266839   3.505   6.622   1.885  0.1674 -0.5101 -0.0854
15142TIP3   OH266840   2.822   4.625  13.421 -0.3402 -0.2685 -0.6538
15142TIP3    H166841   2.911   4.657  13.405 -0.8934  1.1376 -0.9543
15142TIP3    H266842   2.777   4.634  13.337 -0.8329 -0.8091 -0.4593
15143TIP3   OH266843   2.026   2.532   3.027 -0.2232  0.0258 -0.0849
15143TIP3    H166844   2.005   2.525   2.934 -0.0986  0.8558 -0.1758
15143TIP3    H266845   1.941   2.527   3.071 -0.2691 -0.5211 -0.2284
15144TIP3   OH266846   0.057   3.736   5.241 -0.7537  0.2641  0.1714
15144TIP3    H166847   0.129   3.708   5.297 -0.3898  2.3432  0.7537
15144TIP3    H266848   0.087   3.719   5.152  1.1176  2.5720  0.3281
15145TIP3   OH266849   2.996   6.322  16.877  0.5406 -0.1074  0.3115
15145TIP3    H166850   2.994   6.261  16.803  2.0772  0.1717  0.0122
15145TIP3    H266851   2.978   6.267  16.953  0.0862 -0.6072 -0.1482
15146TIP3   OH266852   1.593   5.713   0.725  0.3536 -0.0395  0.1277
15146TIP3    H166853   1.658   5.775   0.694  2.5848 -1.3245  2.1309
15146TIP3    H266854   1.636   5.666   0.796 -1.8499 -2.7169 -0.2265
15147TIP3   OH266855   2.095   0.284  11.662  0.1483  0.5996  0.5892
15147TIP3    H166856   2.146   0.347  11.714 -1.2480  2.1169  0.1639
15147TIP3    H266857   2.008   0.286  11.702 -0.7935  1.3642 -1.4389
15148TIP3   OH266858   0.136   1.638  13.953  0.8121  0.5040  0.0459
15148TIP3    H166859   0.209   1.608  14.007  0.4710  1.5145  1.0810
15148TIP3    H266860   0.075   1.678  14.014 -0.9387 -0.9056 -0.7197
15149TIP3   OH266861   2.405   3.653   2.674  0.4085  0.1647 -0.5684
15149TIP3    H166862   2.381   3.628   2.764  0.2011  3.2235  0.2803
15149TIP3    H266863   2.489   3.610   2.659  1.6315  1.5235  2.0264
15150TIP3   OH266864   2.235   5.814   1.605  0.1107  0.0081  0.0478
15150TIP3    H166865   2.247   5.893   1.658 -0.0108  0.6664 -0.8989
15150TIP3    H266866   2.274   5.744   1.657  2.1639  1.0381 -0.0698
15151TIP3   OH266867   3.288   0.383  13.775  0.1117  0.0389  0.4023
15151TIP3    H166868   3.207   0.368  13.727  0.5495 -0.7882 -0.1034
15151TIP3    H266869   3.260   0.393  13.866 -0.4925 -1.1282  0.3641
15152TIP3   OH266870   1.363   3.245   2.191  0.3174 -0.0747 -0.0641
15152TIP3    H166871   1.305   3.185   2.145  0.8617 -0.9552  0.3798
15152TIP3    H266872   1.316   3.329   2.192 -1.1845 -0.9114  0.7787
15153TIP3   OH266873   0.294   4.521   3.467  1.0194 -0.6620  0.1611
15153TIP3    H166874   0.317   4.557   3.382  0.8141 -0.1579  0.3139
15153TIP3    H266875   0.290   4.426   3.453 -1.4157 -0.4331 -0.9917
15154TIP3   OH266876   1.159   1.995  14.269 -0.0955 -0.0858  0.0478
15154TIP3    H166877   1.192   1.945  14.343  0.1680 -2.2177 -1.4627
15154TIP3    H266878   1.126   1.929  14.208  1.0799  1.4942 -2.3948
15155TIP3   OH266879   5.564   5.675  15.110 -0.5261 -0.1529  0.1325
15155TIP3    H166880   5.518   5.592  15.096 -0.4070 -0.0311 -1.0070
15155TIP3    H266881   5.613   5.689  15.029  1.5680 -0.3060  1.3319
15156TIP3   OH266882   0.368   5.048   6.251 -0.2978 -0.6871  0.4181
15156TIP3    H166883   0.307   5.090   6.311  0.4530 -1.8719  2.0390
15156TIP3    H266884   0.444   5.026   6.305  1.8007  1.1749 -1.6583
15157TIP3   OH266885   6.164   6.507  11.237 -0.5498 -0.5480  0.3576
15157TIP3    H166886   6.241   6.524  11.293 -1.1042  2.6218  0.2647
15157TIP3    H266887   6.201   6.488  11.151  0.1871 -1.1205  0.7936
15158TIP3   OH266888   4.146   6.562   5.868 -0.1663  0.0020 -0.6677
15158TIP3    H166889   4.240   6.565   5.854  0.1758 -0.0654  1.4000
15158TIP3    H266890   4.126   6.470   5.883 -1.0124 -0.3658 -3.6994
15159TIP3   OH266891   5.541   1.596  15.856 -0.2944 -0.4244 -0.5702
15159TIP3    H166892   5.621   1.616  15.808  0.0852 -2.4406 -0.8546
15159TIP3    H266893   5.478   1.568  15.790 -0.3662 -1.4188 -0.0985
15160TIP3   OH266894   4.978   0.729  14.951  0.0113  0.0545 -0.0368
15160TIP3    H166895   5.052   0.762  15.001 -0.8915  2.5926 -0.2986
15160TIP3    H266896   4.914   0.701  15.016  0.7960 -1.2249  0.1889
15161TIP3   OH266897   3.780   1.572  16.649 -0.3724 -0.3958 -0.7076
15161TIP3    H166898   3.687   1.559  16.630 -1.3498 -1.1415  3.9431
15161TIP3    H266899   3.818   1.484  16.645 -0.2420 -0.3406 -0.6996
15162TIP3   OH266900   4.468   2.662  11.366  0.1902 -0.3648  0.3597
15162TIP3    H166901   4.457   2.609  11.288 -2.6493  0.4336  0.1702
15162TIP3    H266902   4.421   2.615  11.435 -3.0085  2.1571  0.0140
15163TIP3   OH266903   5.985   4.036  16.904 -0.7144 -0.4657 -0.5987
15163TIP3    H166904   6.030   4.120  16.897 -3.2912  0.7520 -3.3948
15163TIP3    H266905   6.042   3.974  16.859  0.7215 -0.0494  0.6098
15164TIP3   OH266906   1.040   6.522   2.828  0.3972  0.7939  0.0275
15164TIP3    H166907   1.095   6.482   2.760 -0.2411 -1.3026  0.7105
15164TIP3    H266908   1.092   6.515   2.908  0.1060  0.9641  0.2309
15165TIP3   OH266909   1.280   5.795  16.436  0.0551 -0.1201  0.1128
15165TIP3    H166910   1.363   5.840  16.450  0.0848  0.2986 -1.2764
15165TIP3    H266911   1.216   5.865  16.426 -0.5674 -0.4522  1.7260
15166TIP3   OH266912   3.967   6.040  10.682  0.2277  0.6664  0.0791
15166TIP3    H166913   3.937   6.098  10.613  3.7969 -0.8479 -2.8692
15166TIP3    H266914   3.887   5.995  10.712 -1.5672  2.3585 -2.0691
15167TIP3   OH266915   3.942   6.745  15.895  0.4283  0.0058  0.1581
15167TIP3    H166916   4.020   6.690  15.889  0.3794 -0.1137  0.6248
15167TIP3    H266917   3.936   6.769  15.987  0.0829  0.2638  0.0685
15168TIP3   OH266918   2.030   4.455   5.600 -0.1046  0.1654  0.6368
15168TIP3    H166919   1.968   4.528   5.595 -0.2613  0.0315  0.5909
15168TIP3    H266920   2.012   4.404   5.521 -0.5186 -0.3380  1.0528
15169TIP3   OH266921   0.858   0.363   1.664  0.3199 -0.1018  0.1704
15169TIP3    H166922   0.791   0.295   1.667  1.6109 -1.4079  0.1211
15169TIP3    H266923   0.857   0.393   1.573  1.8990 -2.3150 -0.6306
15170TIP3   OH266924   0.899   2.672  17.108  0.3070  0.6260 -0.4960
15170TIP3    H166925   0.850   2.602  17.152  0.5392  0.6237 -0.2392
15170TIP3    H266926   0.978   2.629  17.076  0.3766  0.7376 -0.4737
15171TIP3   OH266927   4.094   5.823  10.785 -0.7845  0.1871  0.2945
15171TIP3    H166928   4.058   5.902  10.745 -1.3169 -1.0870 -1.8068
15171TIP3    H266929   4.018   5.770  10.808 -0.4849  0.8496  2.9635
15172TIP3   OH266930   3.337   0.888   4.657  0.7722 -0.4451  0.1310
15172TIP3    H166931   3.428   0.859   4.669  0.8521 -0.2403  0.0175
15172TIP3    H266932   3.343   0.959   4.593  1.0675  2.5769  3.3481
15173TIP3   OH266933   0.248   3.849  11.050  1.3392  0.4268  0.1795
15173TIP3    H166934   0.293   3.930  11.073 -1.6448  2.6230 -1.3899
15173TIP3    H266935   0.157   3.875  11.037  0.5139 -2.9936 -1.4354
15174TIP3   OH266936   0.657   6.624   0.959  0.3784  0.0367 -0.3577
15174TIP3    H166937   0.679   6.676   0.882 -0.1902  0.8098 -0.0195
15174TIP3    H266938   0.723   6.649   1.024 -0.5253  1.1777  0.1533
15175TIP3   OH266939   4.805   2.757   6.666 -0.5032  0.3760 -0.3777
15175TIP3    H166940   4.782   2.848   6.686 -1.1116  0.2522 -0.4866
15175TIP3    H266941   4.858   2.762   6.586  0.3976  0.7245  0.2454
15176TIP3   OH266942   0.816   4.779   4.575  0.4654 -0.0337  0.3774
15176TIP3    H166943   0.727   4.815   4.571  0.5024 -0.0541 -0.9970
15176TIP3    H266944   0.804   4.691   4.610 -0.2406 -0.5280 -1.0388
15177TIP3   OH266945   2.421   2.003  16.066  0.1202  0.1007 -0.0830
15177TIP3    H166946   2.472   2.024  15.987  1.5164  0.0868  0.7859
15177TIP3    H266947   2.394   2.089  16.099 -2.8550  0.0076 -2.0512
15178TIP3   OH266948   2.444   4.649  17.019  0.0653  0.1754  0.2520
15178TIP3    H166949   2.367   4.612  17.063  0.1973 -1.5170 -0.8809
15178TIP3    H266950   2.408   4.715  16.960 -0.5667 -0.8678 -0.5478
15179TIP3   OH266951   3.408   3.877   5.108  0.0611 -0.4665 -0.0189
15179TIP3    H166952   3.425   3.848   5.198 -0.0425  0.2550  0.2327
15179TIP3    H266953   3.441   3.806   5.054  0.9674 -0.5012  0.5696
15180TIP3   OH266954   0.287   5.795   0.900 -0.0672  0.6495 -0.0747
15180TIP3    H166955   0.275   5.825   0.990  1.2473  0.0934  0.3106
15180TIP3    H266956   0.380   5.813   0.882  0.0153 -0.5010 -0.8303
15181TIP3   OH266957   5.850   5.394   4.022 -0.0994 -0.2654  0.0174
15181TIP3    H166958   5.809   5.312   4.050  0.2039 -0.3691  0.1571
15181TIP3    H266959   5.780   5.459   4.027  0.1405 -0.1216  1.7627
15182TIP3   OH266960   1.110   3.443   3.725  0.1341 -0.6012  0.6025
15182TIP3    H166961   1.053   3.489   3.786  0.2127 -0.6231  0.6925
15182TIP3    H266962   1.149   3.513   3.672 -0.6420 -0.6521 -0.0363
15183TIP3   OH266963   4.387   2.876  15.742 -0.3453  0.2194  0.4152
15183TIP3    H166964   4.464   2.840  15.786 -0.0163  0.7083  0.2511
15183TIP3    H266965   4.401   2.971  15.744 -0.8870  0.3015  0.2826
15184TIP3   OH266966   1.544   5.733   4.439 -0.1533 -0.0034 -0.8291
15184TIP3    H166967   1.565   5.679   4.516  1.7966  2.4315  0.4345
15184TIP3    H266968   1.475   5.685   4.394  0.6972 -2.9553  0.8622
15185TIP3   OH266969   0.137   4.401   2.190 -0.2321  0.1943 -0.3242
15185TIP3    H166970   0.195   4.374   2.119  0.4619  0.7984  0.0127
15185TIP3    H266971   0.050   4.400   2.150  0.0155 -0.6360 -0.8525
15186TIP3   OH266972   4.035   0.302   3.450 -0.0416 -0.0428  0.0446
15186TIP3    H166973   4.081   0.218   3.460 -0.6590 -0.3470  0.4036
15186TIP3    H266974   3.945   0.277   3.429  0.0725  0.5512 -1.1734
15187TIP3   OH266975   3.398   2.931  14.671 -0.2836  0.2496  0.5221
15187TIP3    H166976   3.350   2.883  14.738 -0.9222  0.7935  0.4611
15187TIP3    H266977   3.385   2.880  14.591  0.3554 -0.3207  0.7767
15188TIP3   OH266978   6.461   2.952  10.445 -0.6372  0.1143  1.0655
15188TIP3    H166979   6.491   3.024  10.500  0.3977  0.4841  0.0350
15188TIP3    H266980   6.540   2.923  10.399 -1.6892  0.5800 -1.0844
15189TIP3   OH266981   5.798   1.874  15.885 -0.2729 -0.5787 -0.3964
15189TIP3    H166982   5.773   1.795  15.837  0.5817 -0.4286 -1.0964
15189TIP3    H266983   5.894   1.871  15.888 -0.2409  0.3829 -0.3542
15190TIP3   OH266984   1.066   5.909   4.768 -0.2872  0.0859 -0.1976
15190TIP3    H166985   1.093   5.851   4.697  0.2649  0.1109 -0.0131
15190TIP3    H266986   1.142   5.965   4.783 -0.8510  0.9113 -0.4301
15191TIP3   OH266987   6.020   2.934   4.740 -0.0020  0.5263 -0.2206
15191TIP3    H166988   5.925   2.943   4.749 -0.3438 -1.1522 -1.8120
15191TIP3    H266989   6.046   3.011   4.689 -0.5255  0.8754  0.0244
15192TIP3   OH266990   5.703   5.679   2.347  0.2073  0.2695 -0.5217
15192TIP3    H166991   5.628   5.679   2.406  0.7849 -1.5242  0.2528
15192TIP3    H266992   5.753   5.757   2.370  0.7391 -0.7263  1.7728
15193TIP3   OH266993   6.112   1.972  13.183 -0.5291 -0.4800  0.1370
15193TIP3    H166994   6.023   1.986  13.150 -0.2497  0.1928 -0.3351
15193TIP3    H266995   6.167   1.967  13.105 -0.4560 -3.2401  0.3244
15194TIP3   OH266996   5.830   5.299  14.888 -0.0734  0.0288  0.1635
15194TIP3    H166997   5.888   5.227  14.910 -2.6957 -2.3911 -0.5445
15194TIP3    H266998   5.787   5.322  14.971 -0.6331 -0.5139  0.0258
15195TIP3   OH266999   5.505   2.471   6.212  0.7223 -0.5735  0.1331
15195TIP3    H167000   5.545   2.460   6.126 -0.8605  0.1555 -0.7344
15195TIP3    H267001   5.577   2.498   6.269  1.7648 -0.8968 -1.0044
15196TIP3   OH267002   2.408   3.673  13.036  0.1771 -0.6355 -0.1991
15196TIP3    H167003   2.375   3.588  13.064  2.7956 -1.2044  1.2838
15196TIP3    H267004   2.481   3.653  12.977  0.3109  0.5683 -0.4582
15197TIP3   OH267005   5.248   2.172   0.847 -0.0614  0.7618  0.0476
15197TIP3    H167006   5.289   2.147   0.765  0.8001  2.7056 -0.1387
15197TIP3    H267007   5.159   2.196   0.823 -0.4200 -0.5838 -0.0012
15198TIP3   OH267008   2.670   1.341   5.901  0.2153 -0.2662  0.3467
15198TIP3    H167009   2.676   1.341   5.805 -1.7921  3.3073  0.1375
15198TIP3    H267010   2.758   1.362   5.931  0.8569 -1.3761 -0.6888
15199TIP3   OH267011   3.136   5.481  11.537  0.0109 -0.1389  0.4844
15199TIP3    H167012   3.058   5.510  11.585  0.3613  0.8842  0.4408
15199TIP3    H267013   3.121   5.509  11.447 -0.4807 -1.7443  0.0478
15200TIP3   OH267014   3.604   1.180   3.260 -0.2878  0.4403 -0.4537
15200TIP3    H167015   3.570   1.217   3.341 -1.4699  1.0717 -1.2269
15200TIP3    H267016   3.558   1.097   3.250 -0.0511  0.3031 -0.4257
15201TIP3   OH267017   0.830   4.624   1.287 -0.6683  0.2462  0.2544
15201TIP3    H167018   0.901   4.646   1.226 -0.0706  1.0611  1.2236
15201TIP3    H267019   0.858   4.542   1.327 -0.4525  0.3699  0.3580
15202TIP3   OH267020   6.151   3.035  14.135  0.8282  0.0692  0.8488
15202TIP3    H167021   6.176   3.006  14.222  1.4360  0.0924  0.6846
15202TIP3    H267022   6.196   3.119  14.123  0.1877  0.4030  0.7854
15203TIP3   OH267023   2.174   3.606   3.908 -0.0343 -0.2457  0.0899
15203TIP3    H167024   2.244   3.541   3.898  1.0032  0.7494  0.6900
15203TIP3    H267025   2.093   3.554   3.910  0.8440 -1.6260  1.6173
15204TIP3   OH267026   4.480   2.793  16.628 -0.2585 -0.3587  0.1428
15204TIP3    H167027   4.543   2.800  16.556  1.3566  0.2830  1.5816
15204TIP3    H267028   4.473   2.699  16.645  2.1119 -0.3561  1.4609
15205TIP3   OH267029   1.780   5.560   4.957 -0.5703 -0.3759 -0.0408
15205TIP3    H167030   1.738   5.626   5.012 -0.7255 -0.5539  0.0548
15205TIP3    H267031   1.864   5.598   4.933 -0.0119 -0.7938  1.2624
15206TIP3   OH267032   1.308   2.565   1.213  0.0411 -0.1139  0.4144
15206TIP3    H167033   1.220   2.537   1.237 -0.0082 -0.6584 -0.3855
15206TIP3    H267034   1.352   2.581   1.296 -0.3968 -1.1462  0.8513
15207TIP3   OH267035   1.909   4.163   3.225 -0.0715  0.2181 -0.2752
15207TIP3    H167036   1.860   4.235   3.186  2.1371  3.2512  2.3124
15207TIP3    H267037   2.000   4.181   3.202  0.6619 -0.9738  1.5772
15208TIP3   OH267038   1.382   1.714  15.885 -0.4510 -0.3339 -0.1719
15208TIP3    H167039   1.460   1.667  15.857 -0.5029 -0.9849  0.7349
15208TIP3    H267040   1.338   1.653  15.945 -1.1550  0.3972  0.0675
15209TIP3   OH267041   5.986   5.723  15.017  0.1313  0.5343 -0.6605
15209TIP3    H167042   5.900   5.760  14.996  0.1587  0.7729 -0.3455
15209TIP3    H267043   6.045   5.798  15.020  0.1450  0.4890  0.2096
15210TIP3   OH267044   5.087   2.805  16.041  0.0770 -0.0423 -0.2562
15210TIP3    H167045   5.179   2.793  16.019  0.1930  0.0552  0.1851
15210TIP3    H267046   5.051   2.716  16.040  0.5421 -0.2558  1.2263
15211TIP3   OH267047   3.468   4.007   5.932 -0.4398  0.6109 -0.5394
15211TIP3    H167048   3.478   3.934   5.993 -1.1944  0.9861  0.0504
15211TIP3    H267049   3.381   3.995   5.895 -1.3067  2.1821  0.8968
15212TIP3   OH267050   5.730   5.599   3.479 -0.4054  0.5666  0.2405
15212TIP3    H167051   5.683   5.517   3.461  0.9910 -0.2072  0.0170
15212TIP3    H267052   5.699   5.626   3.565 -1.3914  0.1643  0.0207
15213TIP3   OH267053   2.933   0.570   0.003  0.1017 -0.1821 -0.0071
15213TIP3    H167054   2.975   0.509   0.064  1.0963  0.7235  0.2422
15213TIP3    H267055   2.968   0.656   0.028 -1.3513  0.5026 -0.2877
15214TIP3   OH267056   5.779   1.411  12.910 -0.0069  0.2846 -0.2398
15214TIP3    H167057   5.862   1.448  12.881 -0.7672  0.7384 -1.8697
15214TIP3    H267058   5.719   1.486  12.910 -0.5293 -0.1321  0.4987
15215TIP3   OH267059   0.036   1.278  12.053 -0.2908  0.3596  0.6403
15215TIP3    H167060   0.105   1.220  12.022 -0.7924  0.8405 -1.4582
15215TIP3    H267061  -0.035   1.267  11.990 -0.8573  2.3278  0.8819
15216TIP3   OH267062   6.485   6.416   0.113  0.2426 -0.2173 -0.0572
15216TIP3    H167063   6.534   6.395   0.034 -1.4786  1.3745 -1.6171
15216TIP3    H267064   6.396   6.435   0.081 -0.2541  1.3769  2.1307
15217TIP3   OH267065   4.275   4.786  16.521 -0.0120 -0.0153  0.2972
15217TIP3    H167066   4.241   4.724  16.585 -1.2251  0.3149 -0.0241
15217TIP3    H267067   4.198   4.825  16.481  0.7323 -0.2712 -1.4301
15218TIP3   OH267068   1.765   3.216  11.212 -0.0634  0.5941  0.4346
15218TIP3    H167069   1.736   3.302  11.242 -2.0755  0.8076 -1.9625
15218TIP3    H267070   1.690   3.158  11.229  0.8322 -0.4349  0.9225
15219TIP3   OH267071   1.044   0.404   5.720 -0.4804  0.0682  0.7109
15219TIP3    H167072   1.124   0.389   5.771 -1.0762  0.7581  1.8485
15219TIP3    H267073   1.010   0.487   5.752  0.9851  2.2877 -3.2262
15220TIP3   OH267074   1.951   4.962  16.873 -0.3630  0.1175  0.0851
15220TIP3    H167075   1.862   4.984  16.845 -0.1111  0.6025 -0.3344
15220TIP3    H267076   2.008   5.003  16.808  0.1403 -1.0947 -0.2550
15221TIP3   OH267077   6.545   6.475   0.933 -0.3209 -0.6160  0.0637
15221TIP3    H167078   6.451   6.467   0.952 -0.6081  1.3773 -0.4182
15221TIP3    H267079   6.583   6.505   1.016 -0.6820  2.2201 -0.7665
15222TIP3   OH267080   4.635   2.823   1.082  0.4770  0.2798 -0.5067
15222TIP3    H167081   4.576   2.887   1.043  1.3490  0.9239 -0.7697
15222TIP3    H267082   4.641   2.753   1.017  0.7110  0.6351 -0.8708
15223TIP3   OH267083   0.017   1.107   5.289  0.0555  0.3728 -0.2474
15223TIP3    H167084  -0.010   1.050   5.361  1.4350  0.4806  0.3658
15223TIP3    H267085  -0.059   1.163   5.274 -0.2671  0.3174  1.0912
15224TIP3   OH267086   0.437   4.454   2.934  0.5367 -0.3687  0.2673
15224TIP3    H167087   0.498   4.501   2.877  1.9046 -1.1229  1.0812
15224TIP3    H267088   0.472   4.468   3.022 -0.3928 -0.9444  0.7269
15225TIP3   OH267089   6.383   1.751   4.315  0.0645 -0.0787 -0.0919
15225TIP3    H167090   6.370   1.717   4.404  1.3175  0.4634  0.3054
15225TIP3    H267091   6.294   1.770   4.284 -0.5235 -1.8061  0.4223
15226TIP3   OH267092   2.780   4.812  11.900  0.1025 -0.2324 -0.1214
15226TIP3    H167093   2.781   4.869  11.976  2.0579  1.3105 -1.2556
15226TIP3    H267094   2.859   4.759  11.908  0.1591 -0.2770 -0.9205
15227TIP3   OH267095   2.397   4.355  14.907 -0.1347 -0.1477 -0.4926
15227TIP3    H167096   2.482   4.362  14.949 -0.1971  1.3324 -0.6022
15227TIP3    H267097   2.335   4.348  14.979  0.1458 -2.2571 -0.4207
15228TIP3   OH267098   4.225   4.757  13.992 -0.0705 -0.0125 -0.2195
15228TIP3    H167099   4.207   4.797  14.077  0.3194 -0.6769  0.1779
15228TIP3    H267100   4.299   4.697  14.008 -0.8502 -1.1332 -0.7325
15229TIP3   OH267101   5.593   6.095  12.245  0.8151 -0.7447 -0.1648
15229TIP3    H167102   5.662   6.156  12.218  0.4418  0.3410  1.2533
15229TIP3    H267103   5.627   6.008  12.221  1.8859 -0.0811 -1.0995
15230TIP3   OH267104   3.386   6.179   5.005 -0.2306 -0.0190 -0.2445
15230TIP3    H167105   3.307   6.149   4.960 -0.9828 -0.2560  1.2058
15230TIP3    H267106   3.388   6.273   4.987 -1.1217  0.0783  0.1333
15231TIP3   OH267107   1.935   2.594   2.770 -0.1390  0.5455 -0.2740
15231TIP3    H167108   1.945   2.599   2.675 -1.1743 -0.8551 -0.4766
15231TIP3    H267109   1.868   2.660   2.791 -0.3605  0.4276 -0.6049
15232TIP3   OH267110   1.904   5.027   1.109 -0.1840  0.2694 -0.3902
15232TIP3    H167111   1.847   4.967   1.061  1.8179 -1.9021 -0.1893
15232TIP3    H267112   1.891   5.112   1.068 -1.2871 -0.8075 -2.3009
15233TIP3   OH267113   4.053   3.047  17.030  0.1620 -0.1610  0.0330
15233TIP3    H167114   4.072   3.100  16.952 -0.9189 -2.9452 -2.2471
15233TIP3    H267115   4.138   3.033  17.071  1.2079 -0.9539 -2.2659
15234TIP3   OH267116   6.157   4.101   0.283 -0.6053 -0.6404 -0.0429
15234TIP3    H167117   6.245   4.103   0.246 -0.1493  1.1330  1.0476
15234TIP3    H267118   6.118   4.021   0.249  0.5015 -0.0923 -2.7048
15235TIP3   OH267119   5.154   2.167   4.407 -0.1232 -0.2902 -0.1333
15235TIP3    H167120   5.148   2.260   4.430 -0.5954 -1.0228  2.8597
15235TIP3    H267121   5.074   2.149   4.357  0.8758  1.3115 -2.4056
15236TIP3   OH267122   4.505   6.766  15.934  0.1757  0.3645  0.1744
15236TIP3    H167123   4.531   6.674  15.935 -2.9991 -0.6155  0.2820
15236TIP3    H267124   4.458   6.777  15.852  0.5600  1.9253  0.1444
15237TIP3   OH267125   2.318   1.872  15.775 -0.0459 -0.0083  0.0137
15237TIP3    H167126   2.348   1.943  15.831  0.9367  0.0823 -0.6177
15237TIP3    H267127   2.232   1.900  15.744  0.4759  1.0325 -0.4821
15238TIP3   OH267128   4.899   3.035  11.368  0.3515 -0.2391 -0.1103
15238TIP3    H167129   4.827   3.094  11.346 -0.1179 -0.2812  1.2754
15238TIP3    H267130   4.972   3.065  11.314 -0.0630  1.2303  0.1229
15239TIP3   OH267131   4.419   3.650  15.613  0.0476  0.1447  0.4114
15239TIP3    H167132   4.454   3.712  15.549 -2.1652 -0.3327 -1.3542
15239TIP3    H267133   4.372   3.704  15.677  0.5860  0.4899  0.5162
15240TIP3   OH267134   6.535   2.027  12.203 -0.1154 -0.5083  0.3374
15240TIP3    H167135   6.501   2.114  12.224 -0.0730 -1.0280  2.7207
15240TIP3    H267136   6.628   2.040  12.187 -0.3685  0.0776 -0.7126
15241TIP3   OH267137   0.046   2.357   5.623 -0.2411  0.1762  0.3410
15241TIP3    H167138   0.075   2.445   5.648 -0.0170  0.0873  0.3914
15241TIP3    H267139   0.054   2.355   5.527  0.4139 -0.0247  0.3986
15242TIP3   OH267140   2.887   0.710   4.047 -0.2762 -0.0582 -0.4154
15242TIP3    H167141   2.829   0.645   4.010 -0.3257  0.6098 -1.5475
15242TIP3    H267142   2.923   0.756   3.971  3.0405 -1.5751  0.1574
15243TIP3   OH267143   5.986   1.343   1.211  0.7502  0.3982  0.3211
15243TIP3    H167144   6.064   1.395   1.187 -0.0749  1.2895 -0.4897
15243TIP3    H267145   5.912   1.398   1.184 -0.1585 -0.5309  0.9063
15244TIP3   OH267146   4.555   3.561   4.403 -0.3879 -0.5080 -0.3947
15244TIP3    H167147   4.531   3.630   4.341 -1.4843  0.1094  0.6944
15244TIP3    H267148   4.560   3.481   4.351  1.2824  0.4452 -1.7488
15245TIP3   OH267149   3.612   5.603   4.057  0.2485  0.4752  0.8195
15245TIP3    H167150   3.706   5.604   4.072  0.7417  0.8023 -2.0068
15245TIP3    H267151   3.590   5.693   4.033 -0.5747  0.1436  0.2975
15246TIP3   OH267152   4.509   4.594  15.526  0.0157  0.3595  0.3921
15246TIP3    H167153   4.423   4.554  15.537  1.0978 -1.8988  1.1829
15246TIP3    H267154   4.565   4.547  15.588  2.1209  0.7868 -1.1013
15247TIP3   OH267155   5.923   3.931   2.138 -0.2154  0.4881  0.6963
15247TIP3    H167156   5.903   3.939   2.231  2.8766  0.1474  1.4387
15247TIP3    H267157   5.981   4.005   2.119  0.8065 -0.5893 -0.4729
15248TIP3   OH267158   4.893   6.504  11.474  0.0630  0.1871  0.4188
15248TIP3    H167159   4.955   6.480  11.406  0.5680 -0.7694  1.2109
15248TIP3    H267160   4.849   6.582  11.440  2.2538  1.3414  0.1989
15249TIP3   OH267161   3.634   2.607  16.023 -0.1070  0.3858 -0.0260
15249TIP3    H167162   3.706   2.561  16.066  0.6028 -0.0329 -1.6055
15249TIP3    H267163   3.561   2.601  16.084  1.0707  0.4244  1.4042
15250TIP3   OH267164   3.299   4.307  16.145  0.1026  0.1956 -0.5613
15250TIP3    H167165   3.205   4.310  16.124 -0.4593 -1.7956  1.4693
15250TIP3    H267166   3.339   4.267  16.069 -0.7582  0.7464 -1.3122
15251TIP3   OH267167   2.773   2.676  15.337  0.9467 -0.3882  0.1597
15251TIP3    H167168   2.758   2.652  15.246  1.2494  0.3508 -0.0871
15251TIP3    H267169   2.868   2.673  15.348  1.0987  1.8501 -0.2123
15252TIP3   OH267170   2.004   6.400  14.512  0.3170 -0.3198 -0.0462
15252TIP3    H167171   1.924   6.420  14.462 -0.7849  0.5573  1.9862
15252TIP3    H267172   1.973   6.347  14.585  1.9831 -1.9967 -0.5511
15253TIP3   OH267173   0.215   3.818   0.233 -0.0488 -0.1156  0.8548
15253TIP3    H167174   0.291   3.866   0.268  0.5112  0.0869 -0.6095
15253TIP3    H267175   0.172   3.783   0.311  0.3377  1.5614  1.8659
15254TIP3   OH267176   1.229   3.090  14.920  0.1434  0.1254 -0.1269
15254TIP3    H167177   1.290   3.031  14.965 -1.3213 -0.9827  0.4636
15254TIP3    H267178   1.146   3.042  14.919 -1.3339  2.5572  1.1695
15255TIP3   OH267179   1.113   3.175  11.395  0.5742  0.2627  0.1407
15255TIP3    H167180   1.186   3.147  11.340 -0.4253  0.6949 -1.4561
15255TIP3    H267181   1.079   3.095  11.434 -0.5171 -0.4466 -2.1830
15256TIP3   OH267182   3.797   4.543  13.111  0.7237 -0.4350  0.0755
15256TIP3    H167183   3.736   4.529  13.184 -1.3909  1.3881 -1.2514
15256TIP3    H267184   3.775   4.474  13.049 -1.5865  1.5053 -1.3535
15257TIP3   OH267185   0.749   2.250  12.231  0.3871 -0.0958 -0.4556
15257TIP3    H167186   0.670   2.286  12.272  1.6487  1.1452  0.9104
15257TIP3    H267187   0.717   2.214  12.148 -1.7331 -0.2123  0.3641
15258TIP3   OH267188   6.705   3.743  11.232 -0.2966 -0.2382  0.0290
15258TIP3    H167189   6.658   3.824  11.255 -0.1540 -0.2959  0.5275
15258TIP3    H267190   6.640   3.690  11.186 -1.3056 -1.1219  2.3946
15259TIP3   OH267191   4.471   3.806   0.753 -0.7052 -0.3317 -0.0808
15259TIP3    H167192   4.476   3.733   0.815 -2.3991 -1.5457 -1.3127
15259TIP3    H267193   4.562   3.823   0.729 -0.1823 -1.1090  1.3028
15260TIP3   OH267194   3.517   0.633   5.339  0.0265  0.7158 -0.0115
15260TIP3    H167195   3.517   0.570   5.410 -2.0735 -1.4707 -1.8990
15260TIP3    H267196   3.589   0.693   5.361  0.0649 -0.4707  3.3907
15261TIP3   OH267197   4.338   4.304   3.579 -0.2379  0.1420 -0.5061
15261TIP3    H167198   4.417   4.289   3.527 -0.1234 -0.4455 -0.1748
15261TIP3    H267199   4.358   4.264   3.664 -2.0017 -2.6782 -1.3434
15262TIP3   OH267200   1.333   0.840   3.456  0.6629  0.1729  0.0778
15262TIP3    H167201   1.320   0.746   3.441  0.3723  0.6416 -2.6859
15262TIP3    H267202   1.316   0.851   3.550 -0.4505 -2.3340  0.2120
15263TIP3   OH267203   2.352   3.345   4.784 -0.4576 -0.3028  0.0338
15263TIP3    H167204   2.389   3.257   4.792  0.3722  0.0946  0.6315
15263TIP3    H267205   2.392   3.381   4.705 -1.2846 -0.6929 -0.5669
15264TIP3   OH267206   4.518   2.854   1.757  0.4815 -0.1480  0.3379
15264TIP3    H167207   4.592   2.841   1.697  0.2479 -0.5345  0.1350
15264TIP3    H267208   4.446   2.883   1.701  0.5795  0.5880  0.5855
15265TIP3   OH267209   2.230   6.235  15.390  0.0813 -0.3986  0.0772
15265TIP3    H167210   2.155   6.197  15.345  0.3584  1.1050 -1.6905
15265TIP3    H267211   2.192   6.300  15.449 -0.1642 -1.3898  1.0491
15266TIP3   OH267212   3.931   2.370  14.077 -0.2306 -0.1364 -0.9015
15266TIP3    H167213   4.022   2.390  14.053 -0.2138 -3.0150 -3.6734
15266TIP3    H267214   3.926   2.388  14.171  2.9223  1.0422 -0.8991
15267TIP3   OH267215   3.171   4.414   4.929  0.1090 -0.0457  0.1453
15267TIP3    H167216   3.216   4.392   5.010  2.9746  2.1493 -0.7479
15267TIP3    H267217   3.112   4.485   4.954  1.6694  1.2774  0.1994
15268TIP3   OH267218   6.284   0.033   3.723 -0.3473 -0.3674  0.3701
15268TIP3    H167219   6.201   0.044   3.770 -0.0921  1.2607  0.4491
15268TIP3    H267220   6.352   0.048   3.789  0.0078  1.2193 -0.3306
15269TIP3   OH267221   3.343   3.284   3.900  0.3654 -0.2156  0.3535
15269TIP3    H167222   3.343   3.289   3.995  0.8069 -0.6096  0.3773
15269TIP3    H267223   3.329   3.191   3.880  1.0256 -0.2582  0.0510
15270TIP3   OH267224   2.131   3.176  14.260  0.0312  0.8975  0.1606
15270TIP3    H167225   2.115   3.106  14.196  0.9131  0.5591  0.3041
15270TIP3    H267226   2.047   3.185  14.305 -0.3339  0.5018 -0.4174
15271TIP3   OH267227   4.694   4.380   3.713  0.2454  0.0795 -0.5229
15271TIP3    H167228   4.769   4.351   3.662  0.5590  0.1204 -0.0907
15271TIP3    H267229   4.714   4.353   3.803  1.2411  2.8913  0.1758
15272TIP3   OH267230   1.028   5.076   5.239 -0.2797 -0.3796  0.4383
15272TIP3    H167231   1.099   5.126   5.199  0.0573 -0.4160  0.9785
15272TIP3    H267232   1.043   4.986   5.213 -1.5328 -0.0673 -1.4793
15273TIP3   OH267233   1.261   5.525  16.476 -0.1869  0.3181 -0.0362
15273TIP3    H167234   1.294   5.604  16.432 -1.7608  0.8903 -0.2406
15273TIP3    H267235   1.226   5.557  16.559  0.0064 -0.3013  0.2810
15274TIP3   OH267236   0.203   3.845  16.969  0.1139  0.0019 -1.3490
15274TIP3    H167237   0.206   3.773  16.905 -1.7865 -1.9824  0.7211
15274TIP3    H267238   0.287   3.839  17.015  0.1706 -0.5763 -1.5206
15275TIP3   OH267239   2.618   1.318  14.970  0.0080  0.3479 -0.4512
15275TIP3    H167240   2.601   1.388  14.908  0.8502 -0.5691 -1.7322
15275TIP3    H267241   2.713   1.317  14.981 -0.1075  0.3434  0.6686
15276TIP3   OH267242   4.725   3.578  13.565 -0.0420  0.9789 -0.0836
15276TIP3    H167243   4.683   3.659  13.535 -1.6978  0.2747  0.2699
15276TIP3    H267244   4.659   3.511  13.552  0.9328 -0.1424  0.6584
15277TIP3   OH267245   4.305   0.119  14.457  0.1958 -0.3642  0.2445
15277TIP3    H167246   4.243   0.118  14.385  0.0784  0.6330  0.3233
15277TIP3    H267247   4.251   0.109  14.536  0.1467  0.3381  0.3027
15278TIP3   OH267248   6.506   0.748  13.324 -0.4245 -0.0378  0.1795
15278TIP3    H167249   6.485   0.835  13.360 -0.4345  0.8629 -1.9075
15278TIP3    H267250   6.421   0.708  13.308 -0.4297 -0.1835  0.5721
15279TIP3   OH267251   6.268   5.697  16.145  0.1356  0.0433 -0.1540
15279TIP3    H167252   6.362   5.706  16.161 -0.0511  1.6988  0.1105
15279TIP3    H267253   6.257   5.606  16.117  1.7519 -0.2920  0.2390
15280TIP3   OH267254   1.295   0.664   4.695 -0.1921  0.2898  0.0944
15280TIP3    H167255   1.385   0.648   4.667  0.0872  1.1943  0.4500
15280TIP3    H267256   1.269   0.583   4.740 -0.5327 -1.0477 -2.3924
15281TIP3   OH267257   2.566   0.176   5.787 -0.0635 -0.0565  0.0016
15281TIP3    H167258   2.656   0.156   5.812  0.3679  1.1684 -0.5079
15281TIP3    H267259   2.528   0.219   5.863  0.1917  0.5920 -0.2318
15282TIP3   OH267260   4.892   5.238   2.257  0.0257  0.3524  0.1222
15282TIP3    H167261   4.797   5.251   2.263 -0.1817 -0.1168 -1.8534
15282TIP3    H267262   4.913   5.184   2.333 -1.0610  1.5908  1.3435
15283TIP3   OH267263   3.262   5.545  15.046 -0.0482 -0.1286  0.0467
15283TIP3    H167264   3.280   5.451  15.041  0.9378 -0.0473  1.5195
15283TIP3    H267265   3.225   5.568  14.961  0.4462 -1.7036 -0.6029
15284TIP3   OH267266   0.261   5.864   4.455  0.2435 -0.4812 -0.7718
15284TIP3    H167267   0.294   5.825   4.535 -0.7200  0.6696  0.1965
15284TIP3    H267268   0.171   5.832   4.447  0.5713 -1.2004 -1.8112
15285TIP3   OH267269   4.714   4.283   5.486 -0.2304 -0.6460  0.1073
15285TIP3    H167270   4.767   4.305   5.409 -2.8412 -0.0866 -1.5732
15285TIP3    H267271   4.768   4.220   5.534  1.9565 -0.1105 -1.5388
15286TIP3   OH267272   0.732   1.686   2.409 -0.7096  0.6368 -0.9123
15286TIP3    H167273   0.779   1.670   2.490 -0.1703 -1.2073 -1.5659
15286TIP3    H267274   0.642   1.703   2.436 -0.9744 -1.9760 -0.0250
15287TIP3   OH267275   6.646   4.734  17.005  0.4337  0.0341  0.4185
15287TIP3    H167276   6.719   4.674  16.988 -0.0360 -0.2810 -0.5355
15287TIP3    H267277   6.568   4.685  16.978 -0.1092  0.4681  1.1807
15288TIP3   OH267278   5.787   0.723   4.558  0.5211  0.2520  0.1215
15288TIP3    H167279   5.844   0.798   4.540  2.6898 -0.0060  5.1853
15288TIP3    H267280   5.725   0.756   4.623 -0.4649 -1.5346  0.1067
15289TIP3   OH267281   5.188   0.121   5.371 -0.6273  0.4420 -0.3842
15289TIP3    H167282   5.168   0.048   5.429  0.3781 -0.5856 -1.3202
15289TIP3    H267283   5.282   0.135   5.381 -0.4300  0.2021 -1.8179
15290TIP3   OH267284   3.307   2.916  16.986  0.5788 -0.1146 -0.7154
15290TIP3    H167285   3.227   2.947  17.029  1.9372 -0.1306  1.8977
15290TIP3    H267286   3.329   2.985  16.923 -0.9609  0.3221 -0.8040
15291TIP3   OH267287   1.959   5.010   6.176  0.2676 -0.2625  0.1497
15291TIP3    H167288   2.052   5.010   6.200  0.3666  0.8666 -0.1922
15291TIP3    H267289   1.938   5.103   6.165 -0.6443 -0.5766 -0.7508
15292TIP3   OH267290   4.584   3.582   3.156 -0.3373  0.3250 -0.4145
15292TIP3    H167291   4.529   3.605   3.081 -0.1590  0.3611 -0.5337
15292TIP3    H267292   4.595   3.664   3.204 -0.6298  0.2590 -0.2288
15293TIP3   OH267293   0.820   4.967   5.418  0.3941  0.0637  0.1303
15293TIP3    H167294   0.864   4.916   5.487 -0.1611  0.4723  0.7957
15293TIP3    H267295   0.889   4.983   5.353  1.2636  0.7435  1.1918
15294TIP3   OH267296   2.652   3.448   2.548  0.3670  0.1053 -0.5039
15294TIP3    H167297   2.644   3.399   2.466 -0.6715  0.7347 -0.7845
15294TIP3    H267298   2.672   3.538   2.520  2.6254 -0.2038  0.0123
15295TIP3   OH267299   3.485   6.242  12.748  0.0004 -0.1391  0.0760
15295TIP3    H167300   3.529   6.302  12.808 -0.7447  1.0863 -0.5775
15295TIP3    H267301   3.462   6.167  12.802  1.4568 -0.0964  0.7828
15296TIP3   OH267302   0.094   5.751  14.627 -0.2234  0.8189  0.4029
15296TIP3    H167303   0.105   5.752  14.723  1.5297  1.5999  0.2251
15296TIP3    H267304   0.068   5.661  14.607  1.2553  0.1350  1.4449
15297TIP3   OH267305   0.952   0.271  13.242  0.3593 -0.4611  0.3309
15297TIP3    H167306   0.942   0.280  13.337  0.6832 -1.9812  0.5132
15297TIP3    H267307   1.002   0.190  13.230 -1.6856 -1.5434 -1.2096
15298TIP3   OH267308   3.650   0.875  14.004 -0.1258 -0.0383  0.2065
15298TIP3    H167309   3.715   0.874  14.074  1.0677 -1.2573 -0.8892
15298TIP3    H267310   3.593   0.949  14.025  0.3966 -0.1990  2.2883
15299TIP3   OH267311   6.109   2.554  16.296 -0.2385 -0.1957  0.5535
15299TIP3    H167312   6.118   2.461  16.275  1.2856 -0.1789  1.0727
15299TIP3    H267313   6.161   2.599  16.229 -0.6622  0.2536  0.5247
15300TIP3   OH267314   1.883   1.269  11.150  0.5578 -0.7757  0.0843
15300TIP3    H167315   1.842   1.191  11.114 -0.4514 -0.2667  0.0877
15300TIP3    H267316   1.923   1.241  11.232  1.1448 -1.5106 -0.4475
15301TIP3   OH267317   2.215   0.137   1.837 -0.2893  0.0296 -0.4119
15301TIP3    H167318   2.164   0.209   1.876  2.7917  1.6963  0.7131
15301TIP3    H267319   2.301   0.175   1.821  1.1691 -3.2121 -0.6062
15302TIP3   OH267320   1.420   5.354  14.346 -0.2957  0.4288  0.0439
15302TIP3    H167321   1.374   5.398  14.275 -0.8169  0.1579  0.2094
15302TIP3    H267322   1.511   5.351  14.318 -0.9406 -2.2750 -1.9487
15303TIP3   OH267323   0.136   3.757   2.094 -0.3656 -0.8311 -0.6468
15303TIP3    H167324   0.132   3.661   2.095 -2.1112 -0.7742  0.7558
15303TIP3    H267325   0.208   3.779   2.153  0.8937 -1.2925 -1.9907
15304TIP3   OH267326   6.370   3.839  12.556 -0.3764 -0.5725  0.1579
15304TIP3    H167327   6.387   3.932  12.571 -0.4560 -0.4895 -0.2713
15304TIP3    H267328   6.290   3.821  12.606 -0.9824 -0.1515 -0.6375
15305TIP3   OH267329   5.821   0.262  17.217  0.2227 -0.3192 -0.2450
15305TIP3    H167330   5.816   0.206  17.295  0.1687  0.2725  0.1814
15305TIP3    H267331   5.913   0.257  17.190  0.7791  1.2867  1.2306
15306TIP3   OH267332   1.671   3.470  12.851 -0.1793  0.4008 -0.1581
15306TIP3    H167333   1.611   3.429  12.912 -0.5038  0.6815 -0.2893
15306TIP3    H267334   1.721   3.397  12.813 -0.5127  0.1616 -0.1334
15307TIP3   OH267335   0.872   4.812   3.939  0.1273 -0.4778 -0.1156
15307TIP3    H167336   0.930   4.743   3.971  3.3483  1.3070 -1.8855
15307TIP3    H267337   0.879   4.881   4.005 -1.6386 -1.0706  0.7099
15308TIP3   OH267338   2.435   0.933   3.211 -0.2646 -0.1915  0.1284
15308TIP3    H167339   2.354   0.928   3.262 -1.4086  2.3791 -1.3036
15308TIP3    H267340   2.415   0.886   3.130 -0.6809  1.2244 -0.6123
15309TIP3   OH267341   2.853   2.905  11.401  0.1499  0.1058 -0.3414
15309TIP3    H167342   2.804   2.925  11.481 -1.2502  0.4551 -1.2783
15309TIP3    H267343   2.912   2.834  11.426 -0.2827  0.1999  0.9911
15310TIP3   OH267344   0.761   5.392   3.595 -0.7116  0.6261 -0.1945
15310TIP3    H167345   0.836   5.333   3.592 -0.1441  1.3010  0.5425
15310TIP3    H267346   0.736   5.403   3.503  0.1795  0.5031 -0.4615
15311TIP3   OH267347   6.172   4.978  11.917  0.1255  0.0477  0.2091
15311TIP3    H167348   6.079   4.959  11.918  0.3209 -0.9578  2.3674
15311TIP3    H267349   6.214   4.893  11.904  0.7750  0.1382  1.5265
15312TIP3   OH267350   6.263   4.086  10.768 -0.2825 -0.1546  0.1230
15312TIP3    H167351   6.182   4.073  10.720 -0.6221 -2.1725  1.1966
15312TIP3    H267352   6.332   4.079  10.702 -0.8509 -1.0913 -0.3758
15313TIP3   OH267353   2.160   6.670  13.487 -0.0208  0.3749  0.5199
15313TIP3    H167354   2.107   6.700  13.561 -1.8193 -0.1490 -0.5404
15313TIP3    H267355   2.155   6.575  13.490  0.6093  0.3267  0.2144
15314TIP3   OH267356   3.592   3.752   4.732 -0.4528  0.5869  0.1551
15314TIP3    H167357   3.664   3.698   4.698  0.5952  1.1834  1.3407
15314TIP3    H267358   3.569   3.711   4.815 -0.2211  1.4516  0.6576
15315TIP3   OH267359   6.565   0.476  14.889  0.2945  0.2618 -0.2339
15315TIP3    H167360   6.573   0.484  14.794 -0.9925  4.1213 -0.1303
15315TIP3    H267361   6.471   0.469  14.905  0.1436  3.6008  0.8567
15316TIP3   OH267362   5.245   2.530   3.460  0.1841 -0.0630 -0.2240
15316TIP3    H167363   5.339   2.513   3.448  0.9088  3.3885  0.1619
15316TIP3    H267364   5.207   2.519   3.373  1.3776  0.9712 -0.8952
15317TIP3   OH267365   2.426   1.849   4.642 -0.6015 -0.3873  0.2068
15317TIP3    H167366   2.499   1.889   4.593  0.2352 -1.5710  0.4746
15317TIP3    H267367   2.429   1.891   4.728 -0.7185  0.1111 -0.0258
15318TIP3   OH267368   5.081   6.445  13.814  0.0423  0.0168 -0.4153
15318TIP3    H167369   5.135   6.416  13.887  2.1375 -0.3080 -2.0492
15318TIP3    H267370   5.027   6.369  13.792 -0.2719 -0.0267  0.4790
15319TIP3   OH267371   6.187   2.459  16.044 -0.4007 -0.0789  0.3033
15319TIP3    H167372   6.271   2.496  16.018 -0.6791 -0.1344 -0.7253
15319TIP3    H267373   6.176   2.383  15.987 -1.5771  0.4754 -0.2289
15320TIP3   OH267374   0.002   3.110   1.622  0.2464 -0.2375  0.1650
15320TIP3    H167375   0.017   3.021   1.654 -0.6043 -0.0316  1.1509
15320TIP3    H267376   0.059   3.165   1.677  2.4065 -0.3654 -1.8411
15321TIP3   OH267377   1.954   5.049   2.803 -0.3012 -0.2801 -0.2751
15321TIP3    H167378   1.967   5.060   2.708 -0.1642  2.0694 -0.0179
15321TIP3    H267379   1.969   4.956   2.818 -0.2757 -0.6931 -2.5614
15322TIP3   OH267380   6.264   2.835  13.969  0.1512 -0.2241 -0.7431
15322TIP3    H167381   6.252   2.770  14.038  2.8043  0.0079 -0.0052
15322TIP3    H267382   6.218   2.913  14.000 -0.6618 -0.8670 -0.3356
15323TIP3   OH267383   6.113   0.783   3.138  0.3242  0.2498 -0.4555
15323TIP3    H167384   6.092   0.859   3.083  0.0368  2.1030  2.1432
15323TIP3    H267385   6.030   0.761   3.181  0.9676  0.0343  0.6894
15324TIP3   OH267386   5.526   5.328  12.340  0.7554 -0.1883 -0.6985
15324TIP3    H167387   5.473   5.331  12.261  2.2812 -1.1232 -1.8108
15324TIP3    H267388   5.598   5.389  12.324  0.5245  0.3867  0.3936
15325TIP3   OH267389   2.432   0.050   5.359 -0.0891  0.3864  0.2396
15325TIP3    H167390   2.459   0.062   5.449  1.3611  2.0032 -0.3930
15325TIP3    H267391   2.437   0.137   5.320  1.7533 -0.6913 -2.0524
15326TIP3   OH267392   0.954   6.017  11.761  0.5238 -0.2766 -0.0786
15326TIP3    H167393   1.020   6.011  11.830  0.5328 -0.0595 -0.0686
15326TIP3    H267394   0.882   5.962  11.792  0.7898 -0.6904 -0.1933
15327TIP3   OH267395   5.979   6.501  11.017  0.1012  0.1117  0.5028
15327TIP3    H167396   5.968   6.587  11.059 -1.3511  1.3834 -2.3059
15327TIP3    H267397   6.074   6.490  11.010  0.3115  1.1088  1.6643
15328TIP3   OH267398   0.794   5.168   5.853  0.1688 -0.1051  0.1489
15328TIP3    H167399   0.761   5.230   5.788 -0.7128 -0.6567  0.0629
15328TIP3    H267400   0.777   5.210   5.937  0.0623  0.0053  0.0727
15329TIP3   OH267401   6.421   4.851  14.058  0.1292  0.0449  0.2848
15329TIP3    H167402   6.358   4.784  14.032 -0.5201  0.0937  1.6969
15329TIP3    H267403   6.447   4.893  13.975 -2.0670  0.3520 -0.2747
15330TIP3   OH267404   3.240   5.945  12.155  0.4525 -0.1219  0.1156
15330TIP3    H167405   3.149   5.946  12.124 -0.4966  0.5119  2.7982
15330TIP3    H267406   3.266   5.854  12.148 -0.7209 -0.4796  0.2232
15331TIP3   OH267407   6.696   5.632   2.359 -0.7670  0.3867  0.4523
15331TIP3    H167408   6.768   5.643   2.296 -2.4042 -2.3204 -2.0452
15331TIP3    H267409   6.739   5.621   2.443  1.6685  0.7581 -0.6859
15332TIP3   OH267410   6.740   0.876   3.825  0.6542  0.1536 -0.3735
15332TIP3    H167411   6.716   0.919   3.743 -0.9970 -0.2079 -0.0978
15332TIP3    H267412   6.747   0.947   3.889  0.0243  0.2347 -0.3937
15333TIP3   OH267413   4.213   5.054   0.436 -0.2682 -0.4612  0.7250
15333TIP3    H167414   4.304   5.046   0.405 -0.2895 -0.2266  0.6047
15333TIP3    H267415   4.209   5.141   0.475 -0.6414 -0.1807  0.0751
15334TIP3   OH267416   2.168   4.222   5.717 -0.3850 -0.1896 -0.2293
15334TIP3    H167417   2.120   4.285   5.663  0.2392 -0.5013 -1.1670
15334TIP3    H267418   2.152   4.138   5.675 -1.0184 -0.6361  0.8801
15335TIP3   OH267419   5.973   4.708   2.024  0.3341  0.4039 -0.0478
15335TIP3    H167420   5.952   4.788   2.073 -1.7770 -0.3381  0.3005
15335TIP3    H267421   5.889   4.678   1.990  1.2215 -1.2758 -0.8073
15336TIP3   OH267422   1.870   3.685   5.922  0.2990  0.3794 -0.1868
15336TIP3    H167423   1.833   3.611   5.874  1.2181  0.0703 -0.4426
15336TIP3    H267424   1.881   3.653   6.011  0.9066  0.1253 -0.3490
15337TIP3   OH267425   3.346   0.925  15.253 -0.6113  0.1578  0.0033
15337TIP3    H167426   3.350   0.866  15.328  1.2302  0.8678  0.5080
15337TIP3    H267427   3.288   0.882  15.191 -1.5454 -0.8137  1.5192
15338TIP3   OH267428   6.254   4.616   0.675 -0.3065  0.7028  0.1497
15338TIP3    H167429   6.188   4.577   0.733 -1.0598  0.9507 -0.5352
15338TIP3    H267430   6.333   4.621   0.729 -0.8057  0.2701  0.9324
15339TIP3   OH267431   2.863   5.673   2.902 -0.2874  0.0021  0.5368
15339TIP3    H167432   2.941   5.726   2.887  0.0021 -0.4346  0.4995
15339TIP3    H267433   2.860   5.659   2.997  1.3087 -2.4310  0.2859
15340TIP3   OH267434   2.793   2.493  16.274 -0.4517 -0.1363 -0.0343
15340TIP3    H167435   2.842   2.457  16.200 -1.5603  0.6509 -1.1805
15340TIP3    H267436   2.702   2.466  16.259 -0.9722  1.4295  0.1169
15341TIP3   OH267437   1.829   4.580   1.833  0.1754 -0.0342  0.3807
15341TIP3    H167438   1.907   4.592   1.889  1.4788 -1.1285 -1.1610
15341TIP3    H267439   1.839   4.492   1.798 -2.5006 -0.7000  1.2259
15342TIP3   OH267440   2.382   2.194  13.034 -0.1113 -0.5037 -0.3029
15342TIP3    H167441   2.395   2.264  12.969  0.3462 -0.8655 -0.6122
15342TIP3    H267442   2.290   2.171  13.027 -0.2247 -0.0457 -0.3202
15343TIP3   OH267443   1.733   1.049  11.513  0.4094 -0.1994 -0.3322
15343TIP3    H167444   1.811   1.023  11.464  1.4135 -0.3569  1.3205
15343TIP3    H267445   1.749   1.018  11.602 -2.7369 -2.6935 -0.5410
15344TIP3   OH267446   3.506   5.835   5.039  0.1949 -0.0628  0.2241
15344TIP3    H167447   3.462   5.791   5.112  0.0969 -0.7301 -0.2316
15344TIP3    H267448   3.573   5.774   5.011  2.6904  1.7128  2.0972
15345TIP3   OH267449   4.368   6.487  16.312  0.4480 -0.0977 -0.5691
15345TIP3    H167450   4.367   6.576  16.276 -1.4265  0.1528  0.0215
15345TIP3    H267451   4.328   6.496  16.399 -2.0127 -1.8542 -1.4441
15346TIP3   OH267452   6.484   2.225   5.199  0.2199 -0.1087  0.2361
15346TIP3    H167453   6.464   2.302   5.146  1.4497  0.4895  0.6334
15346TIP3    H267454   6.568   2.193   5.165  0.5905 -0.2228  1.2496
15347TIP3   OH267455   5.523   2.026  11.124 -0.9219 -0.2719  0.0534
15347TIP3    H167456   5.435   2.008  11.090 -0.6424 -3.0958  0.7423
15347TIP3    H267457   5.510   2.039  11.218 -0.5530 -1.2491  0.2472
15348TIP3   OH267458   6.079   1.489  15.229  0.6248  0.5223  0.2492
15348TIP3    H167459   6.145   1.463  15.165 -0.6199 -4.5667  0.8634
15348TIP3    H267460   6.002   1.512  15.177 -0.6744 -4.4280 -0.2740
15349TIP3   OH267461   4.137   2.957  14.155 -0.0722 -0.2303  0.4007
15349TIP3    H167462   4.218   2.975  14.107 -0.2969  0.0145  0.1096
15349TIP3    H267463   4.113   2.869  14.127 -0.2387 -0.0611  0.0110
15350TIP3   OH267464   1.641   2.938  15.057  0.3489  0.1792 -0.6796
15350TIP3    H167465   1.680   3.024  15.040 -3.9978  3.1526  3.1415
15350TIP3    H267466   1.680   2.910  15.140 -0.7124 -0.0092 -0.2482
15351TIP3   OH267467   2.430   3.505  15.712  0.4500 -0.0166 -0.5097
15351TIP3    H167468   2.338   3.483  15.727  0.6815 -0.4582  0.2759
15351TIP3    H267469   2.437   3.516  15.617 -0.0806 -1.4994 -0.7337
15352TIP3   OH267470   4.679   4.143  12.367 -0.0526  0.2983 -0.1899
15352TIP3    H167471   4.685   4.157  12.273 -0.5618 -1.5830 -0.5278
15352TIP3    H267472   4.765   4.168  12.401  0.7633 -0.7864 -1.4122
15353TIP3   OH267473   2.784   3.724  14.368 -0.1300 -0.2339 -0.2201
15353TIP3    H167474   2.751   3.786  14.302  0.0797  0.4157  0.2741
15353TIP3    H267475   2.706   3.690  14.410 -0.2528 -0.3831 -0.5703
15354TIP3   OH267476   2.333   4.426   3.087 -0.3855  0.1241 -1.0165
15354TIP3    H167477   2.360   4.465   3.004  2.4757  2.6919  1.0029
15354TIP3    H267478   2.269   4.487   3.123  1.1099  0.9704  0.2915
15355TIP3   OH267479   1.180   4.988  14.924 -0.2058 -0.5593 -0.2555
15355TIP3    H167480   1.235   4.941  14.861  0.9144 -1.5675  1.4472
15355TIP3    H267481   1.108   5.022  14.871  2.2205  1.1104 -2.5973
15356TIP3   OH267482   6.149   0.929  13.267 -0.4550 -0.3610  0.5022
15356TIP3    H167483   6.105   0.891  13.191  3.3730 -1.2678 -1.3679
15356TIP3    H267484   6.124   0.873  13.340 -0.9431 -1.9460 -0.8566
15357TIP3   OH267485   2.026   3.002   4.413  0.3351  0.6333  0.1957
15357TIP3    H167486   1.988   3.034   4.494 -2.9610 -1.0823 -0.5759
15357TIP3    H267487   1.986   3.056   4.345  1.4668  0.6800 -0.4413
15358TIP3   OH267488   5.388   3.379   3.131  0.3583  0.2174 -0.1349
15358TIP3    H167489   5.376   3.321   3.056 -1.8325  2.0325 -1.2386
15358TIP3    H267490   5.451   3.333   3.187  0.8348 -1.8789 -2.3229
15359TIP3   OH267491   3.227   6.545  14.610  0.6735 -0.6344 -0.1365
15359TIP3    H167492   3.138   6.564  14.638  0.8777 -0.0946  0.1586
15359TIP3    H267493   3.219   6.520  14.518  0.5454  2.4940 -1.0618
15360TIP3   OH267494   1.376   6.679   0.423 -0.4204 -0.4747 -0.2274
15360TIP3    H167495   1.421   6.705   0.343  0.3213 -0.0485  0.3266
15360TIP3    H267496   1.355   6.761   0.468 -1.7340 -0.6645 -0.4601
15361TIP3   OH267497   5.474   1.080   3.352 -0.3433  0.2172  0.0084
15361TIP3    H167498   5.500   1.172   3.356 -0.2436  0.1617  0.6205
15361TIP3    H267499   5.506   1.042   3.434  0.8716 -0.6918 -0.8814
15362TIP3   OH267500   3.109   0.243   0.504  0.4871  0.1275 -0.0884
15362TIP3    H167501   3.035   0.273   0.451 -1.7207 -1.7834  1.8212
15362TIP3    H267502   3.163   0.193   0.443 -0.8679 -0.1940 -1.0417
15363TIP3   OH267503   1.603   1.322  12.488  0.1547 -0.4632  0.0979
15363TIP3    H167504   1.514   1.356  12.500  0.4320  0.2817  0.0783
15363TIP3    H267505   1.593   1.227  12.492 -0.7272 -0.4026 -0.4488
15364TIP3   OH267506   5.087   2.252  15.053  0.1174  0.1023 -0.0738
15364TIP3    H167507   5.173   2.291  15.070 -0.7896  1.5091  1.4816
15364TIP3    H267508   5.075   2.189  15.124 -0.6857  0.8831  0.4996
15365TIP3   OH267509   4.034   4.533   4.646 -0.6523 -0.2242 -0.2883
15365TIP3    H167510   4.101   4.493   4.702 -0.6232 -1.3130 -1.0990
15365TIP3    H267511   4.027   4.623   4.679  0.7324 -0.2882  0.2380
15366TIP3   OH267512   4.324   3.090   4.973  0.4340 -0.0676  0.2900
15366TIP3    H167513   4.252   3.044   4.930  1.0091  0.2272 -0.9884
15366TIP3    H267514   4.399   3.032   4.962  1.3184  1.4316 -1.8957
15367TIP3   OH267515   6.007   3.827  12.123  0.2111  0.1496 -0.0562
15367TIP3    H167516   6.008   3.747  12.175 -0.2302  1.2687  1.7009
15367TIP3    H267517   6.095   3.834  12.088 -0.0492 -1.6828 -1.1432
15368TIP3   OH267518   4.772   1.229  14.540 -0.7727  0.4912 -0.3178
15368TIP3    H167519   4.757   1.209  14.448 -1.7628 -0.5414  0.0636
15368TIP3    H267520   4.815   1.315  14.539 -1.3000  0.7547 -1.7053
15369TIP3   OH267521   0.688   0.402   2.100  0.1428 -0.4878 -0.3541
15369TIP3    H167522   0.596   0.389   2.125  0.4101 -1.9750 -0.1193
15369TIP3    H267523   0.738   0.350   2.163  1.1953  0.7169 -0.1669
15370TIP3   OH267524   2.330   2.338  14.454  0.2218  0.0277 -0.0273
15370TIP3    H167525   2.392   2.267  14.473  1.5819  1.1761 -0.0392
15370TIP3    H267526   2.357   2.370  14.368 -0.1191  0.8057  0.1508
15371TIP3   OH267527   4.776   3.002   1.795  0.0521 -0.8128 -0.1687
15371TIP3    H167528   4.767   3.057   1.873 -0.1914  1.9910 -2.0699
15371TIP3    H267529   4.686   2.979   1.772  0.0179 -0.5461 -0.3170
15372TIP3   OH267530   3.786   2.168   3.864 -0.5211 -0.0327 -0.2960
15372TIP3    H167531   3.806   2.083   3.823  1.1005  0.9060 -1.5120
15372TIP3    H267532   3.867   2.218   3.854 -1.9156  2.1350 -0.7373
15373TIP3   OH267533   1.921   2.059   4.583  0.3726 -0.1899 -0.3187
15373TIP3    H167534   1.863   2.001   4.633  1.8434 -2.0356 -0.6656
15373TIP3    H267535   1.999   2.006   4.568  0.7748  1.0673 -2.7966
15374TIP3   OH267536   6.133   4.508  16.214 -0.1891  0.8755  0.1977
15374TIP3    H167537   6.133   4.598  16.183  0.0414  0.6058 -0.5869
15374TIP3    H267538   6.174   4.513  16.301 -1.4925  1.7266  0.7805
15375TIP3   OH267539   0.636   5.141   4.940  0.1100 -0.0799 -0.2611
15375TIP3    H167540   0.701   5.145   5.009 -0.5476 -0.6130  0.3934
15375TIP3    H267541   0.616   5.048   4.930  0.1873 -0.0093 -1.1558
15376TIP3   OH267542   4.693   2.160   0.487  0.2314  0.1162  0.2783
15376TIP3    H167543   4.602   2.135   0.473 -0.1571  2.2669 -1.2754
15376TIP3    H267544   4.689   2.233   0.548  0.6333  2.4071 -2.3572
15377TIP3   OH267545   4.433   5.449   2.421 -0.5921 -0.2755 -0.1263
15377TIP3    H167546   4.402   5.531   2.382 -1.2379 -0.9743 -1.1009
15377TIP3    H267547   4.459   5.473   2.510  1.2161  1.4004 -1.0941
15378TIP3   OH267548   1.605   6.766   3.699  0.0628 -0.0428  0.5503
15378TIP3    H167549   1.557   6.848   3.685  0.3806  0.1974  0.8615
15378TIP3    H267550   1.685   6.793   3.743 -0.0961 -0.5795  1.1726
15379TIP3   OH267551   1.131   0.872   0.749  1.0961 -0.2452  0.1938
15379TIP3    H167552   1.089   0.818   0.682  1.7844  0.6136 -0.9419
15379TIP3    H267553   1.140   0.958   0.709 -0.2723  0.8291  2.0904
15380TIP3   OH267554   2.723   4.364  13.059 -0.2071  0.4328  0.1881
15380TIP3    H167555   2.660   4.374  13.131 -1.4067 -1.9945 -0.4828
15380TIP3    H267556   2.802   4.406  13.092 -0.6595 -0.8151  3.0384
15381TIP3   OH267557   0.537   2.215  14.636 -0.4618 -0.0853 -0.4056
15381TIP3    H167558   0.489   2.250  14.560 -1.7785  1.5131  1.1279
15381TIP3    H267559   0.629   2.222  14.611 -0.9010 -0.9081 -2.4243
15382TIP3   OH267560   2.684   5.225  12.721 -0.1565 -0.4754 -0.4030
15382TIP3    H167561   2.614   5.163  12.742 -1.5256  0.1768 -2.8539
15382TIP3    H267562   2.656   5.266  12.640  2.5821  0.5923 -0.8634
15383TIP3   OH267563   2.463   2.146   5.950 -0.4706 -0.5785  0.1004
15383TIP3    H167564   2.381   2.184   5.980 -0.9284 -0.2335 -1.5112
15383TIP3    H267565   2.437   2.071   5.896  0.2870 -0.6442 -0.1889
15384TIP3   OH267566   5.278   4.591  12.154 -0.2875  0.4218  0.6973
15384TIP3    H167567   5.360   4.559  12.116 -0.1414  0.6467  0.8146
15384TIP3    H267568   5.232   4.512  12.182 -0.0257  0.3043  0.7986
15385TIP3   OH267569   2.990   2.593  13.683 -0.1511 -0.3562  0.0298
15385TIP3    H167570   3.045   2.657  13.730 -3.2070  2.3045  0.1562
15385TIP3    H267571   2.926   2.564  13.748 -1.8892  0.2841 -1.3532
15386TIP3   OH267572   0.187   5.634   1.777  0.1722  0.4259  0.0284
15386TIP3    H167573   0.236   5.690   1.717 -0.6408 -0.1734 -1.2243
15386TIP3    H267574   0.225   5.652   1.863  2.1424  0.4645 -0.8141
15387TIP3   OH267575   3.230   0.650   5.439 -0.4014 -0.0916  0.0314
15387TIP3    H167576   3.231   0.683   5.349 -1.0479  1.1760  0.4833
15387TIP3    H267577   3.322   0.629   5.457 -0.1607  0.3353 -0.6635
15388TIP3   OH267578   3.848   3.338   4.435 -0.2573  0.3205 -0.1768
15388TIP3    H167579   3.823   3.300   4.519 -0.6268  0.5357 -0.1868
15388TIP3    H267580   3.789   3.413   4.424 -0.6223 -0.0676 -0.9159
15389TIP3   OH267581   6.786   0.288  11.879 -0.0937 -0.1129  0.4199
15389TIP3    H167582   6.848   0.357  11.856 -0.1801 -0.6252 -1.4362
15389TIP3    H267583   6.818   0.210  11.833  0.3815 -1.5094  3.0066
15390TIP3   OH267584   6.154   6.256  15.767  0.2560  0.2733 -0.0384
15390TIP3    H167585   6.208   6.258  15.689  0.5117  3.4883  0.1647
15390TIP3    H267586   6.079   6.202  15.743  2.3098 -2.2022 -1.1105
15391TIP3   OH267587   5.335   4.905   6.826  0.6515  0.5279 -0.0167
15391TIP3    H167588   5.365   4.994   6.810  1.4414 -0.0549 -1.9011
15391TIP3    H267589   5.403   4.866   6.882  0.7924  0.7946 -0.0017
15392TIP3   OH267590   2.975   5.437  15.873  0.4925  0.0971 -0.0510
15392TIP3    H167591   2.990   5.354  15.920  0.9779  0.6535  0.7930
15392TIP3    H267592   2.893   5.470  15.909  0.1677 -0.1432 -0.5730
15393TIP3   OH267593   1.448   0.732  14.916  0.6947 -0.3903 -0.1363
15393TIP3    H167594   1.396   0.746  14.996  0.8955 -1.9481  0.2800
15393TIP3    H267595   1.382   0.714  14.848  0.5906 -0.4660 -0.0159
15394TIP3   OH267596   3.017   0.661  12.978  0.7200 -0.2033 -0.4410
15394TIP3    H167597   3.057   0.676  12.892 -0.0183 -0.1688 -0.7843
15394TIP3    H267598   3.043   0.573  13.002  0.4552 -0.4291 -0.9680
15395TIP3   OH267599   5.171   2.561   0.573  0.0000 -0.0679  0.4817
15395TIP3    H167600   5.173   2.466   0.556  0.2214  0.0966 -0.4471
15395TIP3    H267601   5.089   2.591   0.533 -0.1128  0.1235  0.8505
15396TIP3   OH267602   0.353   5.332   3.185 -0.6636  0.0882  0.0060
15396TIP3    H167603   0.399   5.395   3.242 -0.6350  0.7697 -0.7678
15396TIP3    H267604   0.423   5.280   3.146 -0.6195  0.3104 -0.2129
15397TIP3   OH267605   1.303   4.912  13.641 -0.4042  0.2151  0.3475
15397TIP3    H167606   1.359   4.927  13.565  0.4793 -2.3084  0.4429
15397TIP3    H267607   1.362   4.880  13.709 -1.0825  3.0189  2.3583
15398TIP3   OH267608   6.025   3.381   6.242  0.6732 -0.1010  0.1661
15398TIP3    H167609   5.994   3.454   6.296 -1.4235 -1.3136  0.6548
15398TIP3    H267610   6.120   3.395   6.235  0.4482  2.1144  1.0609
15399TIP3   OH267611   1.019   6.251  12.129 -0.0217  0.0858  0.2652
15399TIP3    H167612   0.932   6.280  12.100  0.6302  0.7628 -1.0812
15399TIP3    H267613   1.030   6.291  12.216 -0.5578  1.0341 -0.0947
15400TIP3   OH267614   0.310   2.042   2.717 -0.5540 -0.1955 -0.2918
15400TIP3    H167615   0.310   1.963   2.771 -2.9364 -0.4590 -0.6370
15400TIP3    H267616   0.219   2.053   2.690  0.1820  1.2214 -2.3648
15401TIP3   OH267617   4.482   3.876  12.958  0.0970 -0.8909 -0.0750
15401TIP3    H167618   4.504   3.880  13.051 -0.8362  0.7025  0.1015
15401TIP3    H267619   4.518   3.958  12.922 -0.7681 -0.8430 -0.8379
15402TIP3   OH267620   2.800   5.427  16.924 -0.0222 -0.2658  0.4457
15402TIP3    H167621   2.798   5.481  16.844 -0.1883 -2.2836 -0.9485
15402TIP3    H267622   2.764   5.343  16.897 -0.6219 -0.8054  2.8224
15403TIP3   OH267623   6.295   3.007  13.725  0.2274 -0.4044  0.0327
15403TIP3    H167624   6.238   2.988  13.650 -1.3339  3.4827  0.0957
15403TIP3    H267625   6.255   2.960  13.798 -0.9273 -0.4778 -0.6320
15404TIP3   OH267626   4.066   5.422   4.590  0.1421  0.2674  0.3172
15404TIP3    H167627   3.995   5.425   4.526 -0.6748  0.9269  1.2634
15404TIP3    H267628   4.031   5.463   4.669  0.4836 -2.2657  1.8566
15405TIP3   OH267629   2.060   0.919  12.568  0.2156 -0.4459  0.1327
15405TIP3    H167630   2.143   0.944  12.526 -0.3854 -0.5333 -1.1224
15405TIP3    H267631   1.993   0.950  12.508 -0.6874  0.1624  1.4461
15406TIP3   OH267632   6.282   0.608  12.270  0.3335 -0.4748 -0.4688
15406TIP3    H167633   6.356   0.654  12.231  1.3757 -2.2021 -0.6033
15406TIP3    H267634   6.302   0.605  12.363  0.3301 -0.7329 -0.4750
15407TIP3   OH267635   6.424   2.751   2.985  0.5274 -0.3619  0.6280
15407TIP3    H167636   6.513   2.766   2.952  0.0113  0.7930 -0.2739
15407TIP3    H267637   6.420   2.657   3.002  2.1919 -0.2902  1.4811
15408TIP3   OH267638   4.579   3.904   3.545 -0.0391 -0.3601  0.4974
15408TIP3    H167639   4.568   3.827   3.490  0.4097  0.1356 -0.2944
15408TIP3    H267640   4.536   3.881   3.628 -0.9590 -1.0057 -0.1537
15409TIP3   OH267641   4.356   3.916   5.456  0.6425  0.1770  0.0884
15409TIP3    H167642   4.379   3.983   5.392 -0.0452  1.2426  0.9584
15409TIP3    H267643   4.327   3.964   5.533  0.8190 -1.1082  0.9722
15410TIP3   OH267644   2.080   1.257  12.181  0.4777  0.3778 -0.0558
15410TIP3    H167645   2.172   1.258  12.156  0.7541  0.7446  0.9234
15410TIP3    H267646   2.057   1.350  12.191  0.4127  0.2506  1.1056
15411TIP3   OH267647   0.541   4.666  10.635 -0.0134 -0.0594 -0.1137
15411TIP3    H167648   0.493   4.738  10.674 -0.1003 -0.5584  0.7116
15411TIP3    H267649   0.604   4.708  10.576 -0.4910  0.6548 -0.1141
15412TIP3   OH267650   0.013   5.930  11.923  0.3021 -0.3355  0.3585
15412TIP3    H167651   0.035   5.839  11.901 -1.5706 -1.0771  1.4021
15412TIP3    H267652   0.044   5.981  11.849 -1.1278 -2.1594 -1.5628
15413TIP3   OH267653   2.150   1.651  12.377  0.2802  0.1399 -0.0679
15413TIP3    H167654   2.136   1.566  12.419 -0.5673 -0.1963 -0.9928
15413TIP3    H267655   2.067   1.698  12.390  0.4363  0.4848 -0.3148
15414TIP3   OH267656   2.411   6.533  16.119  0.3112 -0.3717  0.0646
15414TIP3    H167657   2.491   6.560  16.073 -1.3158  2.0982 -1.4470
15414TIP3    H267658   2.342   6.547  16.055 -1.5089 -1.1485  1.8248
15415TIP3   OH267659   6.274   1.584   1.765 -0.3205  0.0513  0.6493
15415TIP3    H167660   6.330   1.516   1.726  0.5153  0.2945  1.4422
15415TIP3    H267661   6.322   1.665   1.753 -1.4387  0.5611 -0.5237
15416TIP3   OH267662   5.220   1.962   3.863 -0.3305 -0.1036  0.5456
15416TIP3    H167663   5.246   1.964   3.771  1.5402  1.3048  1.0837
15416TIP3    H267664   5.204   1.869   3.882 -0.6656 -0.4029 -1.1637
15417TIP3   OH267665   4.840   5.504   5.033 -0.2344  0.3392 -0.5292
15417TIP3    H167666   4.823   5.455   5.113  0.0311 -0.2818 -0.8499
15417TIP3    H267667   4.785   5.462   4.967 -0.3109  0.7272 -0.7130
15418TIP3   OH267668   1.795   5.283   1.572 -0.0034 -0.6442 -0.2612
15418TIP3    H167669   1.755   5.253   1.653 -0.2240  0.4955  0.0598
15418TIP3    H267670   1.889   5.275   1.587 -0.0151  0.5153  0.4854
15419TIP3   OH267671   5.850   1.795   1.715 -0.5747 -0.2859 -0.0168
15419TIP3    H167672   5.892   1.722   1.670 -2.1376 -1.4320  0.3389
15419TIP3    H267673   5.864   1.777   1.808 -0.4788  0.1804  0.0624
15420TIP3   OH267674   2.134   3.584   4.181  0.3696  0.3153  0.6792
15420TIP3    H167675   2.166   3.622   4.100  0.1375 -1.2674 -0.1841
15420TIP3    H267676   2.072   3.648   4.215  0.7370  1.1526 -0.2122
15421TIP3   OH267677   0.909   1.942   0.013 -0.2222  0.3411  0.3653
15421TIP3    H167678   0.859   2.010  -0.032 -0.0517  0.5641  0.5119
15421TIP3    H267679   0.861   1.861  -0.006 -1.2133  0.6819  1.3314
15422TIP3   OH267680   3.882   1.711   3.447  0.8013 -0.3982  0.2199
15422TIP3    H167681   3.789   1.707   3.468  0.6458  1.7446  0.0470
15422TIP3    H267682   3.908   1.620   3.433 -1.0128 -1.0997  1.3466
15423TIP3   OH267683   4.332   6.640   5.551  0.0019 -0.1563  0.1393
15423TIP3    H167684   4.299   6.714   5.603  2.3436 -1.0644  3.0605
15423TIP3    H267685   4.275   6.567   5.575  1.0777 -0.5734  1.5093
15424TIP3   OH267686   3.092   2.780  11.437 -0.0558 -0.3454  0.4353
15424TIP3    H167687   3.072   2.841  11.507  0.5837 -1.5125  1.6722
15424TIP3    H267688   3.101   2.695  11.481  0.3355 -1.1014 -1.0571
15425TIP3   OH267689   1.614   1.591   5.527  0.1857 -0.0585 -0.0857
15425TIP3    H167690   1.566   1.565   5.449  0.7572 -0.6866 -0.2239
15425TIP3    H267691   1.663   1.513   5.553  1.2754  0.6289 -0.0501
15426TIP3   OH267692   4.768   3.853  16.474  0.1210  0.2395 -0.8057
15426TIP3    H167693   4.703   3.799  16.519  0.9052  0.1725  0.2493
15426TIP3    H267694   4.718   3.898  16.405 -0.7311 -1.0038 -1.0064
15427TIP3   OH267695   1.723   1.416  16.024  0.1257 -0.0318  0.4897
15427TIP3    H167696   1.665   1.350  16.063 -1.9801  1.4843  0.0231
15427TIP3    H267697   1.702   1.497  16.071  1.8600  0.5648  0.2720
15428TIP3   OH267698   0.034   1.916  15.760 -0.3942  0.0249 -0.5295
15428TIP3    H167699  -0.031   1.937  15.693  1.1903  0.4259 -1.9792
15428TIP3    H267700   0.117   1.948  15.725  0.5198  0.0410  1.5333
15429TIP3   OH267701   5.714   0.070   3.374 -0.8034  0.2053  0.1575
15429TIP3    H167702   5.718  -0.019   3.338 -0.1195 -0.4006  1.6698
15429TIP3    H267703   5.704   0.057   3.469  0.0813  1.7241  0.4793
15430TIP3   OH267704   1.448   1.128  13.569  0.0383  0.7824  0.1922
15430TIP3    H167705   1.533   1.088  13.586 -0.1480  1.1194  1.9460
15430TIP3    H267706   1.469   1.214  13.531  0.4801  0.8067  0.4893
15431TIP3   OH267707   6.662   1.009   1.366  0.5889  0.2668  0.5710
15431TIP3    H167708   6.582   1.003   1.314 -0.5563  1.1440  2.1984
15431TIP3    H267709   6.705   0.924   1.353 -0.0132  0.2130 -1.2177
15432TIP3   OH267710   2.801   2.501  14.591 -0.0362 -0.0628  0.2517
15432TIP3    H167711   2.824   2.499  14.684 -1.7174 -0.9394  0.6686
15432TIP3    H267712   2.796   2.594  14.570 -0.3189  0.1483  1.2203
15433TIP3   OH267713   5.664   0.284  14.798  0.1640 -0.2106  0.1456
15433TIP3    H167714   5.661   0.296  14.893  1.9636  0.5451  0.1276
15433TIP3    H267715   5.730   0.346  14.768 -0.9736  0.1408 -1.7151
15434TIP3   OH267716   0.948   1.014  15.890 -0.6248 -0.0865 -0.9268
15434TIP3    H167717   0.929   0.950  15.822  2.0482  0.1957 -2.0280
15434TIP3    H267718   1.037   1.046  15.869  0.5125 -0.4050  2.9757
15435TIP3   OH267719   0.129   1.314  15.033  0.4007  0.1983  0.0098
15435TIP3    H167720   0.157   1.398  14.995 -1.2040  0.2237 -1.1364
15435TIP3    H267721   0.087   1.267  14.961  0.2868 -1.1450  0.9225
15436TIP3   OH267722   1.730   0.528   6.321 -0.2558 -0.7806  0.5441
15436TIP3    H167723   1.770   0.611   6.347  0.6447 -1.7315  2.2616
15436TIP3    H267724   1.799   0.463   6.332 -0.8172 -1.7222 -1.2216
15437TIP3   OH267725   6.628   0.899  11.537  0.3850 -0.3166  0.3749
15437TIP3    H167726   6.672   0.977  11.504 -1.7258  0.6419 -0.2281
15437TIP3    H267727   6.564   0.877  11.469  0.8175 -2.4707  0.6230
15438TIP3   OH267728   4.943   3.847  14.236 -0.0519  0.7422  0.0396
15438TIP3    H167729   4.863   3.833  14.184  0.1053 -0.3589  0.0755
15438TIP3    H267730   4.917   3.825  14.325 -0.1146  1.8852  0.3037
15439TIP3   OH267731   3.770   0.961  10.267  0.3149 -0.6723 -0.0473
15439TIP3    H167732   3.688   0.969  10.317 -0.8364 -0.7318 -1.8891
15439TIP3    H267733   3.762   0.878  10.221  1.2006 -0.4403 -0.6189
15440TIP3   OH267734   1.832   4.555  17.038  0.4352 -0.6321 -0.1436
15440TIP3    H167735   1.780   4.630  17.066  0.5067 -0.4090 -0.6135
15440TIP3    H267736   1.881   4.530  17.116  1.6908  0.8531 -0.4391
15441TIP3   OH267737   2.668   5.514  10.707 -0.4082 -0.1702 -0.8931
15441TIP3    H167738   2.578   5.486  10.720 -0.6393 -0.0419 -2.0885
15441TIP3    H267739   2.721   5.442  10.741 -0.9152  1.0008  2.4641
15442TIP3   OH267740   4.195   4.973  12.843  0.4357 -0.2098  0.2071
15442TIP3    H167741   4.128   4.917  12.806 -1.1782  1.9061 -0.1870
15442TIP3    H267742   4.264   4.975  12.777 -0.3340 -0.2109 -0.5969
15443TIP3   OH267743   3.288   0.745  14.495 -1.1472  0.1671  0.2675
15443TIP3    H167744   3.354   0.707  14.437 -0.0608  1.1953  0.8128
15443TIP3    H267745   3.217   0.681  14.495  0.7949 -2.0603  1.4905
15444TIP3   OH267746   5.480   3.897   3.409  0.2248 -0.1052 -0.2989
15444TIP3    H167747   5.423   3.825   3.435  1.0709 -0.8472 -0.4732
15444TIP3    H267748   5.562   3.855   3.383  0.0993  0.7863 -2.1809
15445TIP3   OH267749   6.217   3.574   1.113 -0.2342 -0.7768  0.3418
15445TIP3    H167750   6.257   3.551   1.030 -2.0526  1.2185 -1.1323
15445TIP3    H267751   6.284   3.624   1.159  0.0624 -0.1209 -0.7892
15446TIP3   OH267752   3.084   0.915   3.179 -0.4455 -0.0194 -0.2423
15446TIP3    H167753   3.015   0.949   3.236  0.7128 -0.0167  1.1525
15446TIP3    H267754   3.111   0.990   3.127  0.6484  0.7100  1.3705
15447TIP3   OH267755   5.316   2.438   6.013  0.2363 -0.2192  0.2259
15447TIP3    H167756   5.372   2.451   6.090 -1.4694  0.6239  1.3554
15447TIP3    H267757   5.291   2.526   5.987 -1.7617 -0.6501  0.6400
15448TIP3   OH267758   3.162   4.406  16.448 -0.5924 -0.4812 -0.0107
15448TIP3    H167759   3.101   4.474  16.478  0.6385  0.8506 -0.4378
15448TIP3    H267760   3.157   4.338  16.515  0.3619  1.3695  1.9978
15449TIP3   OH267761   1.723   5.914  15.660 -0.1358 -0.4622  0.2317
15449TIP3    H167762   1.743   5.854  15.588  0.7227 -1.3624  1.2109
15449TIP3    H267763   1.807   5.953  15.684 -0.2159 -1.0189  1.4878
15450TIP3   OH267764   1.298   0.141  12.503  0.3118 -0.1720 -0.6132
15450TIP3    H167765   1.298   0.129  12.408  1.2326 -0.6772 -0.5545
15450TIP3    H267766   1.294   0.052  12.538  2.1807 -0.1071 -0.1792
15451TIP3   OH267767   1.062   3.181   2.455  0.6141 -0.4050 -0.3351
15451TIP3    H167768   1.021   3.267   2.467 -0.3694 -1.0141  0.7401
15451TIP3    H267769   1.085   3.178   2.362 -0.6200  0.4647 -0.6811
15452TIP3   OH267770   1.793   0.931  13.850 -0.3230 -0.1021  0.5338
15452TIP3    H167771   1.832   0.857  13.897 -2.0174  0.3359  2.7635
15452TIP3    H267772   1.846   1.006  13.875  0.4226 -0.2966 -0.4458
15453TIP3   OH267773   5.560   0.534   0.800 -0.0053 -0.0219 -0.0477
15453TIP3    H167774   5.544   0.625   0.776  1.2797  0.1614 -0.2389
15453TIP3    H267775   5.617   0.500   0.731  1.0524 -0.4288  1.0032
15454TIP3   OH267776   5.374   2.310   1.182  0.2253  0.0981  0.0043
15454TIP3    H167777   5.422   2.392   1.170  0.8202 -0.0984  0.9413
15454TIP3    H267778   5.293   2.322   1.134  0.6837  0.9130 -0.5748
15455TIP3   OH267779   6.457   1.256  15.157  0.1866  0.5081  0.4280
15455TIP3    H167780   6.434   1.172  15.196  1.7709  0.0945  0.5086
15455TIP3    H267781   6.496   1.233  15.073  2.6749  1.0076  1.4100
15456TIP3   OH267782   4.208   1.516  14.391  0.3563  0.3482 -0.0029
15456TIP3    H167783   4.219   1.469  14.309 -1.0632 -1.9402  1.0828
15456TIP3    H267784   4.298   1.526  14.425  0.7856 -0.3707 -0.9119
15457TIP3   OH267785   6.231   4.386  13.225 -0.3717 -0.4580 -0.0689
15457TIP3    H167786   6.290   4.337  13.282 -1.1540  1.3704  2.3950
15457TIP3    H267787   6.153   4.332  13.217 -0.8592 -0.0688  1.8711
15458TIP3   OH267788   5.915   4.467   0.732 -0.1703  0.0788 -0.2539
15458TIP3    H167789   5.967   4.417   0.670  0.6559  1.3381 -0.6003
15458TIP3    H267790   5.970   4.472   0.811  0.9342  2.6579 -1.1109
15459TIP3   OH267791   1.824   1.235  15.381 -0.3780  0.0283  0.3705
15459TIP3    H167792   1.831   1.228  15.476 -1.0805  0.3861  0.4490
15459TIP3    H267793   1.756   1.301  15.366 -1.7152 -1.4886 -0.3883
15460TIP3   OH267794   0.687   1.340   2.270  0.4586 -0.7119 -0.5867
15460TIP3    H167795   0.762   1.370   2.321 -0.2256  0.9984 -0.5444
15460TIP3    H267796   0.613   1.389   2.306 -0.3482 -0.9304 -1.9274
15461TIP3   OH267797   4.856   4.372   0.421 -0.9099 -0.2848 -0.2302
15461TIP3    H167798   4.833   4.340   0.508  1.0500  0.5811  0.6453
15461TIP3    H267799   4.814   4.458   0.414  0.9918  0.7856  0.9114
15462TIP3   OH267800   2.898   5.784  11.635  0.3646 -0.3869 -0.4336
15462TIP3    H167801   2.904   5.688  11.640  0.4415 -0.3085  1.1033
15462TIP3    H267802   2.886   5.812  11.725  1.3844  1.1374 -0.7562
15463TIP3   OH267803   6.175   4.835  16.348  0.4918  0.4945 -0.1775
15463TIP3    H167804   6.134   4.918  16.325 -1.5206 -0.4139  0.0196
15463TIP3    H267805   6.161   4.826  16.442 -0.5564 -0.7008 -0.4214
15464TIP3   OH267806   0.661   3.278   2.355  0.2756  0.3577  0.6823
15464TIP3    H167807   0.653   3.212   2.287 -0.8841 -1.3727  2.4614
15464TIP3    H267808   0.594   3.343   2.334  0.4024  0.2063 -0.2118
15465TIP3   OH267809   4.728   2.036   1.635  0.2241  0.3634 -0.8484
15465TIP3    H167810   4.712   2.028   1.541  2.0556  0.4134 -1.1851
15465TIP3    H267811   4.642   2.055   1.673 -0.6706 -0.5080 -2.4082
15466TIP3   OH267812   5.011   3.653   5.308  0.1835  0.2631 -0.3780
15466TIP3    H167813   5.085   3.686   5.359  1.1830 -1.3661 -0.7632
15466TIP3    H267814   4.974   3.732   5.268  2.0089  1.0586 -0.5757
15467TIP3   OH267815   5.779   5.743  16.522 -0.3406  0.1646 -0.0343
15467TIP3    H167816   5.695   5.789  16.524  1.3867  3.3765  2.6747
15467TIP3    H267817   5.775   5.683  16.596  0.1692  1.0871  0.7416
15468TIP3   OH267818   4.363   5.632   6.681 -0.0433  1.0214 -0.2980
15468TIP3    H167819   4.364   5.542   6.648  1.9986  1.4037 -1.3590
15468TIP3    H267820   4.271   5.649   6.702 -0.3421 -1.5636  0.6626
15469TIP3   OH267821   4.601   5.161  12.643 -0.2361 -0.0497 -0.2393
15469TIP3    H167822   4.622   5.185  12.733  2.0148 -1.9606 -0.1993
15469TIP3    H267823   4.674   5.106  12.615 -1.3866 -0.3168 -2.9073
15470TIP3   OH267824   5.315   3.252   0.898 -0.3191 -0.2120  0.0872
15470TIP3    H167825   5.339   3.290   0.813 -0.6739  0.2322  0.1812
15470TIP3    H267826   5.277   3.167   0.876 -2.6809  0.9357 -0.4034
15471TIP3   OH267827   0.001   5.942  12.523  0.1856  0.3851  0.2986
15471TIP3    H167828   0.027   5.955  12.432  1.1088 -0.0385  0.4992
15471TIP3    H267829  -0.024   6.030  12.553 -2.0014  0.2123 -0.9224
15472TIP3   OH267830   4.920   1.760   0.099  0.0216 -0.2061  0.0315
15472TIP3    H167831   4.859   1.799   0.162  0.0639  0.1818 -0.1607
15472TIP3    H267832   4.868   1.698   0.049  0.2498 -1.3511  1.2010
15473TIP3   OH267833   6.242   6.385  16.767 -0.0568 -0.1613 -0.0721
15473TIP3    H167834   6.291   6.377  16.686 -1.2561 -0.6276 -0.7610
15473TIP3    H267835   6.153   6.406  16.740 -0.5612 -0.7417  1.0957
15474TIP3   OH267836   0.614   1.696   2.756 -0.1688 -0.3903 -0.0842
15474TIP3    H167837   0.524   1.728   2.767  0.3572  0.7954  0.9575
15474TIP3    H267838   0.667   1.759   2.804  1.3073 -0.6368 -1.3669
15475TIP3   OH267839   5.315   6.424   0.831 -0.2296  0.1082  0.6459
15475TIP3    H167840   5.277   6.416   0.744  0.4019 -1.6958  0.4979
15475TIP3    H267841   5.409   6.412   0.817  0.1614  2.4192  1.2615
15476TIP3   OH267842   3.336   2.139   4.901  0.1297  0.0737  0.0744
15476TIP3    H167843   3.373   2.215   4.855  0.8620  0.2716  0.9856
15476TIP3    H267844   3.310   2.079   4.831  2.9717 -0.4486 -0.5636
15477TIP3   OH267845   2.126   3.484  15.753 -0.3561 -0.4233  0.3829
15477TIP3    H167846   2.157   3.575  15.753 -0.1252 -0.5001 -0.7995
15477TIP3    H267847   2.031   3.490  15.763 -0.2986 -0.0744  0.7326
15478TIP3   OH267848   0.547   2.420   0.525 -0.0171  0.1115 -0.2909
15478TIP3    H167849   0.518   2.407   0.435  1.8876  0.0545 -0.9168
15478TIP3    H267850   0.550   2.515   0.536 -0.9195  0.1130 -0.0641
15479TIP3   OH267851   5.130   6.235   1.254  0.3178  0.0062  0.0247
15479TIP3    H167852   5.122   6.331   1.257  0.3640 -0.0138  1.1302
15479TIP3    H267853   5.186   6.218   1.179  0.6148  0.8765  0.0403
15480TIP3   OH267854   3.686   0.088  10.404 -0.0229  0.0820 -0.3867
15480TIP3    H167855   3.749   0.021  10.432  0.1846  0.7589  0.7991
15480TIP3    H267856   3.716   0.168  10.448 -0.7069  0.7812 -1.2010
15481TIP3   OH267857   4.332   1.176   0.776  0.5465 -0.6434 -0.1589
15481TIP3    H167858   4.252   1.123   0.778  0.4916 -0.5564 -0.0296
15481TIP3    H267859   4.402   1.115   0.798  0.2768 -0.2836  1.7975
15482TIP3   OH267860   3.128   1.002   5.205 -0.3248  0.5928 -0.0768
15482TIP3    H167861   3.043   0.959   5.211  0.7170 -1.6959 -0.9404
15482TIP3    H267862   3.142   1.013   5.111  1.2474 -1.0506 -0.0717
15483TIP3   OH267863   4.884   5.427   2.940  0.0158  0.0453 -0.7270
15483TIP3    H167864   4.919   5.383   2.863 -0.4708 -2.2597  0.3433
15483TIP3    H267865   4.936   5.393   3.013 -0.3052  1.3242  0.1109
15484TIP3   OH267866   2.612   6.412   2.938  0.0816 -0.8013 -0.2483
15484TIP3    H167867   2.545   6.426   2.871 -2.1416 -2.5601  1.5525
15484TIP3    H267868   2.586   6.332   2.983  1.0994  0.7072  3.2351
15485TIP3   OH267869   5.202   5.986   4.095  0.4544  0.4320 -0.7946
15485TIP3    H167870   5.142   6.058   4.077 -0.1851 -0.2305 -1.3468
15485TIP3    H267871   5.202   5.978   4.190 -1.2350 -0.3037 -0.8360
15486TIP3   OH267872   0.620   2.843   0.011 -0.1516  0.5564  0.2837
15486TIP3    H167873   0.669   2.761   0.006 -1.5929 -0.5111  2.9529
15486TIP3    H267874   0.537   2.825  -0.033  1.0141  1.8090 -2.5700
15487TIP3   OH267875   3.000   1.469  11.806  0.1672  0.7815  0.0433
15487TIP3    H167876   2.918   1.514  11.787  0.0693  0.6449  0.1408
15487TIP3    H267877   3.041   1.457  11.720 -0.5789 -0.4145 -0.1653
15488TIP3   OH267878   2.568   2.520  12.222  0.2610  0.0146  0.1596
15488TIP3    H167879   2.590   2.441  12.172  1.3766  1.3283 -1.4834
15488TIP3    H267880   2.514   2.488  12.295 -1.4213 -1.9820 -1.8627
15489TIP3   OH267881   1.773   5.940  13.216 -0.1716 -0.6915 -0.1393
15489TIP3    H167882   1.837   5.923  13.286 -0.1235  3.0372  0.8219
15489TIP3    H267883   1.689   5.913  13.254  0.0372  0.0327  0.8565
15490TIP3   OH267884   4.206   1.064   3.674 -0.0350  0.3994 -0.1147
15490TIP3    H167885   4.243   0.993   3.621  3.3977  1.8116  0.2563
15490TIP3    H267886   4.196   1.137   3.612 -0.5177  0.5794  0.1735
15491TIP3   OH267887   2.418   6.114  13.669 -0.3789  0.3684  0.0657
15491TIP3    H167888   2.371   6.128  13.587  1.7290 -0.0116 -1.2529
15491TIP3    H267889   2.468   6.033  13.655 -0.2801  0.0829  1.8718
15492TIP3   OH267890   6.189   3.013   2.756 -0.2969  0.4171  0.3873
15492TIP3    H167891   6.137   3.091   2.738  1.7348  1.3092 -1.8364
15492TIP3    H267892   6.271   3.047   2.791  0.3478 -0.7520  0.0396
15493TIP3   OH267893   0.642   2.153   2.999  0.1880  0.2600  0.9284
15493TIP3    H167894   0.733   2.172   2.980  0.4001 -0.1224  1.5353
15493TIP3    H267895   0.635   2.163   3.094 -0.4604  0.5498  0.8521
15494TIP3   OH267896   2.955   1.408   4.301  0.6469  0.0893  0.1847
15494TIP3    H167897   2.997   1.466   4.364  0.6015  0.7431 -0.3810
15494TIP3    H267898   2.882   1.459   4.265  0.2016 -0.5474  0.1543
15495TIP3   OH267899   5.836   1.817  12.442 -0.0861  0.3612  0.4882
15495TIP3    H167900   5.899   1.744  12.441 -0.1523  0.3077 -0.0315
15495TIP3    H267901   5.877   1.885  12.388 -1.4762 -0.5455 -1.7945
15496TIP3   OH267902   6.362   2.858  13.107  0.0523 -0.2975 -0.6196
15496TIP3    H167903   6.375   2.817  13.021  1.4635 -0.9938 -0.0860
15496TIP3    H267904   6.422   2.811  13.165 -1.0640  0.0208  0.7977
15497TIP3   OH267905   5.878   4.406   2.372  0.2933  0.4413 -0.4571
15497TIP3    H167906   5.947   4.457   2.329  1.0758  1.3485  1.8427
15497TIP3    H267907   5.815   4.471   2.403 -0.1677 -0.1939 -0.0422
15498TIP3   OH267908   1.720   1.320  16.769 -0.5731  0.3270 -0.1135
15498TIP3    H167909   1.701   1.340  16.677  1.2542 -1.3223 -0.8896
15498TIP3    H267910   1.811   1.346  16.781  0.1520 -2.2944  0.3400
15499TIP3   OH267911   3.367   6.567   3.796  0.0168 -0.2761 -0.4428
15499TIP3    H167912   3.284   6.524   3.816  0.1883  0.0484  0.9794
15499TIP3    H267913   3.427   6.495   3.775 -0.1565 -0.6290  0.2433
15500TIP3   OH267914   3.395   2.348  14.663 -0.0200 -0.2032  0.1269
15500TIP3    H167915   3.452   2.271  14.676  0.1680 -0.3900 -1.6919
15500TIP3    H267916   3.429   2.389  14.584 -0.9279  1.0590  0.3863
15501TIP3   OH267917   2.257   1.830  13.933  0.1622  0.4189 -0.3001
15501TIP3    H167918   2.228   1.889  14.002 -1.1894  0.1250 -0.6140
15501TIP3    H267919   2.249   1.742  13.970 -1.2260  0.2190 -1.0671
15502TIP3   OH267920   6.354   5.157  12.072 -0.4976  0.2990  0.2381
15502TIP3    H167921   6.282   5.218  12.087 -0.1609  1.2741 -1.9474
15502TIP3    H267922   6.311   5.076  12.043 -0.8532 -0.0460  1.6836
15503TIP3   OH267923   3.863   4.154   0.940 -0.3699 -0.1662 -0.4163
15503TIP3    H167924   3.955   4.180   0.946 -0.9650  1.4725  2.4752
15503TIP3    H267925   3.847   4.103   1.019 -1.6618 -1.3953 -1.4545
15504TIP3   OH267926   6.067   6.400  16.098  0.1244 -0.0991 -0.1026
15504TIP3    H167927   6.084   6.306  16.092 -0.4671 -0.1240 -1.4699
15504TIP3    H267928   6.037   6.412  16.189  1.7370 -0.9597  0.5559
15505TIP3   OH267929   4.885   2.498   3.939  0.1020  0.4034 -0.1308
15505TIP3    H167930   4.862   2.518   3.848  2.1489  0.1580 -0.7264
15505TIP3    H267931   4.850   2.409   3.953 -1.9063  1.1762 -0.0334
15506TIP3   OH267932   1.264   0.990  13.073  0.1769 -0.0393 -0.4929
15506TIP3    H167933   1.357   1.002  13.094  0.0086  0.5619 -0.0558
15506TIP3    H267934   1.235   1.078  13.047 -0.5981  0.0609  0.7044
15507TIP3   OH267935   2.366   1.663   3.938  0.3979 -0.2858 -0.7074
15507TIP3    H167936   2.318   1.601   3.993  2.4635 -2.1716 -0.9331
15507TIP3    H267937   2.312   1.672   3.860  0.2680 -2.1987 -0.8715
15508TIP3   OH267938   2.091   4.021   4.849  0.2957  0.0632  0.2617
15508TIP3    H167939   2.000   4.024   4.880  0.4188  1.2285  0.5252
15508TIP3    H267940   2.092   3.948   4.786 -0.5641 -0.6468  1.0423
15509TIP3   OH267941   6.240   3.911   1.076 -0.2832 -0.0249 -0.1528
15509TIP3    H167942   6.305   3.842   1.068 -0.3381 -0.2345  1.1343
15509TIP3    H267943   6.219   3.914   1.169 -2.2260 -0.0522 -0.5759
15510TIP3   OH267944   5.493   5.354  15.687  0.0583  0.5673  0.8400
15510TIP3    H167945   5.410   5.311  15.708  1.1118 -2.6516 -1.1694
15510TIP3    H267946   5.471   5.418  15.620 -0.9867  0.6622  1.2634
15511TIP3   OH267947   3.317   0.437   5.083 -0.7351 -0.7096  0.3882
15511TIP3    H167948   3.277   0.514   5.124  1.4321  1.1398 -0.8791
15511TIP3    H267949   3.280   0.435   4.995 -1.8552 -1.9793  0.8672
15512TIP3   OH267950   1.168   1.859  10.779 -0.0847 -0.3655  0.2166
15512TIP3    H167951   1.192   1.796  10.847  1.3861 -1.0386 -0.8992
15512TIP3    H267952   1.210   1.940  10.805  1.1793 -0.8425 -0.3173
15513TIP3   OH267953   3.484   3.407   6.018 -0.4658 -0.1974 -0.4599
15513TIP3    H167954   3.549   3.343   6.048  0.0466  1.3538  1.9071
15513TIP3    H267955   3.537   3.483   5.992 -1.2651  0.6229  0.3037
15514TIP3   OH267956   2.564   4.725   3.412  0.2501 -0.2728  0.1935
15514TIP3    H167957   2.622   4.674   3.355 -0.6287 -1.4383  0.3344
15514TIP3    H267958   2.574   4.815   3.381  0.2637 -0.8007 -1.4001
15515TIP3   OH267959   1.496   1.746   3.406 -0.2931 -0.0915 -0.4066
15515TIP3    H167960   1.490   1.724   3.313 -1.0262 -2.0267  0.0754
15515TIP3    H267961   1.407   1.736   3.439  0.3230 -1.3464  0.9119
15516TIP3   OH267962   3.246   3.895   1.133  0.0255 -0.1302  0.0132
15516TIP3    H167963   3.162   3.849   1.130 -0.7180  1.1251  1.1735
15516TIP3    H267964   3.306   3.838   1.084 -0.1355 -3.7666  3.7451
15517TIP3   OH267965   5.401   1.469   6.423 -0.0127 -1.4488 -0.0777
15517TIP3    H167966   5.449   1.387   6.436  3.4775  0.7923  2.0538
15517TIP3    H267967   5.327   1.463   6.483  0.9095 -2.5385  0.9899
15518TIP3   OH267968   0.502   4.566  12.323  0.3850 -0.0503  0.1762
15518TIP3    H167969   0.526   4.657  12.310 -0.6184  0.3602  1.1137
15518TIP3    H267970   0.583   4.517  12.309  0.7585  0.9064 -1.0848
15519TIP3   OH267971   0.728   5.271  16.467  0.3297  0.5694  0.2142
15519TIP3    H167972   0.790   5.226  16.410 -1.1602  1.1144 -1.9006
15519TIP3    H267973   0.768   5.356  16.485  1.2454  0.0210  0.7765
15520TIP3   OH267974   3.398   0.018  13.878 -0.3034 -0.5588 -0.3652
15520TIP3    H167975   3.348   0.019  13.796 -1.3728 -0.4228  0.2808
15520TIP3    H267976   3.382  -0.069  13.914  0.1520 -0.6108 -0.2848
15521TIP3   OH267977   1.178   4.583   0.309  0.5010  0.6616  0.7285
15521TIP3    H167978   1.245   4.623   0.364  0.1070  1.8991  0.3270
15521TIP3    H267979   1.095   4.609   0.349  0.2323  0.0417  0.5923
15522TIP3   OH267980   6.161   2.348  13.125 -0.4036  0.2987 -0.2092
15522TIP3    H167981   6.188   2.263  13.160 -0.7640 -0.4339 -1.6445
15522TIP3    H267982   6.213   2.412  13.173 -0.6163 -0.6885  1.3665
15523TIP3   OH267983   5.282   4.362   1.051 -0.1281 -0.0251 -0.3833
15523TIP3    H167984   5.299   4.456   1.045 -2.3363  0.3376 -1.5477
15523TIP3    H267985   5.298   4.329   0.963 -1.8046 -0.2690 -0.6199
15524TIP3   OH267986   0.616   3.276  13.400  0.0203  0.0986  0.4413
15524TIP3    H167987   0.534   3.283  13.351  0.9683  0.8974 -1.0277
15524TIP3    H267988   0.663   3.203  13.359  0.5385  0.3529  0.5796
15525TIP3   OH267989   2.014   0.370  13.562 -0.1362 -0.1357  0.3767
15525TIP3    H167990   1.957   0.437  13.522 -0.9936 -1.5492 -0.8269
15525TIP3    H267991   1.954   0.300  13.586  1.0829 -1.6377 -0.8842
15526TIP3   OH267992   1.686   6.341  14.144 -0.6823  0.4675  0.3235
15526TIP3    H167993   1.653   6.253  14.166 -1.1155  0.4384 -0.4308
15526TIP3    H267994   1.752   6.326  14.077 -0.4597  0.6862  0.4926
15527TIP3   OH267995   1.626   0.076   4.435  0.4034  0.2521  0.8111
15527TIP3    H167996   1.707   0.123   4.419 -0.5950  1.5067 -0.8291
15527TIP3    H267997   1.653  -0.013   4.459  2.2504  0.4541 -0.4144
15528TIP3   OH267998   0.176   6.618   5.104 -0.3127 -0.1357 -0.6735
15528TIP3    H167999   0.124   6.581   5.033  1.2472 -1.1708 -1.2824
15528TIP3    H268000   0.195   6.544   5.161 -0.8572  0.5388  0.3925
15529TIP3   OH268001   6.283   5.015  16.762  0.3354 -0.3453  0.1445
15529TIP3    H168002   6.298   5.003  16.668 -1.1466 -0.3678 -0.1030
15529TIP3    H268003   6.197   4.977  16.778 -0.1805  1.1856  1.1799
15530TIP3   OH268004   6.158   3.201   2.503  0.1629 -0.6111 -0.1848
15530TIP3    H168005   6.077   3.252   2.498 -0.4180 -1.4236  0.6032
15530TIP3    H268006   6.204   3.220   2.422  0.3960  1.8697  0.4792
15531TIP3   OH268007   6.589   1.564   5.299  0.4849  0.1564  0.3401
15531TIP3    H168008   6.587   1.554   5.394  1.3935 -1.0209  0.2375
15531TIP3    H268009   6.528   1.636   5.282  0.9765  0.9594  1.8788
15532TIP3   OH268010   1.716   5.664  16.334 -0.0871  0.4003  0.4373
15532TIP3    H168011   1.656   5.680  16.407  2.0211 -1.0651  2.5250
15532TIP3    H268012   1.746   5.751  16.308 -2.6399  1.1108 -0.2724
15533TIP3   OH268013   3.506   1.547  12.604  0.7774 -0.4198  0.2419
15533TIP3    H168014   3.571   1.517  12.666  0.2619 -0.0834  0.9479
15533TIP3    H268015   3.471   1.628  12.641  1.4542  0.5458 -1.1609
15534TIP3   OH268016   4.088   3.476   4.349 -0.3119  0.1104 -0.1737
15534TIP3    H168017   4.099   3.455   4.256 -1.1863 -0.2531 -0.2066
15534TIP3    H268018   4.011   3.425   4.376 -0.3797  0.6169  0.6164
15535TIP3   OH268019   4.613   6.197   1.756  0.1648 -0.1203 -0.9652
15535TIP3    H168020   4.670   6.250   1.812 -0.0562 -0.6327 -0.2442
15535TIP3    H268021   4.632   6.107   1.782 -1.3122 -0.2733 -0.4032
15536TIP3   OH268022   0.775   0.164  12.671 -0.1166 -0.1877  0.2078
15536TIP3    H168023   0.680   0.166  12.686 -0.1393 -0.9246  0.1463
15536TIP3    H268024   0.799   0.256  12.658 -0.9274 -0.0620 -0.4313
15537TIP3   OH268025   4.407   1.140  14.946 -0.1381  0.4446 -0.4111
15537TIP3    H168026   4.369   1.056  14.968 -1.3044  1.1554  0.3009
15537TIP3    H268027   4.465   1.121  14.872 -2.2706 -0.5680 -1.8813
15538TIP3   OH268028   0.772   2.621   5.850  0.2742 -0.1802  0.2551
15538TIP3    H168029   0.834   2.635   5.922 -1.0270  1.0658  1.1687
15538TIP3    H268030   0.695   2.583   5.892 -0.9353  1.6282 -0.2524
15539TIP3   OH268031   2.954   0.162  13.065  0.1190 -0.5071 -0.2592
15539TIP3    H168032   2.909   0.236  13.025 -1.4876 -0.2111  1.9945
15539TIP3    H268033   2.890   0.091  13.062  0.8049 -1.1221 -0.3022
15540TIP3   OH268034   2.439   0.364  10.708 -0.2823  0.2580  0.6330
15540TIP3    H168035   2.421   0.452  10.673  0.0020  0.5879  1.3073
15540TIP3    H268036   2.354   0.334  10.740 -0.0617  0.9681  1.9117
15541TIP3   OH268037   0.464   3.353   1.926 -0.1146 -0.2556 -0.0724
15541TIP3    H168038   0.433   3.332   1.838  1.5791  0.7470 -0.9350
15541TIP3    H268039   0.551   3.391   1.913  0.2155 -0.1934  2.0447
15542TIP3   OH268040   4.856   6.292   4.302 -0.2700 -0.0466 -0.5612
15542TIP3    H168041   4.771   6.269   4.342  0.5050 -1.2086  0.4656
15542TIP3    H268042   4.849   6.261   4.212 -1.0305  0.0746 -0.5470
15543TIP3   OH268043   0.796   5.878  11.469  0.0644  0.0860 -0.5271
15543TIP3    H168044   0.782   5.972  11.478 -2.7772 -0.3242  0.0062
15543TIP3    H268045   0.734   5.851  11.401  0.4039 -1.4878 -0.2306
15544TIP3   OH268046   5.647   3.968   3.647 -0.1830 -0.0869 -0.6820
15544TIP3    H168047   5.589   3.921   3.587 -0.0494  0.9419 -1.6465
15544TIP3    H268048   5.663   4.051   3.603 -1.5170  1.4340  1.6260
15545TIP3   OH268049   5.511   0.870   2.020 -0.1856  0.1559  0.4464
15545TIP3    H168050   5.595   0.867   2.066  0.3866  0.1896 -0.5840
15545TIP3    H268051   5.478   0.780   2.025  1.2273 -0.5057 -1.5447
15546TIP3   OH268052   1.413   4.293  12.397 -0.1299  0.1873  0.2450
15546TIP3    H168053   1.463   4.353  12.341  0.1632 -0.0922  0.2087
15546TIP3    H268054   1.391   4.219  12.340  0.4304 -0.2404  0.5782
15547TIP3   OH268055   6.680   0.873   0.319  0.1492 -0.3839 -0.0856
15547TIP3    H168056   6.673   0.840   0.408  0.1709  0.4311  0.2282
15547TIP3    H268057   6.773   0.864   0.297  0.4367  0.8442  0.5563
15548TIP3   OH268058   3.497   1.710  13.827  0.6367  0.3471 -0.1247
15548TIP3    H168059   3.505   1.796  13.868 -0.5708  0.1717  0.4896
15548TIP3    H268060   3.510   1.648  13.898 -1.4776  0.0404  0.0432
15549TIP3   OH268061   6.039   0.976   0.455 -0.0844 -0.1222  0.2302
15549TIP3    H168062   6.057   1.030   0.532 -1.5004  0.1699  0.3699
15549TIP3    H268063   6.010   1.038   0.388 -2.7042 -0.7708  0.7003
15550TIP3   OH268064   5.946   1.980   2.544  0.2024  0.6089  0.5103
15550TIP3    H168065   6.024   1.925   2.550 -0.0698  0.2844  1.2182
15550TIP3    H268066   5.908   1.959   2.459  0.4767  0.2153  0.4831
15551TIP3   OH268067   5.831   0.165  16.730 -0.3556  0.0852  0.0806
15551TIP3    H168068   5.849   0.156  16.636 -2.0410 -2.0790 -0.0853
15551TIP3    H268069   5.768   0.238  16.735  0.2195  0.6198 -0.3960
15552TIP3   OH268070   0.243   0.767  10.842 -0.2467  0.0499  0.1270
15552TIP3    H168071   0.262   0.682  10.802 -0.6110 -0.3164  0.7215
15552TIP3    H268072   0.267   0.831  10.775  0.4398 -0.5048 -0.1618
15553TIP3   OH268073   2.119   1.376   4.270  0.2818  0.9817 -0.5471
15553TIP3    H168074   2.026   1.392   4.253  0.1877  0.1485 -0.8520
15553TIP3    H268075   2.163   1.401   4.189  0.0612 -0.8852 -1.2856
15554TIP3   OH268076   0.469   5.108   0.120  0.0664  0.0176  0.0262
15554TIP3    H168077   0.386   5.156   0.119 -0.8933 -1.5948  0.3779
15554TIP3    H268078   0.513   5.135   0.040 -1.4165 -0.1412 -0.8740
15555TIP3   OH268079   6.157   4.763  15.100 -0.0882  0.0602 -0.2449
15555TIP3    H168080   6.232   4.774  15.042 -2.2227  4.1253 -2.4384
15555TIP3    H268081   6.110   4.688  15.064  0.4953  0.3381 -1.6039
15556TIP3   OH268082   6.304   0.128  11.366 -0.2230  0.0705  0.0414
15556TIP3    H168083   6.335   0.104  11.454  0.0182  0.0978 -0.0371
15556TIP3    H268084   6.369   0.091  11.307 -0.3251  0.1519 -0.1213
15557TIP3   OH268085   5.058   4.771   0.841 -0.3690 -0.0365 -0.5426
15557TIP3    H168086   5.151   4.767   0.866 -0.9880 -0.2933  1.8326
15557TIP3    H268087   5.034   4.863   0.854 -0.3596  0.1097 -1.5301
15558TIP3   OH268088   5.407   6.482   4.119  0.4986 -0.1288  0.0505
15558TIP3    H168089   5.461   6.420   4.169 -1.1244 -0.3199  1.6366
15558TIP3    H268090   5.436   6.568   4.149 -1.6570 -0.2694  2.6882
15559TIP3   OH268091   0.312   2.674   3.539  0.1291 -0.1691 -1.0137
15559TIP3    H168092   0.385   2.621   3.570  0.5891  1.1652  0.2254
15559TIP3    H268093   0.349   2.726   3.468  0.2942  0.2511 -0.6197
15560TIP3   OH268094   5.842   4.889  14.843 -0.4994  0.2329  0.3531
15560TIP3    H168095   5.855   4.848  14.928  0.4556 -0.5237 -0.1381
15560TIP3    H268096   5.764   4.943  14.853 -0.7710 -0.3678  1.5126
15561TIP3   OH268097   2.331   5.379  16.429  0.7099  0.1327  0.0525
15561TIP3    H168098   2.350   5.286  16.443  0.6560  0.2709  1.0983
15561TIP3    H268099   2.240   5.381  16.399  0.0820 -0.0208  1.8991
15562TIP3   OH268100   6.040   6.131   3.526 -0.1254 -0.8191  0.5199
15562TIP3    H168101   5.966   6.147   3.585  0.3893 -0.2265  1.0054
15562TIP3    H268102   6.114   6.113   3.584  0.1460 -1.2746  0.0371
15563TIP3   OH268103   0.564   6.710   5.699 -0.4995  0.0579  0.2145
15563TIP3    H168104   0.652   6.728   5.732 -0.8169 -0.7637  1.5223
15563TIP3    H268105   0.507   6.723   5.774 -1.2452 -1.7756 -0.0108
15564TIP3   OH268106   1.405   6.087  12.060  0.7250  0.6235 -0.7472
15564TIP3    H168107   1.418   6.010  12.114 -0.8886  0.3952 -0.6676
15564TIP3    H268108   1.493   6.108  12.026  1.9495  1.2705  2.5790
15565TIP3   OH268109   6.217   1.424  13.969 -0.0229  0.6159  0.1907
15565TIP3    H168110   6.288   1.389  14.023  0.4187 -1.3088 -1.5702
15565TIP3    H268111   6.262   1.463  13.894 -0.6770  2.3110  0.6698
15566TIP3   OH268112   3.501   6.229  15.991  0.4029 -0.1579 -0.3181
15566TIP3    H168113   3.427   6.225  15.930  1.3227  2.3862 -1.6672
15566TIP3    H268114   3.517   6.322  16.004  1.1346 -0.6534  2.7725
15567TIP3   OH268115   2.600   2.138  13.404  0.8498  0.4200  0.1610
15567TIP3    H168116   2.562   2.147  13.492  0.5465 -1.2298  0.2062
15567TIP3    H268117   2.529   2.161  13.345  0.7372  0.4689  0.3114
15568TIP3   OH268118   3.059   1.295  11.561 -0.2218 -0.3807  0.0824
15568TIP3    H168119   3.044   1.315  11.468 -0.7576 -2.6700 -0.3528
15568TIP3    H268120   3.154   1.292  11.570 -0.1414  1.3038 -0.0518
15569TIP3   OH268121   3.425   5.358   2.589 -0.0855 -0.1434  0.4593
15569TIP3    H168122   3.475   5.283   2.621 -0.8055 -0.6064  0.5070
15569TIP3    H268123   3.339   5.349   2.630 -1.1929 -1.0212 -1.9715
15570TIP3   OH268124   2.136   6.391  12.124  0.5759 -0.3055 -0.0508
15570TIP3    H168125   2.201   6.327  12.153 -0.5433 -1.1999  0.5585
15570TIP3    H268126   2.151   6.399  12.030  1.1113 -1.0436 -0.0324
15571TIP3   OH268127   2.408   5.842  15.159 -0.7868  0.3349 -0.2407
15571TIP3    H168128   2.420   5.747  15.149 -1.1095  0.2493  0.1621
15571TIP3    H268129   2.337   5.850  15.222 -1.0046  0.8475 -0.5525
15572TIP3   OH268130   0.703   0.396   3.303  0.1618  0.0078 -0.6054
15572TIP3    H168131   0.662   0.482   3.312 -1.3932 -0.8486  0.9365
15572TIP3    H268132   0.702   0.378   3.209 -3.4123 -0.1183 -0.6222
15573TIP3   OH268133   0.601   5.995   4.396 -0.2859 -0.3743  0.1193
15573TIP3    H168134   0.599   6.072   4.452 -0.2769 -0.9010  0.8607
15573TIP3    H268135   0.606   5.921   4.457 -0.9909 -0.9899 -0.5555
15574TIP3   OH268136   1.979   2.031  12.124 -0.4670  0.1465  0.4408
15574TIP3    H168137   1.916   1.996  12.062 -1.1559  0.3816  1.0077
15574TIP3    H268138   1.927   2.087  12.182  0.2563  0.3233  0.9206
15575TIP3   OH268139   1.635   2.567  12.412 -0.1439 -0.4412  0.5080
15575TIP3    H168140   1.609   2.602  12.327  0.7471 -1.7098 -0.3112
15575TIP3    H268141   1.576   2.493  12.426  0.2753 -0.7551  0.6047
15576TIP3   OH268142   2.016   2.845   5.666  0.2343 -0.1018 -0.0827
15576TIP3    H168143   2.028   2.764   5.617  0.8771  0.0516 -0.1889
15576TIP3    H268144   1.966   2.820   5.744 -0.3400 -0.4370 -0.5630
15577TIP3   OH268145   3.370   4.597  16.078  0.5159  0.5219  0.2099
15577TIP3    H168146   3.294   4.652  16.061 -1.7272 -2.2672  0.7094
15577TIP3    H268147   3.387   4.552  15.995  0.6109 -0.0439  0.5300
15578TIP3   OH268148   4.482   3.020  12.317  0.3731  0.2587 -0.5913
15578TIP3    H168149   4.557   3.078  12.303 -1.4771  2.5219 -1.4840
15578TIP3    H268150   4.426   3.068  12.379 -0.5859 -1.1486 -0.3435
15579TIP3   OH268151   2.164   0.542  15.666 -0.5803 -0.2528 -0.0052
15579TIP3    H168152   2.238   0.482  15.669 -2.3559 -2.4943 -0.1664
15579TIP3    H268153   2.162   0.582  15.753  1.4406  0.6666 -0.3375
15580TIP3   OH268154   0.097   3.397   0.653  0.0661  0.0107 -0.2611
15580TIP3    H168155   0.082   3.375   0.745  2.0668 -0.4702 -0.0182
15580TIP3    H268156   0.123   3.489   0.655 -1.6085  0.5023 -0.5485
15581TIP3   OH268157   0.541   5.819  11.333  0.0078  0.5522  0.0953
15581TIP3    H168158   0.604   5.840  11.264 -0.2813 -2.1710 -1.0640
15581TIP3    H268159   0.506   5.734  11.308 -1.8788  0.6184  2.3666
15582TIP3   OH268160   3.026   4.215   2.166  0.2702  0.1578 -0.6575
15582TIP3    H168161   2.966   4.287   2.144 -1.4081 -0.6637  1.1597
15582TIP3    H268162   2.994   4.141   2.114  0.5628  0.1030 -0.7564
15583TIP3   OH268163   5.961   5.391   2.554  0.3788 -0.5601  0.0833
15583TIP3    H168164   5.972   5.362   2.463  1.9358  2.1278 -0.6433
15583TIP3    H268165   6.050   5.409   2.584 -0.2976  0.5446  1.4605
15584TIP3   OH268166   4.713   4.804   1.833  0.4292 -0.2958 -0.3771
15584TIP3    H168167   4.620   4.809   1.810  0.4616 -0.8595 -0.6492
15584TIP3    H268168   4.759   4.823   1.751  0.5439 -2.1676 -0.7912
15585TIP3   OH268169   6.277   2.525  16.519 -0.0488 -0.2654  0.0739
15585TIP3    H168170   6.210   2.539  16.452  0.6025  0.6223 -0.3905
15585TIP3    H268171   6.243   2.452  16.571 -0.8792 -0.5133 -0.7992
15586TIP3   OH268172   1.926   3.116  16.332  0.2059  1.3014  0.1646
15586TIP3    H168173   1.932   3.158  16.418  0.3555  2.7937 -0.5546
15586TIP3    H268174   1.833   3.113  16.313 -0.0588 -1.7535  1.6570
15587TIP3   OH268175   2.246   2.947   0.564 -0.1759  0.4345  0.0675
15587TIP3    H168176   2.197   3.029   0.569 -0.3594  0.3850 -0.9219
15587TIP3    H268177   2.192   2.885   0.614 -0.2191  0.8191  0.5071
15588TIP3   OH268178   2.849   2.392   0.140 -0.0790  0.3925 -0.1896
15588TIP3    H168179   2.796   2.411   0.062  0.6586  0.5535 -0.6674
15588TIP3    H268180   2.812   2.447   0.209 -0.6639  0.3416 -0.4659
15589TIP3   OH268181   4.558   0.750   3.633 -0.4213 -0.1380  0.3885
15589TIP3    H168182   4.495   0.696   3.681 -2.1814  0.2186 -1.4504
15589TIP3    H268183   4.632   0.760   3.694 -1.3267 -2.1051  1.8886
15590TIP3   OH268184   6.528   4.532  15.145 -0.4061  0.3303  0.0714
15590TIP3    H168185   6.560   4.467  15.208 -2.1380 -0.0903  0.5288
15590TIP3    H268186   6.580   4.516  15.066  1.0293  0.1577  1.0358
15591TIP3   OH268187   0.461   1.202   2.436  0.2754 -0.0601 -0.1095
15591TIP3    H168188   0.511   1.143   2.378  0.2478 -1.3267  1.1355
15591TIP3    H268189   0.477   1.168   2.524 -0.3168  1.3927  0.5732
15592TIP3   OH268190   6.239   0.920  10.656  0.5523  0.0328  0.4707
15592TIP3    H168191   6.170   0.986  10.655  0.9368  0.5063  2.4027
15592TIP3    H268192   6.294   0.945  10.730  2.1663 -0.9774 -0.3677
15593TIP3   OH268193   2.100   3.644  11.466  0.0834 -1.1473  0.5210
15593TIP3    H168194   2.073   3.640  11.374  0.5344  1.8163  0.2162
15593TIP3    H268195   2.195   3.633  11.464 -0.0339 -2.2615  0.7555
15594TIP3   OH268196   5.991   6.354  16.376 -0.1070  0.2459  0.2782
15594TIP3    H168197   6.009   6.261  16.379  0.5084  0.3450 -0.2173
15594TIP3    H268198   5.909   6.365  16.424 -0.9068 -0.7320 -0.8375
15595TIP3   OH268199   5.810   1.006  12.117 -0.5604  0.6535  0.3175
15595TIP3    H168200   5.721   1.019  12.147 -0.5465  1.1285  0.1614
15595TIP3    H268201   5.810   0.919  12.077 -1.3735  1.3301 -1.2103
15596TIP3   OH268202   3.874   0.468   5.607 -0.0941  0.1185  0.3400
15596TIP3    H168203   3.827   0.417   5.672 -0.9672  2.0036  1.2418
15596TIP3    H268204   3.912   0.403   5.548  0.6182 -1.6216  2.6389
15597TIP3   OH268205   5.050   1.006   2.488  0.0904 -0.7001 -0.3665
15597TIP3    H168206   4.997   1.056   2.551  0.0339 -0.2946 -0.7308
15597TIP3    H268207   5.003   1.015   2.405  0.3545 -0.9346 -0.5425
15598TIP3   OH268208   2.800   2.161   2.400  0.0661 -0.4680 -0.2064
15598TIP3    H168209   2.864   2.103   2.442  0.7513  1.0619  0.8957
15598TIP3    H268210   2.852   2.233   2.365 -0.8788 -0.0890 -0.8444
15599TIP3   OH268211   3.420   0.732  12.511  0.1966  0.0020 -0.1225
15599TIP3    H168212   3.419   0.799  12.578 -1.2642  0.9606 -1.0747
15599TIP3    H268213   3.422   0.780  12.428 -1.6699 -1.0753 -0.8368
15600TIP3   OH268214   2.544   1.412  12.947  0.1358  0.3944 -0.0023
15600TIP3    H168215   2.481   1.483  12.958  0.4742  0.9478 -1.4887
15600TIP3    H268216   2.519   1.370  12.864  0.6073 -0.5401  0.3145
15601TIP3   OH268217   3.864   3.724  13.802 -0.1339 -0.0823 -0.1966
15601TIP3    H168218   3.789   3.709  13.859  1.3367  0.4246  1.9424
15601TIP3    H268219   3.923   3.651  13.820  1.2133  1.1287  0.4344
15602TIP3   OH268220   0.021   0.401   4.802 -0.1533 -0.1371 -0.0162
15602TIP3    H168221   0.090   0.464   4.783 -0.6474  0.4970  0.2918
15602TIP3    H268222   0.009   0.353   4.720 -0.3689  0.7379 -0.4972
15603TIP3   OH268223   5.281   4.539  15.135  0.0576 -0.4194 -0.4207
15603TIP3    H168224   5.295   4.548  15.040 -2.3493  0.6113 -0.7084
15603TIP3    H268225   5.292   4.445  15.151 -1.3422 -0.8963 -2.0491
15604TIP3   OH268226   0.677   4.131   3.368 -0.3479 -0.3768 -0.0453
15604TIP3    H168227   0.627   4.180   3.433  0.7432 -1.8655  1.9890
15604TIP3    H268228   0.610   4.094   3.310 -1.2502  2.3086 -0.8045
15605TIP3   OH268229   0.057   4.762   3.140  0.1958 -0.2770 -0.0066
15605TIP3    H168230  -0.005   4.711   3.087  0.5167  0.0854 -0.7417
15605TIP3    H268231   0.003   4.830   3.180  0.4619  1.4860 -2.5042
15606TIP3   OH268232   3.654   5.054   5.642  0.0603 -0.7071  0.1725
15606TIP3    H168233   3.621   5.094   5.562  0.6257 -1.8127 -0.6208
15606TIP3    H268234   3.749   5.052   5.630  0.1725 -0.6182  0.9991
15607TIP3   OH268235   3.252   4.819   5.205 -0.1480 -0.6121 -0.0523
15607TIP3    H168236   3.183   4.783   5.260  1.0313 -2.5143  0.2484
15607TIP3    H268237   3.245   4.770   5.123 -0.6822  0.8674 -0.8954
15608TIP3   OH268238   5.808   1.031  13.016 -0.4553  0.6279 -0.9662
15608TIP3    H168239   5.869   0.960  13.037  1.8186  2.3366 -1.7211
15608TIP3    H268240   5.732   0.986  12.980  0.2173 -1.5507  0.2170
15609TIP3   OH268241   2.378   1.198  12.179 -0.5348 -0.1918 -0.0122
15609TIP3    H168242   2.396   1.250  12.101  2.7498 -1.0549  0.0954
15609TIP3    H268243   2.387   1.107  12.150 -0.2523 -0.5457  1.1434
15610TIP3   OH268244   3.146   6.747  15.706  0.1266  1.0348  0.2497
15610TIP3    H168245   3.220   6.762  15.646 -1.2099  0.9521 -1.4520
15610TIP3    H268246   3.127   6.654  15.697 -1.7880  1.5432 -1.2495
15611TIP3   OH268247   0.176   5.639   0.315 -0.1648 -0.1248  0.5614
15611TIP3    H168248   0.167   5.670   0.405 -0.7254  0.3770  0.3368
15611TIP3    H268249   0.093   5.597   0.295  0.1739 -0.7536  0.4729
15612TIP3   OH268250   3.217   1.579  14.530 -0.0893  0.2598 -0.1401
15612TIP3    H168251   3.245   1.488  14.524  0.8015  0.2903  2.6072
15612TIP3    H268252   3.134   1.576  14.576 -1.5469  0.6545 -2.6771
15613TIP3   OH268253   0.508   0.288   0.950 -0.3347  0.2423  0.2480
15613TIP3    H168254   0.552   0.286   0.865 -0.2273  0.5634  0.2949
15613TIP3    H268255   0.483   0.379   0.962 -1.8264 -0.1064 -0.1841
15614TIP3   OH268256   4.114   4.600  16.662 -0.4921 -0.5176 -0.0206
15614TIP3    H168257   4.058   4.565  16.594 -0.8511  1.4346 -0.7548
15614TIP3    H268258   4.063   4.590  16.743 -1.1924 -0.3251 -0.4346
15615TIP3   OH268259   0.061   4.365   5.251  0.7456 -0.3925  0.0685
15615TIP3    H168260   0.001   4.293   5.274 -0.6925  0.6564 -0.2964
15615TIP3    H268261   0.037   4.436   5.311  1.4025  0.1446 -0.2996
15616TIP3   OH268262   3.660   6.490  13.942  0.3636 -0.2545  0.3292
15616TIP3    H168263   3.570   6.506  13.972  0.4768 -0.1117  0.5923
15616TIP3    H268264   3.656   6.404  13.901  0.0947 -0.2275  0.2939
15617TIP3   OH268265   2.437   3.007   5.982  0.1825 -0.0418  0.7054
15617TIP3    H168266   2.373   2.949   5.941  0.4464 -0.1679  0.4784
15617TIP3    H268267   2.441   2.978   6.073  1.0039 -0.9760  0.3789
15618TIP3   OH268268   0.124   1.320  12.583  0.0240  0.2599 -0.2296
15618TIP3    H168269   0.122   1.390  12.648 -0.8302 -0.8700  0.9928
15618TIP3    H268270   0.034   1.316  12.550 -0.0104 -0.4825 -0.0512
15619TIP3   OH268271   2.095   5.609  16.511 -0.2495 -0.5350 -0.0899
15619TIP3    H168272   2.059   5.537  16.562 -0.0500 -0.8199 -0.3509
15619TIP3    H268273   2.018   5.662  16.486 -0.5504 -1.4084 -1.0677
15620TIP3   OH268274   6.649   3.331   3.669  0.2607 -0.0903  0.0415
15620TIP3    H168275   6.630   3.278   3.591 -0.9793 -0.1222  0.3586
15620TIP3    H268276   6.619   3.419   3.645  0.5188  0.0501  0.2358
15621TIP3   OH268277   0.724   6.676  15.616 -0.4407 -0.3612 -0.0580
15621TIP3    H168278   0.757   6.756  15.575 -0.3946 -0.6635 -0.6144
15621TIP3    H268279   0.801   6.635  15.654 -0.7590  0.8929  2.0411
15622TIP3   OH268280   0.021   5.340  14.002  0.1668 -0.4414  0.2589
15622TIP3    H168281   0.011   5.285  13.925  1.7876  0.0032 -0.2828
15622TIP3    H268282   0.077   5.290  14.061  3.3761  1.4265 -1.0864
15623TIP3   OH268283   1.863   2.968  11.881  0.3423 -0.4156  0.1366
15623TIP3    H168284   1.805   2.923  11.819 -0.6372 -2.0666  2.1846
15623TIP3    H268285   1.807   3.034  11.923  0.4642 -0.6522  0.6771
15624TIP3   OH268286   4.418   1.008   4.408  0.0974 -0.3316  0.2143
15624TIP3    H168287   4.503   0.968   4.394  0.2452 -0.1874  0.7138
15624TIP3    H268288   4.433   1.074   4.476 -0.0882  0.7230 -0.7399
15625TIP3   OH268289   6.543   2.627   0.422  0.7229  0.8254  0.1521
15625TIP3    H168290   6.526   2.547   0.472  1.0795  0.8020  0.2393
15625TIP3    H268291   6.476   2.689   0.452  0.2668  0.4698 -0.1247
15626TIP3   OH268292   1.934   5.717  12.170  0.0877  0.1304 -0.3497
15626TIP3    H168293   1.958   5.748  12.258  1.3802  2.1514 -1.3698
15626TIP3    H268294   1.839   5.727  12.166  0.0071 -0.0824  0.8644
15627TIP3   OH268295   5.328   2.407  14.927  0.5071 -0.1905  0.2654
15627TIP3    H168296   5.355   2.463  14.999  2.6313 -1.3817  0.4290
15627TIP3    H268297   5.374   2.324  14.942 -2.8151 -2.1630  0.2405
15628TIP3   OH268298   1.903   0.747  15.433 -0.0828 -0.0989  0.2393
15628TIP3    H168299   1.970   0.815  15.435  0.6463 -0.7269 -1.5771
15628TIP3    H268300   1.823   0.793  15.406  1.0143 -0.3631 -3.7596
15629TIP3   OH268301   0.637   3.300   6.169 -0.6300 -0.0392 -0.2203
15629TIP3    H168302   0.567   3.242   6.200 -1.4536  0.7131 -0.6330
15629TIP3    H268303   0.604   3.388   6.187  0.4690  0.3184  0.1073
15630TIP3   OH268304   3.135   3.367  15.810 -0.3500  0.4917 -0.2289
15630TIP3    H168305   3.185   3.294  15.775  1.6644  1.5795  0.3232
15630TIP3    H268306   3.074   3.327  15.872  0.5376 -0.7458 -0.1546
15631TIP3   OH268307   4.597   6.229   4.323  0.1542 -1.1866  0.3631
15631TIP3    H168308   4.583   6.169   4.396 -1.3759 -0.2740  0.8288
15631TIP3    H268309   4.562   6.183   4.247  0.7871 -1.6947  0.3715
15632TIP3   OH268310   4.720   1.939   6.046  0.7432 -0.5402 -0.3700
15632TIP3    H168311   4.650   1.995   6.081  2.3786  2.0008 -1.0108
15632TIP3    H268312   4.682   1.901   5.967 -0.4549 -0.4878  0.1571
15633TIP3   OH268313   6.085   0.126   1.353 -0.3256 -0.3667 -0.3976
15633TIP3    H168314   6.096   0.110   1.260  0.3452  0.9041 -0.5368
15633TIP3    H268315   6.059   0.217   1.360 -0.0760 -0.3628  0.6725
15634TIP3   OH268316   3.176   2.264  15.556 -0.1702 -0.5050  0.2800
15634TIP3    H168317   3.233   2.189  15.536 -1.0913 -1.5825  1.5879
15634TIP3    H268318   3.234   2.327  15.600  0.4172 -0.8304 -0.0213
15635TIP3   OH268319   3.797   0.919  14.734  0.9102 -0.1182 -0.2230
15635TIP3    H168320   3.790   0.934  14.828  0.3157  0.3070 -0.3301
15635TIP3    H268321   3.855   0.844  14.726  1.1877  0.0200  0.4728
15636TIP3   OH268322   4.302   4.072  14.329 -0.1811 -0.7421  0.1859
15636TIP3    H168323   4.216   4.104  14.355  1.1313  1.7146  1.6702
15636TIP3    H268324   4.329   4.131  14.259  1.0718 -0.2823  1.0333
15637TIP3   OH268325   0.860   4.263  14.591  0.0552  0.1382  0.0371
15637TIP3    H168326   0.881   4.182  14.638 -2.4094 -1.1142 -0.9333
15637TIP3    H268327   0.832   4.324  14.659 -0.2650 -0.5545  0.5340
15638TIP3   OH268328   2.990   4.931  14.410  0.1890  0.0240  0.5787
15638TIP3    H168329   3.061   4.989  14.382  1.2215 -1.1263  0.8174
15638TIP3    H268330   3.026   4.843  14.403 -0.4801 -0.4495  2.8486
15639TIP3   OH268331   1.209   0.302   0.294  0.3682 -0.4133 -0.1838
15639TIP3    H168332   1.118   0.276   0.281  0.3899 -0.2053 -0.7383
15639TIP3    H268333   1.205   0.395   0.317  0.1557 -1.2411  3.4639
15640TIP3   OH268334   1.676   0.412   5.158  0.1646  0.0759 -0.2668
15640TIP3    H168335   1.664   0.369   5.242 -2.3667  1.6283  0.2188
15640TIP3    H268336   1.627   0.359   5.096 -2.0143  1.5685  0.1321
15641TIP3   OH268337   3.941   1.681   4.924  0.0964 -0.3862 -0.1055
15641TIP3    H168338   4.000   1.609   4.902 -0.0865 -1.2194  2.0326
15641TIP3    H268339   3.898   1.704   4.841  1.9022 -1.1311 -1.2633
15642TIP3   OH268340   4.548   6.748  12.984  0.0473 -0.0975 -0.1457
15642TIP3    H168341   4.557   6.714  12.895 -1.0514 -1.2169  0.1666
15642TIP3    H268342   4.639   6.759  13.014  0.4432  1.3205 -1.7675
15643TIP3   OH268343   5.985   4.168   6.091  0.1654 -0.0336  0.3347
15643TIP3    H168344   6.022   4.246   6.049  0.5055  0.2955  1.2361
15643TIP3    H268345   6.061   4.117   6.119 -0.0592 -0.4529  0.1844
15644TIP3   OH268346   4.953   0.487  16.502  0.2607 -0.1674 -0.2156
15644TIP3    H168347   4.990   0.543  16.570  0.1780 -0.2938 -0.0690
15644TIP3    H268348   4.860   0.509  16.500  0.7792  2.1618 -2.4650
15645TIP3   OH268349   4.194   6.259   2.293  0.4928 -0.4823  0.0013
15645TIP3    H168350   4.204   6.349   2.260  2.0932 -0.1681  1.3225
15645TIP3    H268351   4.100   6.252   2.312  0.1138  0.4452 -1.3978
15646TIP3   OH268352   0.782   2.940   5.280  0.4823 -0.3434  0.5379
15646TIP3    H168353   0.692   2.924   5.249 -0.0112  1.7077  0.8324
15646TIP3    H268354   0.810   2.856   5.314 -0.9310 -1.3035 -0.5708
15647TIP3   OH268355   2.987   5.783  16.006 -0.1663  0.1313  0.0967
15647TIP3    H168356   2.903   5.768  16.049 -0.0909  0.2017  0.2682
15647TIP3    H268357   2.969   5.850  15.940  0.2639  1.9284  1.7530
15648TIP3   OH268358   1.556   6.539   2.177 -0.0585 -0.0704 -0.6961
15648TIP3    H168359   1.489   6.542   2.109  0.5563  1.2881 -1.2690
15648TIP3    H268360   1.610   6.464   2.154 -0.7903 -0.5783 -0.7937
15649TIP3   OH268361   5.526   0.915  13.828 -0.2115  0.1675  0.1531
15649TIP3    H168362   5.576   0.855  13.773 -0.2339 -0.2303  0.5616
15649TIP3    H268363   5.435   0.902  13.801 -0.3488 -0.8618  1.0601
15650TIP3   OH268364   0.252   3.048  12.794  1.2116  0.3250  0.0388
15650TIP3    H168365   0.280   3.104  12.866 -0.8748  0.5129  0.7114
15650TIP3    H268366   0.217   3.109  12.729 -1.1018 -0.1799  0.7886
15651TIP3   OH268367   4.960   4.635  15.569 -0.4274 -0.0685  0.1494
15651TIP3    H168368   5.031   4.582  15.606  0.1619  0.8920  0.4142
15651TIP3    H268369   4.954   4.608  15.478  0.6755  0.2550 -0.0221
15652TIP3   OH268370   5.939   1.404   4.063 -0.7067  0.1953 -0.0998
15652TIP3    H168371   5.864   1.418   4.005 -1.8411  0.2236  1.3439
15652TIP3    H268372   5.986   1.488   4.062  0.5623 -0.4740 -2.6954
15653TIP3   OH268373   4.335   2.119   0.963 -0.0831 -0.4039 -0.1556
15653TIP3    H168374   4.246   2.145   0.989 -0.2978 -0.7491 -0.5405
15653TIP3    H268375   4.352   2.170   0.884  0.3017  0.1260  0.2690
15654TIP3   OH268376   1.725   5.022  11.141  0.5374 -0.0868 -0.5527
15654TIP3    H168377   1.735   5.051  11.050  0.2724 -0.3320 -0.6602
15654TIP3    H268378   1.743   4.928  11.138 -0.0247 -0.1979 -0.4433
15655TIP3   OH268379   6.448   2.823  11.774 -0.0463 -0.3235 -0.4285
15655TIP3    H168380   6.456   2.863  11.860 -2.0261 -1.1614  0.1845
15655TIP3    H268381   6.389   2.881  11.726  0.9625  0.0841 -1.1958
15656TIP3   OH268382   2.665   6.769  11.824  0.1059  0.4298 -0.2367
15656TIP3    H168383   2.724   6.793  11.753  1.2922  1.0197  0.9222
15656TIP3    H268384   2.591   6.726  11.781  2.3029 -2.1638 -1.5429
15657TIP3   OH268385   0.129   5.767   2.984 -0.1999  0.1924  0.6925
15657TIP3    H168386   0.173   5.766   2.899 -0.1336  1.2624  0.7110
15657TIP3    H268387   0.184   5.712   3.040  1.2664  1.7300  0.7832
15658TIP3   OH268388   0.720   2.478  12.701  0.0797 -0.1154  0.2842
15658TIP3    H168389   0.761   2.564  12.711  1.2810 -0.6555 -0.0406
15658TIP3    H268390   0.750   2.446  12.617  0.2063 -1.1778  0.7298
15659TIP3   OH268391   1.846   0.024   5.434  0.6217 -0.2498 -0.2569
15659TIP3    H168392   1.940   0.024   5.416  0.4746 -2.2565 -1.1405
15659TIP3    H268393   1.838  -0.019   5.519  0.6925  2.3604  1.1141
15660TIP3   OH268394   6.267   4.341  12.402  0.0009 -0.2277 -0.3090
15660TIP3    H168395   6.257   4.296  12.319 -0.7340 -1.9059  0.6665
15660TIP3    H268396   6.294   4.430  12.378 -0.5806 -0.5705 -2.3389
15661TIP3   OH268397   1.361   2.981   4.031 -0.1380 -0.0377 -0.5250
15661TIP3    H168398   1.277   2.973   4.076  0.6069 -0.9734  0.7309
15661TIP3    H268399   1.381   3.075   4.035 -0.2098 -0.0781  0.8488
15662TIP3   OH268400   5.994   4.614  15.427 -0.1008 -0.6777 -0.2155
15662TIP3    H168401   6.080   4.619  15.467 -0.2365  1.9708 -0.1602
15662TIP3    H268402   5.987   4.524  15.396  2.7522 -0.8907 -0.3840
15663TIP3   OH268403   2.526   2.065  11.520 -0.4901 -0.3511 -0.5295
15663TIP3    H168404   2.452   2.014  11.552 -0.6821 -0.3389 -0.9520
15663TIP3    H268405   2.582   2.001  11.477 -0.5395 -0.2665 -0.7182
15664TIP3   OH268406   2.244   4.124   1.063  0.2810  0.6550 -0.3262
15664TIP3    H168407   2.316   4.184   1.086  1.0365  0.2373 -1.5357
15664TIP3    H268408   2.252   4.113   0.969 -0.5450 -0.4733 -0.2726
15665TIP3   OH268409   3.907   5.244  14.017 -0.1080  0.1915 -0.3374
15665TIP3    H168410   3.914   5.151  14.039 -1.9766  0.0256 -0.3748
15665TIP3    H268411   3.995   5.269  13.989  0.2575 -1.7392 -0.9785
15666TIP3   OH268412   3.658   4.737  16.882 -0.0760 -0.4563 -0.0307
15666TIP3    H168413   3.682   4.651  16.849  0.1990  0.6872 -2.9687
15666TIP3    H268414   3.612   4.779  16.809 -0.9282  1.5987  1.6136
15667TIP3   OH268415   5.273   6.233  11.487 -0.2903  0.7205  0.6507
15667TIP3    H168416   5.260   6.328  11.490 -0.6282  0.7314 -0.7729
15667TIP3    H268417   5.261   6.211  11.394  1.1980 -0.5068  0.7478
15668TIP3   OH268418   6.520   1.778   0.642 -0.0937  0.6518 -0.0814
15668TIP3    H168419   6.543   1.686   0.627 -1.0043  0.4967 -0.5688
15668TIP3    H268420   6.563   1.800   0.725 -0.6783 -0.5135  0.5465
15669TIP3   OH268421   2.631   4.680   3.833  0.6517 -0.8665  0.3340
15669TIP3    H168422   2.641   4.667   3.927  1.9573  1.6116  0.5712
15669TIP3    H268423   2.598   4.770   3.824 -0.4360 -1.4060 -1.5357
15670TIP3   OH268424   6.602   5.113   4.415  0.2802 -0.5603 -0.1963
15670TIP3    H168425   6.537   5.045   4.396  0.0457 -1.7358  4.3346
15670TIP3    H268426   6.550   5.193   4.424  0.0693 -0.5530 -1.3666
15671TIP3   OH268427   2.271   0.232  17.211 -0.2953 -0.5855  0.3520
15671TIP3    H168428   2.191   0.238  17.159 -0.1392 -0.8506  0.0791
15671TIP3    H268429   2.241   0.202  17.297 -0.4897 -0.6853  0.2505
15672TIP3   OH268430   2.824   1.803   5.259 -0.6239 -0.1638 -0.2490
15672TIP3    H168431   2.862   1.743   5.323 -1.1670  1.6364  1.8103
15672TIP3    H268432   2.869   1.782   5.177  0.8641 -1.7641  0.9405
15673TIP3   OH268433   3.943   2.118   0.335 -0.5590 -0.1361 -0.4315
15673TIP3    H168434   3.861   2.112   0.384 -0.1003  2.3977  0.7600
15673TIP3    H268435   3.918   2.149   0.248 -0.8295  1.7120  0.2646
15674TIP3   OH268436   2.008   0.934  13.463  0.1197 -0.1326  0.1678
15674TIP3    H168437   2.004   0.863  13.527  0.7469  0.5490  0.9619
15674TIP3    H268438   2.031   1.012  13.514 -3.0707  1.1945 -0.2547
15675TIP3   OH268439   4.278   5.321  10.620  0.1369 -0.1978 -0.4794
15675TIP3    H168440   4.250   5.239  10.581  1.0525 -0.0566 -1.4343
15675TIP3    H268441   4.341   5.296  10.687 -0.5060 -0.3509  0.0745
15676TIP3   OH268442   1.690   3.447  14.647  0.0758 -0.4453  0.2447
15676TIP3    H168443   1.622   3.502  14.688  0.1336 -2.1186  2.6545
15676TIP3    H268444   1.643   3.398  14.579 -0.7027 -0.0509  0.4882
15677TIP3   OH268445   2.831   5.159   3.508  0.1856  0.4296  0.2392
15677TIP3    H168446   2.916   5.201   3.498  0.0417  0.5510 -0.5408
15677TIP3    H268447   2.799   5.148   3.418 -0.9446  1.0818  0.5471
15678TIP3   OH268448   2.986   0.595  16.954  0.8580 -0.1679 -0.3323
15678TIP3    H168449   2.950   0.511  16.925 -0.2131  0.2653 -0.2817
15678TIP3    H268450   2.986   0.589  17.050  0.8099 -0.1311 -0.3301
15679TIP3   OH268451   5.620   6.100  15.190  0.1217 -0.1991 -0.6678
15679TIP3    H168452   5.616   6.122  15.097  1.3715  0.7146 -0.5147
15679TIP3    H268453   5.607   6.183  15.235  1.7462 -0.2617 -0.0532
15680TIP3   OH268454   5.526   2.143  10.871  0.4783  0.0261  0.4497
15680TIP3    H168455   5.461   2.198  10.915 -1.3947 -0.8228 -1.1730
15680TIP3    H268456   5.554   2.081  10.939  0.2265  0.9426  1.4030
15681TIP3   OH268457   4.402   1.680  11.570 -0.4120  0.1140  0.4209
15681TIP3    H168458   4.370   1.713  11.654 -1.2007 -0.5258  0.3778
15681TIP3    H268459   4.440   1.595  11.591  0.0490  0.2765  0.2490
15682TIP3   OH268460   0.474   6.170   4.222  0.3156  0.0888  0.1299
15682TIP3    H168461   0.525   6.117   4.284 -0.5009  0.7561  1.3830
15682TIP3    H268462   0.383   6.157   4.249  0.0937  1.9682  0.3129
15683TIP3   OH268463   4.486   5.849   3.622 -0.0588 -0.1795  0.5669
15683TIP3    H168464   4.568   5.822   3.582  0.2782  0.4117  0.8526
15683TIP3    H268465   4.423   5.782   3.595  0.4012 -0.3644 -0.0610
15684TIP3   OH268466   1.699   2.708  12.920  0.6670 -0.5469  0.1514
15684TIP3    H168467   1.604   2.716  12.907  0.9313  0.8424 -1.1285
15684TIP3    H268468   1.711   2.718  13.014 -0.3070  1.1318  0.1199
15685TIP3   OH268469   1.532   1.527  10.171  0.3007  0.4077  0.0566
15685TIP3    H168470   1.612   1.564  10.134  0.3045  1.4005  1.0305
15685TIP3    H268471   1.541   1.542  10.265 -1.6412  1.7210  0.0542
15686TIP3   OH268472   2.073   6.410   3.647 -0.1148  0.1662 -0.1734
15686TIP3    H168473   2.152   6.410   3.701  0.0661 -0.2490 -0.4399
15686TIP3    H268474   2.015   6.473   3.690 -0.4023 -0.9848  1.1348
15687TIP3   OH268475   2.266   5.826   6.596 -0.1295 -0.1827  0.0860
15687TIP3    H168476   2.218   5.746   6.615 -1.1892 -0.2294 -2.6161
15687TIP3    H268477   2.200   5.895   6.601  0.5604  0.4195  1.2880
15688TIP3   OH268478   4.318   0.956   2.486  0.5496 -0.1474 -0.2218
15688TIP3    H168479   4.354   0.929   2.571  0.6842  0.8698  0.0475
15688TIP3    H268480   4.226   0.975   2.504  0.4154 -0.5844 -0.4444
15689TIP3   OH268481   5.240   0.680   6.685 -0.9373  0.1836 -0.6469
15689TIP3    H168482   5.308   0.622   6.652 -1.6654  0.0114 -1.8865
15689TIP3    H268483   5.160   0.650   6.642 -1.7529  0.5515  0.5822
15690TIP3   OH268484   4.879   5.575  14.116 -0.1285 -0.4672 -0.0070
15690TIP3    H168485   4.959   5.587  14.064  0.0545  0.1376  0.4183
15690TIP3    H268486   4.904   5.512  14.183  0.1496  0.1518  0.4715
15691TIP3   OH268487   1.545   6.273  14.874  0.2920 -0.3000 -0.7502
15691TIP3    H168488   1.607   6.209  14.910 -0.7179 -0.9116 -0.0835
15691TIP3    H268489   1.545   6.345  14.937 -0.7130 -0.9174 -0.0466
15692TIP3   OH268490   5.316   1.209  14.847  0.2981 -0.3178 -0.3422
15692TIP3    H168491   5.307   1.273  14.777  1.0499 -0.1726 -0.3131
15692TIP3    H268492   5.238   1.220  14.901  0.6930  0.9488 -0.0324
15693TIP3   OH268493   2.892   1.848  14.422  0.3060  0.1861 -0.1251
15693TIP3    H168494   2.814   1.877  14.469  1.1607  0.5194  1.1174
15693TIP3    H268495   2.951   1.923  14.427  1.8291 -1.0710  1.5102
15694TIP3   OH268496   6.327   4.966  15.377 -0.0455 -0.4752 -0.3553
15694TIP3    H168497   6.237   4.956  15.347  0.6137 -2.7554 -1.7480
15694TIP3    H268498   6.323   4.951  15.471 -0.9298 -2.1835 -0.6382
15695TIP3   OH268499   1.287   4.781  11.501 -0.0995  0.6321 -0.3444
15695TIP3    H168500   1.276   4.796  11.407  0.5446  1.8957 -0.2377
15695TIP3    H268501   1.283   4.686  11.512  0.2691  0.4555 -1.7024
15696TIP3   OH268502   4.745   4.374  14.413  0.4635 -0.1702 -0.3786
15696TIP3    H168503   4.820   4.379  14.473 -0.1964 -2.4716  0.7083
15696TIP3    H268504   4.779   4.324  14.338  0.7474  1.0826 -1.1019
15697TIP3   OH268505   5.734   6.433   3.689 -0.0835  0.0242 -0.2646
15697TIP3    H168506   5.670   6.410   3.756  1.3659 -1.3641  0.6628
15697TIP3    H268507   5.812   6.460   3.738  0.2683  1.0935 -1.3763
15698TIP3   OH268508   0.699   1.483   0.054 -0.1768  0.2538  0.1682
15698TIP3    H168509   0.745   1.408   0.016 -1.3251 -0.0955 -0.5459
15698TIP3    H268510   0.725   1.483   0.146  3.0187  1.3862 -0.6523
15699TIP3   OH268511   0.851   2.797  10.892  0.3865 -0.2510 -0.0578
15699TIP3    H168512   0.938   2.818  10.858 -0.3733  1.6286 -0.9516
15699TIP3    H268513   0.856   2.705  10.918  2.0337 -0.7406 -1.9968
15700TIP3   OH268514   0.183   5.630  12.113 -0.2149 -0.1718  0.0908
15700TIP3    H168515   0.110   5.692  12.100 -2.0560 -2.2365  0.2815
15700TIP3    H268516   0.197   5.591  12.027 -1.4363 -2.0258  0.7179
15701TIP3   OH268517   3.682   0.650  16.354  0.0727  0.0841  0.1415
15701TIP3    H168518   3.619   0.669  16.424  0.0442  0.1721  0.0898
15701TIP3    H268519   3.727   0.571  16.384  0.9798  0.8749  0.8696
15702TIP3   OH268520   6.447   6.388   2.636 -0.5726 -0.1045  0.3674
15702TIP3    H168521   6.466   6.383   2.730 -0.8575  1.5102  0.5244
15702TIP3    H268522   6.452   6.297   2.606  0.3307 -0.5392  1.7777
15703TIP3   OH268523   6.514   4.146   5.981 -0.7405  0.1720  0.4661
15703TIP3    H168524   6.607   4.138   6.000 -0.8269  1.1923  1.3748
15703TIP3    H268525   6.490   4.062   5.942  1.3373  1.1642 -3.2009
15704TIP3   OH268526   3.468   0.116   4.361 -0.0862  0.1949 -0.3632
15704TIP3    H168527   3.498   0.157   4.441 -0.1545 -0.2113 -0.1272
15704TIP3    H268528   3.496   0.175   4.291  0.0176  0.5209 -0.0456
15705TIP3   OH268529   3.818   2.005   5.626  0.5778 -0.0416  0.6927
15705TIP3    H168530   3.814   1.994   5.721  1.2555 -2.6803  0.4456
15705TIP3    H268531   3.726   2.010   5.599  0.3870  0.9677  1.5116
15706TIP3   OH268532   0.115   3.366   4.051 -0.1659 -0.2259  0.4989
15706TIP3    H168533   0.120   3.461   4.039  1.5833 -0.1392  1.6191
15706TIP3    H268534   0.083   3.355   4.141 -1.4037 -0.7307  0.0176
15707TIP3   OH268535   1.490   2.223   4.242 -0.2267  0.2584  0.0063
15707TIP3    H168536   1.515   2.177   4.322  0.1503  1.6421  0.7010
15707TIP3    H268537   1.438   2.297   4.273  0.1397  0.9508 -1.0296
15708TIP3   OH268538   6.107   0.148  14.288  0.6685 -0.1164 -0.3211
15708TIP3    H168539   6.167   0.113  14.222  2.2563  0.5975  0.7011
15708TIP3    H268540   6.030   0.175  14.239  0.8298 -1.8487 -1.5567
15709TIP3   OH268541   3.315   5.012  16.881 -0.6330  0.3167 -0.7890
15709TIP3    H168542   3.319   4.925  16.921 -0.3465  0.0099 -1.4783
15709TIP3    H268543   3.284   5.069  16.951 -0.9773 -0.3688 -0.3800
15710TIP3   OH268544   5.920   3.784   0.712 -0.2569  0.1632  0.1063
15710TIP3    H168545   5.988   3.814   0.652 -0.2220 -0.5206 -0.1984
15710TIP3    H268546   5.960   3.710   0.758  0.0003  1.1828  1.5437
15711TIP3   OH268547   1.476   5.039  12.290  0.0499  0.3271 -0.4566
15711TIP3    H168548   1.489   5.030  12.385  0.0179 -0.6472 -0.5394
15711TIP3    H268549   1.563   5.025  12.252 -0.0563  0.0863 -0.6118
15712TIP3   OH268550   5.463   2.367   6.696  0.3591 -0.1400 -0.5265
15712TIP3    H168551   5.473   2.292   6.638 -1.0231 -0.6902 -0.0693
15712TIP3    H268552   5.373   2.360   6.730  0.9805  0.4265  1.3063
15713TIP3   OH268553   3.754   6.372  14.357 -0.1893 -0.1937  0.0296
15713TIP3    H168554   3.693   6.371  14.431 -0.9148 -1.7906 -0.5673
15713TIP3    H268555   3.716   6.435  14.296 -0.9547 -0.7762 -0.1003
15714TIP3   OH268556   4.281   2.352  16.634  0.1441  0.5664 -0.1367
15714TIP3    H168557   4.314   2.378  16.720  2.3884  0.1691 -0.8691
15714TIP3    H268558   4.204   2.408  16.621  0.1368  1.0692  1.8463
15715TIP3   OH268559   5.805   4.316   3.784 -0.4992 -0.1030  0.5323
15715TIP3    H168560   5.824   4.252   3.715  1.4423  1.4702 -0.4480
15715TIP3    H268561   5.741   4.273   3.839  1.6088 -3.3892  0.5730
15716TIP3   OH268562   5.031   1.309   0.541 -0.8801 -0.0533  0.2792
15716TIP3    H168563   5.019   1.293   0.634 -2.3798 -0.9733 -0.0526
15716TIP3    H268564   4.977   1.386   0.522 -0.7774 -0.0197  0.1122
15717TIP3   OH268565   5.154   1.896   2.656 -0.1959 -0.5798  0.3697
15717TIP3    H168566   5.123   1.986   2.671  1.1610  0.0476 -0.5391
15717TIP3    H268567   5.249   1.904   2.649  0.3163 -2.6242  4.0361
15718TIP3   OH268568   0.088   2.814   2.108 -0.2677 -0.0895 -0.2194
15718TIP3    H168569  -0.004   2.818   2.134  0.1507  0.9311  1.1426
15718TIP3    H268570   0.112   2.722   2.121 -0.9170 -0.2330  0.0008
15719TIP3   OH268571   6.738   0.742   5.739 -0.0799 -0.0618  0.1956
15719TIP3    H168572   6.738   0.765   5.832  1.2040 -0.2996  0.2707
15719TIP3    H268573   6.684   0.664   5.734 -0.8361  0.4288  0.6173
15720TIP3   OH268574   0.576   4.233  14.007 -0.3777  0.0429 -0.0653
15720TIP3    H168575   0.533   4.268  13.929 -0.2527 -0.4290 -0.3506
15720TIP3    H268576   0.663   4.207  13.977  0.9827  3.1738  1.0328
15721TIP3   OH268577   5.101   1.227   5.909  0.0920 -1.0052  0.2535
15721TIP3    H168578   5.165   1.258   5.973  0.8164 -2.5036  0.2630
15721TIP3    H268579   5.021   1.214   5.959  0.5988 -1.9731  0.8209
15722TIP3   OH268580   3.161   1.957   4.022  0.2615  0.0460 -0.5236
15722TIP3    H168581   3.232   1.976   4.082  1.5001 -0.1037 -1.9045
15722TIP3    H268582   3.112   2.039   4.015  1.6376  0.8181 -1.2902
15723TIP3   OH268583   2.253   6.446   2.537 -0.4611 -0.3589  0.2346
15723TIP3    H168584   2.339   6.479   2.512 -1.0303  0.6990 -0.4015
15723TIP3    H268585   2.207   6.523   2.571 -1.5744 -0.6360 -0.5932
15724TIP3   OH268586   0.524   0.611   2.382  0.1996 -0.2433  0.3895
15724TIP3    H168587   0.518   0.561   2.301 -0.0256 -0.2581  0.4155
15724TIP3    H268588   0.498   0.550   2.451 -2.2956  0.5313  0.1906
15725TIP3   OH268589   0.516   4.532  15.018  0.1256 -0.1266 -0.6109
15725TIP3    H168590   0.563   4.555  15.098 -1.5984 -0.0858  0.4116
15725TIP3    H268591   0.508   4.437  15.021 -0.1738 -0.1022 -0.5922
15726TIP3   OH268592   2.146   2.597   0.108 -0.1263  0.1029 -0.5074
15726TIP3    H168593   2.174   2.669   0.165 -1.0654  0.9670 -1.1223
15726TIP3    H268594   2.068   2.562   0.151  2.0908 -2.6534  1.4927
15727TIP3   OH268595   0.781   5.604  14.120  0.0197  0.3410 -0.5806
15727TIP3    H168596   0.852   5.541  14.111  1.6325  1.8054  1.3584
15727TIP3    H268597   0.803   5.654  14.198 -3.0898  0.9480 -0.0081
15728TIP3   OH268598   1.684   5.294   4.994  0.2001 -0.4490 -0.5426
15728TIP3    H168599   1.672   5.285   5.088  0.9934  1.2023 -0.2711
15728TIP3    H268600   1.714   5.384   4.981 -0.9220 -0.3063 -2.4717
15729TIP3   OH268601   6.485   3.476   3.948 -0.2305 -0.2602 -0.0634
15729TIP3    H168602   6.393   3.494   3.929  0.2949  0.8573 -1.6584
15729TIP3    H268603   6.495   3.496   4.041 -1.5423 -0.1843  0.0702
15730TIP3   OH268604   4.061   1.460  10.715  0.4377  0.2735  0.5780
15730TIP3    H168605   4.148   1.484  10.746  0.3018  0.0424  1.1600
15730TIP3    H268606   4.073   1.377  10.669  0.2496 -0.7497  2.2944
15731TIP3   OH268607   5.950   4.232  14.805  0.6126  0.7277  0.1535
15731TIP3    H168608   5.884   4.220  14.737  2.1731 -1.7784 -0.9758
15731TIP3    H268609   6.013   4.292  14.767  0.9292  0.1697 -0.2040
15732TIP3   OH268610   0.517   3.085  13.618  0.3987 -0.0121 -0.0831
15732TIP3    H168611   0.607   3.111  13.598  0.6108 -1.3348 -0.9294
15732TIP3    H268612   0.465   3.117  13.544  0.4678 -0.8649 -0.5083
15733TIP3   OH268613   5.925   0.346   3.689  0.1545  0.1515 -0.0676
15733TIP3    H168614   6.020   0.358   3.685  0.6011 -3.0473 -0.4051
15733TIP3    H268615   5.890   0.417   3.636  2.1169  3.6132  3.0698
15734TIP3   OH268616   3.182   5.413  12.792 -0.5246 -0.1723  0.0650
15734TIP3    H168617   3.254   5.462  12.753 -1.3835  0.6532 -0.5038
15734TIP3    H268618   3.112   5.418  12.727 -2.0199  1.3410  1.7492
15735TIP3   OH268619   1.828   0.680   2.935  0.0154  0.3518  0.5024
15735TIP3    H168620   1.878   0.665   3.015  0.6636  0.6247  0.1527
15735TIP3    H268621   1.865   0.761   2.899 -1.1546  0.9357  0.6092
15736TIP3   OH268622   2.059   0.203   5.895  0.6053  0.2524  0.4771
15736TIP3    H168623   2.134   0.159   5.855  0.1065 -0.1795  0.0135
15736TIP3    H268624   2.036   0.148   5.970 -0.2996 -0.5443 -0.3621
15737TIP3   OH268625   3.128   4.656   3.649  0.4414 -0.1701 -0.0651
15737TIP3    H168626   3.128   4.563   3.674 -2.1431 -0.4739 -1.0249
15737TIP3    H268627   3.038   4.685   3.664  0.5462  1.4561 -2.3094
15738TIP3   OH268628   4.493   0.298  16.313  0.1065 -0.1543  0.4948
15738TIP3    H168629   4.534   0.215  16.289 -0.6480 -0.4957  0.3813
15738TIP3    H268630   4.446   0.326  16.235 -1.2892 -0.6259  1.1503
15739TIP3   OH268631   0.568   6.245  16.091 -0.0909  0.1643 -0.5089
15739TIP3    H168632   0.528   6.291  16.165 -1.6415  0.1166 -1.2900
15739TIP3    H268633   0.494   6.215  16.039  0.9500 -1.2968 -1.1877
15740TIP3   OH268634   6.278   4.024   5.360  0.1504  0.4279 -0.6199
15740TIP3    H168635   6.319   4.110   5.360 -1.7051  1.3548 -1.0138
15740TIP3    H268636   6.239   4.016   5.272 -0.3588 -0.4594 -0.3186
15741TIP3   OH268637   3.696   2.219   3.388 -0.0352  0.4782  0.4573
15741TIP3    H168638   3.663   2.252   3.304 -2.1563  0.4584  1.2585
15741TIP3    H268639   3.726   2.130   3.368  0.6198  0.9074 -0.5330
15742TIP3   OH268640   2.395   0.307   4.519  0.3006 -0.0823 -0.0194
15742TIP3    H168641   2.431   0.308   4.608 -0.4517 -0.1393  0.2861
15742TIP3    H268642   2.418   0.393   4.484  1.4965 -0.4323 -0.1381
15743TIP3   OH268643   3.306   5.053  12.299 -0.0368 -0.1688  0.4801
15743TIP3    H168644   3.372   5.086  12.239  1.3764 -1.5896  1.2362
15743TIP3    H268645   3.223   5.087  12.265  0.8065 -0.3910 -1.8518
15744TIP3   OH268646   6.196   6.144  16.032 -0.3106 -0.0251 -0.0035
15744TIP3    H168647   6.181   6.055  15.998 -3.0821 -0.8212  3.0328
15744TIP3    H268648   6.183   6.201  15.956  1.0804 -2.1246 -1.9078
15745TIP3   OH268649   5.482   4.564   1.296 -0.2666  0.1195 -0.1895
15745TIP3    H168650   5.552   4.538   1.357 -0.5397 -0.9300 -0.3210
15745TIP3    H268651   5.405   4.516   1.326 -0.7050  0.5443 -0.6264
15746TIP3   OH268652   5.062   5.027  12.714 -0.0842  0.2647  0.4631
15746TIP3    H168653   5.113   4.992  12.641 -0.4727 -1.9987  1.2141
15746TIP3    H268654   5.092   4.976  12.790  0.3613  2.6091  1.9181
15747TIP3   OH268655   5.418   0.123   5.510 -0.6255  0.1673 -0.1319
15747TIP3    H168656   5.349   0.150   5.570  0.0206 -1.2937  1.2850
15747TIP3    H268657   5.498   0.158   5.548 -0.3605  0.3412 -0.8380
15748TIP3   OH268658   3.229   3.654  11.721 -0.2257 -0.2196 -0.1797
15748TIP3    H168659   3.152   3.681  11.772  0.4878  0.4768  0.5419
15748TIP3    H268660   3.272   3.588  11.776 -0.2922 -0.5935 -0.5728
15749TIP3   OH268661   4.660   2.468  13.476  0.0821 -0.4504 -0.4059
15749TIP3    H168662   4.720   2.540  13.490 -1.0985  0.2115  1.4060
15749TIP3    H268663   4.707   2.391  13.507  0.4624 -0.1224 -0.1697
15750TIP3   OH268664   5.171   1.751   4.931 -0.0767 -0.1772 -0.4920
15750TIP3    H168665   5.161   1.689   5.003  0.0729 -0.9611 -1.1366
15750TIP3    H268666   5.236   1.710   4.873  0.0690  0.6105 -0.8838
15751TIP3   OH268667   6.040   5.997   1.699  0.4243 -0.2193  0.1141
15751TIP3    H168668   5.977   5.926   1.691  0.3843 -0.1593 -0.0988
15751TIP3    H268669   6.120   5.955   1.732  1.1106 -0.7437 -2.1810
15752TIP3   OH268670   6.419   2.902   4.340 -0.2335  0.4583 -0.1073
15752TIP3    H168671   6.335   2.904   4.294  0.0535  1.6474 -0.6109
15752TIP3    H268672   6.459   2.820   4.313 -1.5320 -0.4669  0.6976
15753TIP3   OH268673   3.519   0.497  12.201  0.0331 -0.0250  0.1838
15753TIP3    H168674   3.424   0.496  12.213  0.1643 -0.8124  1.1146
15753TIP3    H268675   3.553   0.436  12.266  0.9107 -2.5788 -2.5532
15754TIP3   OH268676   3.222   5.687   3.557  0.2922  0.4233  0.1060
15754TIP3    H168677   3.260   5.690   3.645  0.8581  0.8998 -0.1539
15754TIP3    H268678   3.171   5.767   3.550 -1.6223 -0.6954  0.8300
15755TIP3   OH268679   2.852   6.152   5.256  0.1574  0.3272  0.1593
15755TIP3    H168680   2.777   6.126   5.202  1.4246  1.6070 -2.3194
15755TIP3    H268681   2.917   6.083   5.243 -0.8958 -1.3168  3.1215
15756TIP3   OH268682   0.901   1.363   2.418  0.9660 -0.2678 -0.4111
15756TIP3    H168683   0.880   1.428   2.485 -3.1092 -0.8731 -0.9968
15756TIP3    H268684   0.983   1.324   2.447  0.2951  0.8657  3.1789
15757TIP3   OH268685   2.704   3.218  14.203  0.3311 -0.5980  0.0851
15757TIP3    H168686   2.795   3.238  14.224 -0.2613 -0.3005  2.5066
15757TIP3    H268687   2.708   3.133  14.158  1.7217 -1.0266  0.9877
15758TIP3   OH268688   4.083   2.577   2.845 -0.1689 -0.3888  0.0023
15758TIP3    H168689   4.005   2.524   2.867 -0.9479  1.3004  1.4299
15758TIP3    H268690   4.126   2.590   2.929 -0.0855  1.3961 -0.3036
15759TIP3   OH268691   6.192   2.370  11.620 -0.3753 -0.5151 -0.0854
15759TIP3    H168692   6.267   2.317  11.594 -0.1276 -0.8446  1.2692
15759TIP3    H268693   6.199   2.449  11.567  1.7424  0.0846  1.0522
15760TIP3   OH268694   5.287   2.806   1.140 -0.0350  0.2388  0.9664
15760TIP3    H168695   5.281   2.867   1.213 -2.1388  2.3618 -0.8953
15760TIP3    H268696   5.199   2.770   1.131  0.1493  0.1152 -0.5989
15761TIP3   OH268697   1.378   5.467  11.666 -0.5072 -0.2202 -0.2195
15761TIP3    H168698   1.420   5.468  11.751 -3.2629 -0.6811  1.2075
15761TIP3    H268699   1.433   5.409  11.612  1.5292  0.4884  1.0420
15762TIP3   OH268700   3.376   2.927  11.709  0.6570  0.7495 -0.0408
15762TIP3    H168701   3.331   2.985  11.648  0.0973 -1.8581 -2.1601
15762TIP3    H268702   3.314   2.918  11.782 -0.1049  1.2139 -0.6127
15763TIP3   OH268703   6.353   1.460  12.312  0.0175 -0.1668 -0.1835
15763TIP3    H168704   6.308   1.380  12.286 -0.4440  1.1318 -3.6600
15763TIP3    H268705   6.432   1.461  12.259  0.5867  1.1460  0.6643
15764TIP3   OH268706   3.929   1.236   5.296 -0.2978  0.6493 -0.3554
15764TIP3    H168707   3.913   1.183   5.218  0.0550 -0.7275  0.4801
15764TIP3    H268708   3.956   1.321   5.263  2.3334 -0.6774 -1.7749
15765TIP3   OH268709   2.751   2.194  10.939  0.6393 -0.5805 -0.2126
15765TIP3    H168710   2.773   2.276  10.983 -0.4839 -1.4680  2.0949
15765TIP3    H268711   2.699   2.220  10.863  0.0552  0.8247  0.6563
15766TIP3   OH268712   4.308   5.640   4.302 -0.0711  0.7085  0.6974
15766TIP3    H168713   4.367   5.568   4.323 -0.5204  0.4009  0.9097
15766TIP3    H268714   4.343   5.715   4.351 -1.6302 -0.2211  3.3610
15767TIP3   OH268715   3.020   6.740  16.948  0.5701 -0.7413 -0.0337
15767TIP3    H168716   2.990   6.810  17.007 -0.5105 -1.5268  0.3701
15767TIP3    H268717   3.051   6.787  16.870 -0.7901  0.1714 -0.0626
15768TIP3   OH268718   3.600   1.678   3.559 -0.2525  0.5713 -0.3349
15768TIP3    H168719   3.517   1.695   3.515  0.2804  2.2317 -0.7332
15768TIP3    H268720   3.634   1.598   3.518 -0.9470  0.7230 -1.1981
15769TIP3   OH268721   5.286   1.314   2.101  0.0794 -0.1240 -0.0764
15769TIP3    H168722   5.317   1.363   2.177  0.0834  1.0210 -0.8154
15769TIP3    H268723   5.330   1.229   2.108  2.4336  1.0279 -0.4370
15770TIP3   OH268724   0.871   0.605   3.857 -0.3279  0.2605  0.2233
15770TIP3    H168725   0.810   0.573   3.790 -0.9019  3.1197 -0.6889
15770TIP3    H268726   0.878   0.699   3.840  3.5507  0.1707  0.9810
15771TIP3   OH268727   0.875   1.476  14.523  0.2017  0.0065  0.5951
15771TIP3    H168728   0.791   1.521  14.529 -0.7461 -1.3806 -1.5960
15771TIP3    H268729   0.923   1.524  14.456  0.8611  0.3586  1.3234
15772TIP3   OH268730   2.994   4.440  14.766 -0.1114  0.3184 -0.3711
15772TIP3    H168731   3.073   4.418  14.717 -0.1712  1.1797 -0.8621
15772TIP3    H268732   2.973   4.361  14.815  0.2247 -0.3930 -1.3698
15773TIP3   OH268733   5.286   5.886  14.334 -0.0228  0.2550  0.4407
15773TIP3    H168734   5.246   5.957  14.283 -1.2856 -1.0043 -0.3650
15773TIP3    H268735   5.212   5.838  14.371  0.7381 -1.5675 -0.3000
15774TIP3   OH268736   2.567   0.143   6.489  0.3797 -0.1164 -0.2093
15774TIP3    H168737   2.563   0.169   6.396  1.7275 -1.6280 -0.7078
15774TIP3    H268738   2.593   0.051   6.487  0.2807 -0.2038  1.6889
15775TIP3   OH268739   2.769   2.307  13.943 -0.8377 -0.0346  0.0248
15775TIP3    H168740   2.816   2.390  13.933  0.0068 -0.3557  1.1991
15775TIP3    H268741   2.757   2.275  13.854  0.5638  0.3978 -0.3243
15776TIP3   OH268742   3.050   2.733  15.294 -0.0445  0.0648 -0.4377
15776TIP3    H168743   3.031   2.809  15.239  0.8855 -1.0137 -2.2972
15776TIP3    H268744   3.136   2.753  15.333 -0.3913  0.5304  0.0927
15777TIP3   OH268745   3.689   1.458  12.790  0.3658  0.0497 -0.3418
15777TIP3    H168746   3.762   1.400  12.810 -1.1051 -1.4366  0.8247
15777TIP3    H268747   3.725   1.546  12.802  1.5832 -0.6888  1.6052
15778TIP3   OH268748   1.684   3.913   5.908 -0.0476 -0.0091  0.1508
15778TIP3    H168749   1.723   3.832   5.875 -1.2932 -0.8480  0.6951
15778TIP3    H268750   1.608   3.928   5.850 -0.5629  0.0713  0.8404
15779TIP3   OH268751   4.639   1.600   3.588  0.1782  0.4886  0.1637
15779TIP3    H168752   4.622   1.690   3.561 -0.4409  0.1375 -0.6149
15779TIP3    H268753   4.579   1.586   3.662  1.5036  1.2737  1.4186
15780TIP3   OH268754   4.557   0.964  14.162  0.0746 -0.2614 -0.3753
15780TIP3    H168755   4.567   0.872  14.189 -1.7190 -1.2400 -2.8559
15780TIP3    H268756   4.631   0.980  14.104 -0.1946 -0.4670 -0.7751
15781TIP3   OH268757   6.269   2.334  16.792 -0.3068  0.4737 -0.2650
15781TIP3    H168758   6.276   2.268  16.724 -1.1018  1.5776 -1.4436
15781TIP3    H268759   6.345   2.319  16.848 -0.3155 -1.2274 -0.6896
15782TIP3   OH268760   5.386   4.065   4.599 -0.7100 -1.0932 -0.5777
15782TIP3    H168761   5.315   4.108   4.647  0.9584  1.1234 -0.0331
15782TIP3    H268762   5.420   4.000   4.661  1.1293  1.4379  1.2050
15783TIP3   OH268763   4.011   0.597  10.976  0.1598  0.0749  0.2297
15783TIP3    H168764   4.027   0.686  11.005  1.7342  0.5320 -1.9299
15783TIP3    H268765   4.079   0.580  10.911  0.3416 -2.9656  1.1426
15784TIP3   OH268766   4.312   6.635   4.261 -0.1029 -0.2320  0.0266
15784TIP3    H168767   4.325   6.561   4.319  4.4292  0.7112  0.4538
15784TIP3    H268768   4.354   6.709   4.306 -1.4745  1.8144 -1.9002
15785TIP3   OH268769   5.688   0.980   0.421  0.0958  0.2817 -0.3552
15785TIP3    H168770   5.755   1.047   0.413  0.9693 -0.5839 -0.4252
15785TIP3    H268771   5.716   0.911   0.361 -0.9314 -0.0324 -0.4876
15786TIP3   OH268772   0.943   4.952   4.753  0.4056 -0.0363 -0.6692
15786TIP3    H168773   0.888   4.909   4.687 -1.1942  0.5157  0.2856
15786TIP3    H268774   0.922   4.907   4.835  0.6468  0.8473 -0.1218
15787TIP3   OH268775   4.254   6.242  14.677  0.8937  0.1137 -0.5365
15787TIP3    H168776   4.346   6.238  14.702  0.4292  0.7337  1.3544
15787TIP3    H268777   4.221   6.322  14.718 -0.5791 -0.3135 -0.8450
15788TIP3   OH268778   5.171   3.506  14.906 -0.2877 -0.6733  0.0131
15788TIP3    H168779   5.187   3.440  14.839 -1.3332 -0.3988 -0.5288
15788TIP3    H268780   5.091   3.477  14.950  0.2871 -0.7560  1.0296
15789TIP3   OH268781   1.494   2.455   1.047 -0.3912  0.3350 -0.0670
15789TIP3    H168782   1.500   2.528   0.985 -1.7588  0.5572  0.0375
15789TIP3    H268783   1.419   2.478   1.102 -1.0257 -1.2990 -0.2252
15790TIP3   OH268784   5.695   0.493   1.299 -0.1932 -0.1937 -0.0875
15790TIP3    H168785   5.672   0.568   1.244  1.4045 -0.4257 -1.1045
15790TIP3    H268786   5.656   0.513   1.384 -1.4217  0.8768 -0.8749
15791TIP3   OH268787   6.439   2.044  16.352  0.3328 -0.9130 -0.0274
15791TIP3    H168788   6.396   2.054  16.437 -0.8688  2.7897 -0.9744
15791TIP3    H268789   6.368   2.027  16.290  0.8299 -0.3475 -0.7663
15792TIP3   OH268790   6.212   1.094  13.966  0.2460 -0.2263 -0.5582
15792TIP3    H168791   6.248   1.013  14.001 -1.3985  0.0848  2.0232
15792TIP3    H268792   6.266   1.163  14.006  0.6920  0.0148 -1.5676
15793TIP3   OH268793   0.907   1.096  13.028 -0.1256 -0.2685  0.1596
15793TIP3    H168794   0.963   1.153  13.080  0.1531  2.1175 -2.6682
15793TIP3    H268795   0.844   1.155  12.987  0.0481 -1.9866 -2.7086
15794TIP3   OH268796   1.752   3.463  16.180 -0.3452 -0.0316 -0.5079
15794TIP3    H168797   1.746   3.559  16.182 -0.8619 -0.0102 -1.9580
15794TIP3    H268798   1.843   3.445  16.160 -0.3269  0.1781 -0.6195
15795TIP3   OH268799   6.193   2.205   0.494 -0.2729 -0.0663 -0.1033
15795TIP3    H168800   6.279   2.200   0.536  0.5630 -0.5690 -1.8216
15795TIP3    H268801   6.142   2.137   0.537  0.6003 -0.6587  0.0168
15796TIP3   OH268802   2.430   6.594   5.226 -0.1270 -0.0921 -0.1539
15796TIP3    H168803   2.517   6.567   5.197 -0.2066 -0.8615  0.2995
15796TIP3    H268804   2.446   6.673   5.279  0.1079  0.7620 -1.4831
15797TIP3   OH268805   4.227   6.069  11.116  0.0154  0.1040  0.2080
15797TIP3    H168806   4.152   6.090  11.060  0.9096  1.3990 -0.5343
15797TIP3    H268807   4.298   6.124  11.083  0.2912  1.7511  3.3002
15798TIP3   OH268808   5.800   1.590   1.446  0.0577  0.0311 -0.2839
15798TIP3    H168809   5.841   1.590   1.532 -2.5579  1.5819  1.0199
15798TIP3    H268810   5.777   1.498   1.430  2.3409 -0.5647 -0.2333
15799TIP3   OH268811   2.723   6.154  11.814  0.1297 -0.0732  0.3109
15799TIP3    H168812   2.649   6.132  11.756  0.2750 -2.8063  1.0934
15799TIP3    H268813   2.800   6.139  11.759  0.1787  0.3870  0.2537
15800TIP3   OH268814   6.774   6.574  11.501  0.1965 -0.4213 -0.8237
15800TIP3    H168815   6.765   6.503  11.437  0.2072 -1.0476 -0.1427
15800TIP3    H268816   6.824   6.641  11.455 -1.2262 -0.1614 -2.0192
15801TIP3   OH268817   2.548   6.486   0.355  0.2877 -0.0293  0.4012
15801TIP3    H168818   2.598   6.430   0.296 -2.7172 -0.7837 -1.5178
15801TIP3    H268819   2.485   6.428   0.398 -0.3615  1.2294  1.2079
15802TIP3   OH268820   6.053   6.479   5.460  0.1073 -0.0357  0.0412
15802TIP3    H168821   6.012   6.473   5.546 -1.1515 -1.3963 -0.6234
15802TIP3    H268822   6.000   6.543   5.412  0.9424  0.8925  0.3230
15803TIP3   OH268823   6.245   5.584   4.139 -0.6871  0.0893  0.0715
15803TIP3    H168824   6.193   5.581   4.220 -0.8547  0.0586 -0.0362
15803TIP3    H268825   6.320   5.527   4.156 -0.3001  0.7252  0.5029
15804TIP3   OH268826   3.786   5.577  14.638 -0.1413  0.5801  0.0978
15804TIP3    H168827   3.712   5.630  14.608 -0.4221 -0.1355 -0.4983
15804TIP3    H268828   3.858   5.639  14.649 -0.7851  1.2614  0.5303
15805TIP3   OH268829   2.189   0.267   5.395  0.2145 -0.1910 -0.0113
15805TIP3    H168830   2.279   0.293   5.375 -0.0301  0.5829 -0.1130
15805TIP3    H268831   2.179   0.284   5.488 -0.3344  1.2801 -0.3210
15806TIP3   OH268832   3.057   1.343  15.466 -0.7453 -0.0221  0.3598
15806TIP3    H168833   3.109   1.266  15.443 -1.7136 -0.1163 -1.6348
15806TIP3    H268834   3.103   1.416  15.425 -1.4214  0.0633 -0.2688
15807TIP3   OH268835   5.382   5.423   1.886 -0.0228 -0.1240 -0.3570
15807TIP3    H168836   5.372   5.500   1.830 -2.7615  0.5728  1.0404
15807TIP3    H268837   5.423   5.456   1.965  1.7412 -0.7089 -0.9997
15808TIP3   OH268838   3.039   2.332   4.527  0.6163 -0.1361  0.5282
15808TIP3    H168839   3.077   2.264   4.471  1.3068  0.8249 -0.2109
15808TIP3    H268840   3.115   2.379   4.562  0.1460  0.7643  0.3704
15809TIP3   OH268841   5.534   4.665   3.565 -0.2860 -0.4047  0.0228
15809TIP3    H168842   5.611   4.610   3.556  0.0214 -0.1823  1.1686
15809TIP3    H268843   5.560   4.732   3.628 -1.5216 -0.5394  0.6971
15810TIP3   OH268844   0.655   0.519  14.447 -0.0626 -0.3173 -0.1040
15810TIP3    H168845   0.704   0.583  14.499 -2.1183 -0.0643  1.5983
15810TIP3    H268846   0.698   0.436  14.465 -0.3153 -0.1246  1.5091
15811TIP3   OH268847   4.575   3.126  13.726  0.4387 -0.3069  0.0607
15811TIP3    H168848   4.562   3.060  13.793  1.4042 -0.8827 -0.3134
15811TIP3    H268849   4.571   3.210  13.773 -0.0872 -0.6531  0.6364
15812TIP3   OH268850   2.863   0.211   1.034  0.1605  1.1124 -0.4061
15812TIP3    H168851   2.951   0.248   1.034  0.2587  0.8794  0.2596
15812TIP3    H268852   2.869   0.134   0.977  0.1595  1.6231 -1.1082
15813TIP3   OH268853   0.545   3.281  12.295 -0.2063  0.8279 -0.2741
15813TIP3    H168854   0.520   3.320  12.212  1.5202  2.6373 -0.0002
15813TIP3    H268855   0.561   3.356  12.352 -0.8433 -0.3826  1.5325
15814TIP3   OH268856   2.049   0.370   1.901 -0.0781  0.2115  0.6766
15814TIP3    H168857   2.018   0.396   1.815 -1.5472 -3.1951  0.0790
15814TIP3    H268858   1.972   0.381   1.958  0.3851  0.8232  1.1835
15815TIP3   OH268859   5.266   3.990   1.876 -0.3548 -0.3428  0.2937
15815TIP3    H168860   5.284   3.944   1.958 -0.4336  1.1845  1.2122
15815TIP3    H268861   5.170   4.001   1.876 -0.3674 -0.4762 -0.0622
15816TIP3   OH268862   3.067   1.003  14.204  0.1260 -0.4501  0.6323
15816TIP3    H168863   2.981   0.988  14.244 -0.0755 -0.9840  0.0134
15816TIP3    H268864   3.060   0.964  14.117  0.9381 -0.3257  0.5050
15817TIP3   OH268865   3.398   5.626   4.723 -0.0620  0.0717 -0.3061
15817TIP3    H168866   3.336   5.617   4.795  0.0910 -1.0369 -0.3038
15817TIP3    H268867   3.484   5.615   4.764 -0.0016 -1.0741 -0.7373
15818TIP3   OH268868   1.042   1.787   5.610 -0.3286 -0.0215  0.0219
15818TIP3    H168869   1.018   1.763   5.521  0.4987  0.7025 -0.3978
15818TIP3    H268870   1.118   1.844   5.600 -0.3389  0.2034  1.1787
15819TIP3   OH268871   4.315   2.254  15.929 -0.2621  0.0863  0.0729
15819TIP3    H168872   4.332   2.343  15.900 -1.2630  0.0750 -0.5664
15819TIP3    H268873   4.345   2.253  16.020 -0.7188  1.2164  0.2434
15820TIP3   OH268874   0.039   5.789   2.585 -0.1785 -0.0972 -0.1644
15820TIP3    H168875   0.094   5.715   2.612 -0.5064 -0.2240  0.1557
15820TIP3    H268876   0.092   5.834   2.519  1.0395  0.7729  1.3769
15821TIP3   OH268877   3.221   3.012   0.599 -0.2920  0.4607 -0.0470
15821TIP3    H168878   3.184   3.086   0.550 -2.2466 -0.6442 -0.3017
15821TIP3    H268879   3.148   2.950   0.608  1.7339 -2.2706 -1.4495
15822TIP3   OH268880   1.494   4.344   3.461  0.3276  0.2028  0.3552
15822TIP3    H168881   1.527   4.395   3.535 -0.5639  0.8245  0.3345
15822TIP3    H268882   1.494   4.254   3.493  2.3919  0.1359  0.2161
15823TIP3   OH268883   4.160   2.663   1.124 -0.1531 -0.2613 -0.0597
15823TIP3    H168884   4.112   2.584   1.097  0.3684 -1.4744  2.4371
15823TIP3    H268885   4.120   2.688   1.207  1.4527  0.5681  0.4813
15824TIP3   OH268886   1.947   0.312   3.336 -0.5396 -0.1456 -0.2431
15824TIP3    H168887   1.980   0.243   3.394 -2.0353  0.1867  1.0357
15824TIP3    H268888   1.925   0.266   3.255  0.7477 -0.7608 -0.2599
15825TIP3   OH268889   5.556   3.430   0.428  0.7487 -0.7680  0.1399
15825TIP3    H168890   5.546   3.338   0.403  0.5412 -0.6498 -0.2133
15825TIP3    H268891   5.565   3.428   0.523  0.1143 -1.1036  0.1929
15826TIP3   OH268892   4.462   1.488   4.388 -0.3489 -0.1607 -0.2471
15826TIP3    H168893   4.461   1.545   4.465 -0.8762  1.6541 -1.5595
15826TIP3    H268894   4.487   1.402   4.422 -0.4292  0.6412  1.9189
15827TIP3   OH268895   4.773   5.519  15.590 -0.7913  0.8375 -0.2922
15827TIP3    H168896   4.699   5.538  15.646 -1.1170 -0.2682 -0.3307
15827TIP3    H268897   4.738   5.461  15.522 -0.0966  1.0317 -0.8323
15828TIP3   OH268898   2.203   0.035  11.706  0.0512  0.2949  0.3142
15828TIP3    H168899   2.129  -0.021  11.685  0.7145  0.8398 -3.8815
15828TIP3    H268900   2.166   0.124  11.708  0.4315  0.4936 -1.0699
15829TIP3   OH268901   6.469   1.792   0.281  0.5606 -0.0884 -0.2353
15829TIP3    H168902   6.385   1.837   0.271  1.7989  1.6664 -3.6488
15829TIP3    H268903   6.524   1.854   0.329  0.8884  0.1704 -0.9345
15830TIP3   OH268904   2.104   1.687   5.878  0.3445  0.6251  0.6134
15830TIP3    H168905   2.084   1.716   5.967  1.2742  0.5535  0.8431
15830TIP3    H268906   2.122   1.593   5.887  1.1448  0.7602  0.4639
15831TIP3   OH268907   1.388   3.457  12.541  0.2099 -0.0840  0.3280
15831TIP3    H168908   1.393   3.516  12.616  1.5787 -0.3616  0.4693
15831TIP3    H268909   1.403   3.513  12.465 -0.1794  0.0301  0.3352
15832TIP3   OH268910   3.386   4.123  16.385 -0.7100 -0.5780  0.1990
15832TIP3    H168911   3.294   4.098  16.389 -1.3643  1.6487  0.0538
15832TIP3    H268912   3.410   4.111  16.293 -0.8308 -1.2186  0.2504
15833TIP3   OH268913   3.674   0.243  14.916  0.5407 -0.6136 -0.4419
15833TIP3    H168914   3.639   0.165  14.873 -0.9447  1.4276 -3.0725
15833TIP3    H268915   3.596   0.297  14.934  1.6708  0.8800  0.0748
15834TIP3   OH268916   4.959   6.223   3.573 -0.6055  0.3777  0.2413
15834TIP3    H168917   5.041   6.231   3.524 -0.3716  2.8424  0.9260
15834TIP3    H268918   4.891   6.226   3.506 -0.1543 -2.6310 -0.4136
15835TIP3   OH268919   0.211   4.204   4.608 -0.3745  0.0726 -0.0969
15835TIP3    H168920   0.287   4.179   4.660  0.0447 -0.1197 -0.7926
15835TIP3    H268921   0.227   4.294   4.583 -0.9571  0.4280  0.7652
15836TIP3   OH268922   5.639   2.759   2.212  0.6231  0.3054  0.2307
15836TIP3    H168923   5.700   2.722   2.275  0.5696 -0.7312 -0.3252
15836TIP3    H268924   5.586   2.685   2.183 -0.1913  1.0004 -0.0899
15837TIP3   OH268925   6.339   5.367  14.407  0.0740  0.8156  0.2925
15837TIP3    H168926   6.350   5.398  14.497  1.4791 -0.8737  0.7325
15837TIP3    H268927   6.248   5.338  14.401 -0.8762  3.6465  0.2745
15838TIP3   OH268928   0.917   2.445   0.417 -0.2611  0.2639 -0.4068
15838TIP3    H168929   0.979   2.505   0.377 -1.9884  1.4589 -1.3421
15838TIP3    H268930   0.970   2.371   0.446  1.4802  0.9335 -1.8348
15839TIP3   OH268931   1.491   5.591   0.009  0.3241 -0.4099  0.3940
15839TIP3    H168932   1.558   5.569  -0.056  0.7755  0.2019  0.6545
15839TIP3    H268933   1.475   5.509   0.056 -0.2920 -0.9597 -0.7497
15840TIP3   OH268934   6.179   3.518  11.344  0.3672  0.1637  0.1325
15840TIP3    H168935   6.248   3.584  11.340  0.4759  0.1605  1.6649
15840TIP3    H268936   6.102   3.563  11.309  0.9657  0.3956 -0.9010
15841TIP3   OH268937   1.569   0.543  15.597  0.2548  0.0102  0.5347
15841TIP3    H168938   1.564   0.470  15.535 -0.0533  1.3498 -1.0444
15841TIP3    H268939   1.663   0.551  15.616  0.3230 -0.5950  0.4595
15842TIP3   OH268940   6.044   5.986  15.707  0.4286 -0.1129 -1.0708
15842TIP3    H168941   6.025   5.924  15.637  1.0839 -1.7027  0.1193
15842TIP3    H268942   6.026   5.937  15.787 -1.5003  2.0743 -0.1380
15843TIP3   OH268943   5.442   5.522  13.909 -0.8559  0.1855  0.1216
15843TIP3    H168944   5.393   5.500  13.988 -1.7133  0.2497 -0.3835
15843TIP3    H268945   5.389   5.488  13.837  0.1172 -0.2363 -0.4112
15844TIP3   OH268946   4.469   0.264  13.570  0.0300  0.2871  0.1561
15844TIP3    H168947   4.463   0.304  13.484  0.3619 -0.2052 -0.0973
15844TIP3    H268948   4.445   0.172  13.556  1.2472 -0.0747  0.3735
15845TIP3   OH268949   3.670   3.937   3.254  0.6920  0.4059  0.1695
15845TIP3    H168950   3.594   3.967   3.205  0.9928 -0.4403 -0.8584
15845TIP3    H268951   3.718   4.016   3.277 -0.1823  0.8979  0.2880
15846TIP3   OH268952   0.403   2.931   0.774  0.7732  1.0440  0.2033
15846TIP3    H168953   0.341   2.859   0.786  2.4269 -0.1344  1.9445
15846TIP3    H268954   0.396   2.982   0.854  1.2494  1.5620 -0.0841
15847TIP3   OH268955   0.527   0.825  15.473  0.2876 -0.4925  0.1014
15847TIP3    H168956   0.585   0.856  15.404  0.2718 -1.2320 -0.2474
15847TIP3    H268957   0.446   0.802  15.428  0.2196 -0.8238  0.3873
15848TIP3   OH268958   3.451   0.511  16.893  0.1133  0.6338 -0.0637
15848TIP3    H168959   3.440   0.463  16.811  2.7558 -0.4596  0.1974
15848TIP3    H268960   3.373   0.489  16.944 -0.1227 -1.0159 -1.1058
15849TIP3   OH268961   0.550   2.652  16.130 -1.0507  0.2602 -0.0917
15849TIP3    H168962   0.583   2.632  16.218 -1.2732 -0.0401 -0.0747
15849TIP3    H268963   0.456   2.631  16.134 -1.1582  0.7075 -0.2585
15850TIP3   OH268964   2.444   4.691  13.279 -0.3376 -0.5089 -0.9431
15850TIP3    H168965   2.423   4.727  13.365  0.1968 -0.0385 -1.0016
15850TIP3    H268966   2.360   4.685  13.234 -0.5602 -0.3071 -0.5564
15851TIP3   OH268967   4.657   3.974  10.986 -0.0582 -0.7179 -0.4843
15851TIP3    H168968   4.681   4.067  10.986 -2.0766 -0.1705 -2.1200
15851TIP3    H268969   4.720   3.934  10.926  1.3001 -0.5635  0.8062
15852TIP3   OH268970   3.018   2.020   1.458 -0.2373  0.3404  0.2050
15852TIP3    H168971   2.967   2.093   1.493 -0.9690  0.5776 -1.3262
15852TIP3    H268972   3.071   1.991   1.532 -0.2360  2.1534  0.9534
15853TIP3   OH268973   1.407   1.203  16.728 -0.5171  0.4783 -0.0967
15853TIP3    H168974   1.451   1.180  16.809 -1.0207  0.0447  0.0566
15853TIP3    H268975   1.425   1.296  16.716  0.2567  0.3539  0.0699
15854TIP3   OH268976   6.761   3.104  16.345  0.2254  0.4924  0.3446
15854TIP3    H168977   6.828   3.092  16.412  0.4756  2.2380  0.4325
15854TIP3    H268978   6.684   3.134  16.394  0.2973  1.4109 -0.1044
15855TIP3   OH268979   6.579   2.143   3.609  0.5160  0.0349 -0.3393
15855TIP3    H168980   6.624   2.208   3.555 -0.3184  0.5013 -0.4828
15855TIP3    H268981   6.636   2.132   3.685  0.4235  1.3104 -0.0693
15856TIP3   OH268982   2.631   6.384   5.198 -0.1931  0.4701  0.4318
15856TIP3    H168983   2.720   6.371   5.229  0.0421  1.5214  0.2087
15856TIP3    H268984   2.609   6.302   5.153  0.7360  0.2957  0.2870
15857TIP3   OH268985   4.231   0.701  10.490 -0.3310 -0.1149 -0.2933
15857TIP3    H168986   4.161   0.763  10.474 -2.6941 -2.2136  1.5112
15857TIP3    H268987   4.312   0.752  10.482 -2.2110  3.2928  1.6966
15858TIP3   OH268988   5.247   2.373  11.645 -0.2236  0.0207 -0.2271
15858TIP3    H168989   5.332   2.393  11.604 -1.0720 -0.0400 -2.0609
15858TIP3    H268990   5.249   2.278  11.658 -0.1166 -0.0138 -0.4921
15859TIP3   OH268991   0.049   1.055  10.580  0.7559  0.2126  0.3631
15859TIP3    H168992   0.108   1.118  10.621 -1.2497  2.0601  0.5257
15859TIP3    H268993   0.080   1.049  10.489  0.9260  1.5016  0.3229
15860TIP3   OH268994   6.653   5.094   0.985 -0.2900 -0.3169  0.1360
15860TIP3    H168995   6.706   5.157   1.033  0.3220  0.1216 -1.1078
15860TIP3    H268996   6.564   5.129   0.989 -0.2608 -0.3141  0.9748
15861TIP3   OH268997   3.150   0.061   2.596 -0.6644  0.3324  0.4117
15861TIP3    H168998   3.230   0.045   2.647  0.6301  0.5963 -1.4827
15861TIP3    H268999   3.153   0.154   2.576 -1.7890  0.4692  0.8921
15862TIP3   OH269000   0.522   6.476   6.036 -0.0851  0.2512 -0.0485
15862TIP3    H169001   0.604   6.471   5.987 -0.0438  0.5068 -0.0028
15862TIP3    H269002   0.470   6.543   5.992  0.7593  1.9465  1.4658
15863TIP3   OH269003   4.622   1.812  10.541 -0.1412 -0.2824 -0.0405
15863TIP3    H169004   4.637   1.753  10.615  1.0814  0.7435  0.5393
15863TIP3    H269005   4.654   1.897  10.571 -2.7321  0.9107 -0.5406
15864TIP3   OH269006   2.029   1.219  13.542  0.1231  0.1076  0.1655
15864TIP3    H169007   2.125   1.215  13.550  0.2901 -1.1890 -2.0280
15864TIP3    H269008   2.006   1.308  13.567  1.9336  0.5046  0.4799
15865TIP3   OH269009   5.354   6.363   4.621  0.1812 -0.0197 -0.0044
15865TIP3    H169010   5.296   6.408   4.683  2.8131  2.9493  0.4299
15865TIP3    H269011   5.311   6.372   4.536 -1.4604 -0.5177  0.7691
15866TIP3   OH269012   6.359   4.246  13.434  0.1390  0.4923  0.4284
15866TIP3    H169013   6.406   4.260  13.517 -0.1330  0.8553  0.5258
15866TIP3    H269014   6.350   4.151  13.427  0.2051  0.4566  0.7943
15867TIP3   OH269015   2.948   0.598   5.259  0.2804 -0.3968  1.3126
15867TIP3    H169016   2.931   0.510   5.225 -0.9778 -0.3166  1.7159
15867TIP3    H269017   3.043   0.609   5.249  0.1708 -0.9968 -0.6421
15868TIP3   OH269018   1.779   1.441   3.340  0.6172  0.6503  0.0810
15868TIP3    H169019   1.824   1.526   3.333  1.9367 -0.0388  0.0438
15868TIP3    H269020   1.690   1.459   3.310  0.7035  2.1650  0.6387
15869TIP3   OH269021   5.939   3.277  13.866 -0.7180  0.1101 -0.0619
15869TIP3    H169022   6.016   3.220  13.864 -2.1516 -1.8555 -0.6071
15869TIP3    H269023   5.911   3.276  13.958 -1.7102 -1.3979 -0.3792
15870TIP3   OH269024   4.289   1.807   2.745 -0.3576 -0.1799 -0.6718
15870TIP3    H169025   4.225   1.875   2.769 -1.0718 -0.9939 -0.2381
15870TIP3    H269026   4.260   1.730   2.793  0.0261 -0.9886 -1.7287
15871TIP3   OH269027   1.762   3.359  14.218 -0.6092 -0.4053 -0.4908
15871TIP3    H169028   1.810   3.283  14.250 -1.1337 -0.3072  0.5387
15871TIP3    H269029   1.703   3.324  14.151  0.0439 -0.7001 -0.9212
15872TIP3   OH269030   1.645   6.099   1.342 -0.5328 -0.0888  0.2657
15872TIP3    H169031   1.672   6.188   1.366  0.2281 -0.4931  0.9452
15872TIP3    H269032   1.696   6.078   1.265 -1.8488  0.6351 -0.8251
15873TIP3   OH269033   3.161   5.229  11.115  0.4271  0.1364  0.9360
15873TIP3    H169034   3.218   5.272  11.052  2.0579 -2.5377  0.5160
15873TIP3    H269035   3.076   5.272  11.104  0.6926 -0.2076 -3.0010
15874TIP3   OH269036   2.413   4.266  16.786  0.2754  0.1113 -0.0691
15874TIP3    H169037   2.366   4.183  16.781  1.0577 -0.3947  0.6653
15874TIP3    H269038   2.506   4.241  16.791  0.4253  0.9386  1.9873
15875TIP3   OH269039   2.627   2.562   2.001  0.2685 -0.6866  0.4511
15875TIP3    H169040   2.574   2.555   1.921 -1.8848  1.9488  1.5533
15875TIP3    H269041   2.569   2.529   2.070  1.4663 -1.2920  1.1758
15876TIP3   OH269042   5.151   1.643   1.251 -0.3012  0.6347  0.0671
15876TIP3    H169043   5.110   1.681   1.328 -0.9100 -0.6614  0.4011
15876TIP3    H269044   5.092   1.572   1.225  1.1939 -0.5797 -0.0721
15877TIP3   OH269045   4.888   1.015  16.625  0.2423  0.3837 -0.3398
15877TIP3    H169046   4.900   1.036  16.533  0.3930 -0.9821 -0.6408
15877TIP3    H269047   4.865   1.098  16.666  0.5863  1.0757 -1.5328
15878TIP3   OH269048   3.173   3.324   5.594  0.4647  0.3931  0.1909
15878TIP3    H169049   3.221   3.241   5.601 -0.1108  0.0569  0.1269
15878TIP3    H269050   3.189   3.367   5.678  0.9704  0.3283  0.1291
15879TIP3   OH269051   2.843   4.419   2.196 -0.1683  0.3151 -0.4063
15879TIP3    H169052   2.836   4.476   2.273  0.5144  0.2214 -0.2759
15879TIP3    H269053   2.857   4.479   2.123 -1.5471  0.4626 -0.5808
15880TIP3   OH269054   6.747   3.949  16.881 -0.3322  0.1706 -0.4537
15880TIP3    H169055   6.818   3.901  16.924 -1.0841 -0.7276 -0.1753
15880TIP3    H269056   6.668   3.914  16.921 -0.9241  1.3329 -0.5912
15881TIP3   OH269057   4.784   2.246   3.956  0.3218 -0.3463  0.1250
15881TIP3    H169058   4.752   2.187   4.025  0.2303 -1.3799 -0.7828
15881TIP3    H269059   4.731   2.223   3.879  0.2049  1.0096 -0.2121
15882TIP3   OH269060   3.402   2.525  16.977 -0.7826 -0.5542  0.3087
15882TIP3    H169061   3.481   2.528  17.031 -0.6445  1.5466  0.0112
15882TIP3    H269062   3.381   2.431  16.971  2.7272 -1.3251 -1.1640
15883TIP3   OH269063   1.595   4.018  16.325  0.2536 -0.0440  0.2814
15883TIP3    H169064   1.574   4.008  16.232  1.2330 -0.0393  0.0531
15883TIP3    H269065   1.643   4.101  16.330 -0.7736  0.5157  0.9616
15884TIP3   OH269066   0.129   0.632  13.120  0.0796  0.3722 -0.2700
15884TIP3    H169067   0.170   0.691  13.057  1.3865  0.2455  0.4314
15884TIP3    H269068   0.190   0.631  13.194 -2.1842  1.7689  1.6833
15885TIP3   OH269069   4.087   1.937  11.950  0.6132  0.0869  0.2370
15885TIP3    H169070   4.000   1.908  11.921  0.8316 -1.1596  0.8390
15885TIP3    H269071   4.069   2.017  12.000 -0.4488 -1.6041  2.5975
15886TIP3   OH269072   4.269   3.480  13.368 -0.4042 -0.1096 -0.4401
15886TIP3    H169073   4.199   3.442  13.315 -0.0111 -0.9580 -0.3685
15886TIP3    H269074   4.228   3.497  13.453 -0.2999 -1.4788 -0.0991
15887TIP3   OH269075   0.331   0.861  12.556 -0.1934  0.1570 -0.1865
15887TIP3    H169076   0.261   0.920  12.583 -0.1567  0.0454  0.1494
15887TIP3    H269077   0.398   0.871  12.623 -0.9914 -1.7199  0.9233
15888TIP3   OH269078   5.180   3.620  16.959 -0.3044  0.0290  0.3804
15888TIP3    H169079   5.141   3.700  16.994 -1.8106 -0.5633  0.0990
15888TIP3    H269080   5.274   3.631  16.973 -0.7811  0.1070  4.0030
15889TIP3   OH269081   2.161   4.744   5.338 -0.2395 -0.3208 -0.4486
15889TIP3    H169082   2.065   4.745   5.333 -0.1402 -0.3682 -3.0352
15889TIP3    H269083   2.183   4.651   5.348 -0.4525 -0.3311 -0.0682
15890TIP3   OH269084   2.212   2.203  12.500 -0.0755 -0.1062 -0.5142
15890TIP3    H169085   2.165   2.285  12.485  1.1951  0.6517 -0.4271
15890TIP3    H269086   2.263   2.189  12.421  0.6234 -0.1954 -0.0535
15891TIP3   OH269087   0.408   1.994  12.630  0.4318 -0.2330 -0.0765
15891TIP3    H169088   0.376   2.072  12.585  1.8571  0.5666  0.2504
15891TIP3    H269089   0.410   2.018  12.723 -0.5718 -1.1907  0.2104
15892TIP3   OH269090   4.688   5.797  10.620 -0.2033  0.0199  0.0241
15892TIP3    H169091   4.739   5.771  10.696 -0.1252  0.2758  0.0624
15892TIP3    H269092   4.671   5.716  10.573  0.1304 -0.0812  0.0797
15893TIP3   OH269093   4.268   0.573  11.322  0.7336 -0.1323 -0.5328
15893TIP3    H169094   4.193   0.524  11.288 -0.6464  1.2745  0.3673
15893TIP3    H269095   4.309   0.611  11.245  0.0882 -0.3218 -0.9755
15894TIP3   OH269096   4.201   0.273  15.892 -0.6575  0.2895 -0.2824
15894TIP3    H169097   4.220   0.245  15.802 -1.9374 -3.2216  0.4674
15894TIP3    H269098   4.106   0.284  15.894 -1.0215 -2.7724  1.4377
15895TIP3   OH269099   3.912   2.567  11.634 -0.8031 -1.0889 -0.2834
15895TIP3    H169100   3.907   2.628  11.708 -0.5773  0.6773 -1.7027
15895TIP3    H269101   3.902   2.622  11.556 -0.2673 -2.8309 -1.6179
15896TIP3   OH269102   5.039   3.894  11.518  0.1556  0.2029 -0.1496
15896TIP3    H169103   4.984   3.869  11.592  1.4633 -1.4234  0.3166
15896TIP3    H269104   4.983   3.950  11.464 -1.3318  0.1028  1.2513
15897TIP3   OH269105   1.516   4.256   4.208 -0.1281 -0.0454 -0.2832
15897TIP3    H169106   1.609   4.257   4.231 -0.1624 -1.1867 -0.1088
15897TIP3    H269107   1.485   4.169   4.234 -1.7084  1.0025  1.5490
15898TIP3   OH269108   3.122   3.772   3.922 -0.3410 -0.3041  0.1994
15898TIP3    H169109   3.054   3.730   3.869 -1.4258  1.3555  0.2223
15898TIP3    H269110   3.074   3.827   3.984  0.9960  2.7092 -1.2772
15899TIP3   OH269111   1.352   0.099   3.420 -0.1765  0.4316 -0.2653
15899TIP3    H169112   1.301   0.061   3.348  0.2542 -2.4579  0.9106
15899TIP3    H269113   1.303   0.076   3.499  0.4663  1.7578  0.5409
15900TIP3   OH269114   4.561   3.955  16.672 -0.2100 -0.0461  0.5673
15900TIP3    H169115   4.518   4.008  16.739  0.1201 -0.8241  1.3999
15900TIP3    H269116   4.581   3.872  16.715 -1.0503 -1.0053 -0.8189
15901TIP3   OH269117   5.327   2.109  12.607 -0.3774  0.0885  0.0970
15901TIP3    H169118   5.332   2.017  12.634 -0.2557  0.3254  0.8939
15901TIP3    H269119   5.234   2.123  12.589 -0.3134 -0.3438 -0.5648
15902TIP3   OH269120   5.459   5.402   0.136  0.1353  0.4696  0.0936
15902TIP3    H169121   5.402   5.467   0.176  0.2358  0.8672 -0.3966
15902TIP3    H269122   5.424   5.317   0.165 -1.1197  0.6941 -0.7454
15903TIP3   OH269123   2.211   5.836  15.369  0.5519  0.0065 -0.3760
15903TIP3    H169124   2.181   5.762  15.422  0.8503  0.4844  0.4569
15903TIP3    H269125   2.153   5.908  15.394  1.1119  0.4038 -0.2269
15904TIP3   OH269126   5.618   1.984  12.317 -0.5573  0.1178 -0.4039
15904TIP3    H169127   5.664   1.922  12.373  0.7797  2.0617  0.7306
15904TIP3    H269128   5.664   1.981  12.233 -0.8362 -0.7885 -0.5288
15905TIP3   OH269129   4.677   5.341   0.571 -0.1810  0.1307 -0.6426
15905TIP3    H169130   4.760   5.335   0.524  0.3297 -2.0388  0.4889
15905TIP3    H269131   4.662   5.253   0.605 -2.1917  0.8689  0.4720
15906TIP3   OH269132   0.245   4.330  11.521 -0.3498 -0.4190 -0.2153
15906TIP3    H169133   0.227   4.402  11.582 -1.2491 -1.7005  1.0372
15906TIP3    H269134   0.169   4.328  11.463  1.2147  1.8671 -2.5346
15907TIP3   OH269135   0.525   3.779   2.424  0.8560  0.2492  0.2912
15907TIP3    H169136   0.598   3.771   2.363 -0.8171 -0.6883 -1.6613
15907TIP3    H269137   0.520   3.694   2.468 -0.7664 -0.7021 -1.6338
15908TIP3   OH269138   2.176   4.031   1.922 -0.3893  0.6465  0.2434
15908TIP3    H169139   2.125   4.103   1.959 -0.3669 -0.3666  2.3100
15908TIP3    H269140   2.124   3.953   1.941  0.7645 -0.1444  0.2152
15909TIP3   OH269141   3.656   3.968  11.624 -0.5193  0.4978 -0.4258
15909TIP3    H169142   3.661   4.038  11.688 -1.5639  0.7459 -0.5917
15909TIP3    H269143   3.723   3.988  11.560 -0.2824  0.9105 -0.0467
15910TIP3   OH269144   4.085   1.387  14.628 -0.5350 -0.3405  0.1458
15910TIP3    H169145   4.102   1.435  14.546 -1.8100  0.5606  0.3935
15910TIP3    H269146   4.172   1.374  14.666 -0.0765  0.8538 -0.4605
15911TIP3   OH269147   6.114   5.267  11.513 -0.2877 -0.3288  0.5953
15911TIP3    H169148   6.134   5.331  11.581 -1.7516 -0.9380  1.6299
15911TIP3    H269149   6.040   5.305  11.466  0.1385 -0.3333 -0.0885
15912TIP3   OH269150   1.761   4.590  12.255  0.2587  0.1649  0.4247
15912TIP3    H169151   1.674   4.550  12.246  0.1847  0.4340 -0.1026
15912TIP3    H269152   1.803   4.575  12.170  1.1817 -1.0058  1.0614
15913TIP3   OH269153   2.579   5.893   3.183 -0.0612  0.2298 -0.1704
15913TIP3    H169154   2.606   5.818   3.236 -0.4403 -0.8724 -1.5235
15913TIP3    H269155   2.578   5.966   3.245 -1.5596 -1.2396  1.6287
15914TIP3   OH269156   2.993   5.023  14.007  0.2709 -0.1869 -0.3903
15914TIP3    H169157   2.931   5.078  14.055  0.9712 -0.8320  1.3228
15914TIP3    H269158   2.941   4.948  13.978  0.4180 -1.2925  2.0210
15915TIP3   OH269159   6.173   6.588   3.614 -0.6195  0.0952  0.4627
15915TIP3    H169160   6.133   6.553   3.694 -1.0000 -1.5156 -0.4191
15915TIP3    H269161   6.223   6.664   3.644 -1.0462 -0.2805  2.1886
15916TIP3   OH269162   6.722   3.036   0.504  0.2613  0.0087 -0.1330
15916TIP3    H169163   6.761   3.054   0.590  1.3113  0.0303 -0.5957
15916TIP3    H269164   6.628   3.046   0.517  0.6067  3.9182  0.1002
15917TIP3   OH269165   0.114   6.725   4.539  0.0290  0.3001 -0.5286
15917TIP3    H169166   0.041   6.722   4.602  0.7374 -0.4728  0.2576
15917TIP3    H269167   0.092   6.657   4.474 -0.0908  0.2675 -0.4549
15918TIP3   OH269168   2.395   1.598  12.273 -0.1543  1.0660 -0.4640
15918TIP3    H169169   2.382   1.602  12.178 -0.5939 -1.5646 -0.5491
15918TIP3    H269170   2.307   1.606  12.310 -0.7959 -3.9207 -0.5670
15919TIP3   OH269171   1.449   0.414  14.435 -0.1516 -0.1480  0.6650
15919TIP3    H169172   1.376   0.354  14.424  0.3291 -0.5810 -0.1257
15919TIP3    H269173   1.409   0.501  14.430 -0.3993 -0.3667 -1.2328
15920TIP3   OH269174   1.857   3.941  11.026  0.3360 -0.0451  0.3195
15920TIP3    H169175   1.927   3.903  11.079  0.1160  1.2586  1.5629
15920TIP3    H269176   1.853   4.033  11.053  0.0518  0.5908 -1.7733
15921TIP3   OH269177   6.404   3.519  14.740  0.2659 -0.2107  0.4623
15921TIP3    H169178   6.325   3.470  14.717  0.3838 -0.2732  0.1903
15921TIP3    H269179   6.404   3.593  14.680  0.3202 -0.1116  0.5846
15922TIP3   OH269180   5.932   0.684  11.324 -0.3623 -0.1817 -0.0293
15922TIP3    H169181   5.892   0.734  11.396  1.0832  0.6318  0.2327
15922TIP3    H269182   5.870   0.614  11.306 -1.5754  0.6571  0.8260
15923TIP3   OH269183   5.899   4.315  15.680  0.2959 -0.4230  0.1816
15923TIP3    H169184   5.847   4.347  15.754 -0.4731 -1.6230  0.1772
15923TIP3    H269185   5.988   4.342  15.699 -0.0900  0.2945  0.9737
15924TIP3   OH269186   1.559   4.920   1.345  0.1522 -0.8866  0.5751
15924TIP3    H169187   1.644   4.963   1.358  0.6771 -1.4104 -0.9114
15924TIP3    H269188   1.555   4.853   1.413  0.6099 -0.3509  1.1275
15925TIP3   OH269189   3.199   6.599   0.696  0.2527 -0.2162  0.7351
15925TIP3    H169190   3.279   6.584   0.747 -0.6608 -1.8176  1.7413
15925TIP3    H269191   3.170   6.687   0.721  2.9075  1.3359 -1.3481
15926TIP3   OH269192   1.509   5.540  12.911 -0.0787  0.2727  0.0240
15926TIP3    H169193   1.508   5.445  12.921  1.6125  0.2966  0.5840
15926TIP3    H269194   1.601   5.565  12.920 -0.7894  2.2432  2.5609
15927TIP3   OH269195   0.533   4.079   2.294 -0.1940  0.3764  0.4503
15927TIP3    H169196   0.454   4.111   2.339 -0.0723  3.3566 -1.3398
15927TIP3    H269197   0.507   4.073   2.202  1.6042  1.1101 -0.1182
15928TIP3   OH269198   1.055   3.816  13.678  0.1643 -0.4022 -0.6411
15928TIP3    H169199   0.994   3.768  13.622 -1.9048 -0.4195  1.5517
15928TIP3    H269200   1.095   3.748  13.733 -0.4320  0.0099  0.3071
15929TIP3   OH269201   1.909   6.436   2.439  0.0968 -0.2511  1.0082
15929TIP3    H169202   1.937   6.370   2.376  1.1749  0.3746  0.8095
15929TIP3    H269203   1.944   6.519   2.404 -2.2538  0.6119  0.6111
15930TIP3   OH269204   3.910   1.193   1.214  0.2166 -0.6256  0.5106
15930TIP3    H169205   3.878   1.149   1.135 -0.1426 -4.4674  2.6762
15930TIP3    H269206   3.862   1.276   1.217 -0.9109 -1.1065 -2.4094
15931TIP3   OH269207   1.960   2.838   5.254 -0.1890 -0.1193  0.1102
15931TIP3    H169208   2.010   2.892   5.315  1.1549 -0.6043 -0.5321
15931TIP3    H269209   2.019   2.765   5.234 -1.5644 -1.2613  0.1371
15932TIP3   OH269210   6.360   0.237   3.373 -0.1691  0.1459 -0.1374
15932TIP3    H169211   6.362   0.297   3.299  2.3725 -0.9750 -1.0301
15932TIP3    H269212   6.414   0.279   3.440 -1.0872  0.3691  0.4777
15933TIP3   OH269213   2.764   0.827   0.757 -0.2253  0.2619  0.7557
15933TIP3    H169214   2.767   0.886   0.832  3.6205 -0.3464  1.1573
15933TIP3    H269215   2.825   0.757   0.778 -1.1109 -1.3748 -1.7872
15934TIP3   OH269216   4.644   0.108  16.144 -0.0288 -0.0738  0.4904
15934TIP3    H169217   4.616   0.093  16.054 -1.2782  2.1407  0.4894
15934TIP3    H269218   4.700   0.186  16.140  0.2312 -0.1922  1.5711
15935TIP3   OH269219   0.189   3.901  14.181 -1.1189 -0.2307 -0.5999
15935TIP3    H169220   0.226   3.986  14.158 -1.1284 -0.0483  0.0567
15935TIP3    H269221   0.095   3.911  14.168 -0.9562 -0.7561 -2.4731
15936TIP3   OH269222   6.700   2.645  16.291 -0.3117  0.2702  0.2209
15936TIP3    H169223   6.605   2.657  16.302 -0.3696 -0.3897  0.4452
15936TIP3    H269224   6.711   2.551  16.286  0.2107  0.3949 -0.9874
15937TIP3   OH269225   0.939   1.846  10.996 -0.4359  0.1518 -0.0264
15937TIP3    H169226   0.857   1.811  11.033 -1.4393  2.6447  0.2071
15937TIP3    H269227   0.926   1.844  10.902 -0.0179 -1.1826 -0.0622
15938TIP3   OH269228   3.336   5.486   2.203  0.6785  0.4468  0.0125
15938TIP3    H169229   3.395   5.515   2.273 -1.3482  2.1114  1.0814
15938TIP3    H269230   3.381   5.411   2.164  2.2725  0.0218  2.5280
15939TIP3   OH269231   0.415   4.507   2.348  0.3898  0.6300 -0.5918
15939TIP3    H169232   0.380   4.580   2.298 -0.3573 -0.6702 -1.9933
15939TIP3    H269233   0.349   4.490   2.415  0.8229  1.5747  0.0898
15940TIP3   OH269234   5.932   4.707   5.009 -0.6237  0.2824  0.0055
15940TIP3    H169235   5.909   4.671   5.094 -0.1557  0.3898  0.1754
15940TIP3    H269236   5.872   4.664   4.948 -2.8758  2.2585  0.7546
15941TIP3   OH269237   2.134   1.679  10.391 -0.3576  0.8972  0.1404
15941TIP3    H169238   2.051   1.718  10.418 -1.0628  0.2723 -1.0690
15941TIP3    H269239   2.112   1.588  10.370  0.9676  0.2620  1.4454
15942TIP3   OH269240   0.333   4.056  14.518  0.2875 -0.4169 -0.6695
15942TIP3    H169241   0.279   3.985  14.484  0.8947 -1.0060 -0.4238
15942TIP3    H269242   0.272   4.113  14.564 -0.1934 -0.8180 -0.8065
15943TIP3   OH269243   6.442   5.097   5.838  0.5813  0.4316  0.0546
15943TIP3    H169244   6.478   5.009   5.844 -2.2192 -0.6989  1.5677
15943TIP3    H269245   6.490   5.139   5.766  3.0475 -1.7624  0.3521
15944TIP3   OH269246   5.903   5.502  16.402 -0.5162  0.1779 -0.2758
15944TIP3    H169247   5.849   5.568  16.445 -1.2786 -0.2061 -0.6499
15944TIP3    H269248   5.992   5.520  16.434 -1.0212  0.0908  1.2257
15945TIP3   OH269249   2.420   4.044   5.556 -0.0132 -0.1994  0.3492
15945TIP3    H169250   2.352   4.111   5.568  0.8845  0.7650  0.0506
15945TIP3    H269251   2.403   4.008   5.469 -1.2995 -1.2843  1.0278
15946TIP3   OH269252   6.323   2.042   4.066  0.1067 -0.3222  0.2215
15946TIP3    H169253   6.347   2.071   4.154 -0.1495  0.1737  0.1316
15946TIP3    H269254   6.335   2.120   4.011  0.3122 -0.6388 -0.1915
15947TIP3   OH269255   0.980   3.744  15.929  0.5941 -0.1394  0.2951
15947TIP3    H169256   1.053   3.801  15.905  0.2165  0.4000  0.4219
15947TIP3    H269257   1.018   3.656  15.932  1.7926  0.3997  2.6021
15948TIP3   OH269258   1.941   3.541   5.456  0.6218 -0.0450  0.2041
15948TIP3    H169259   2.012   3.540   5.392  0.5562 -1.1915  0.1476
15948TIP3    H269260   1.974   3.489   5.529  0.2494  0.3141  0.6305
15949TIP3   OH269261   1.430   3.660  14.236  0.4866 -0.5050 -0.4166
15949TIP3    H169262   1.343   3.676  14.273  0.6489 -0.7594  0.0654
15949TIP3    H269263   1.448   3.739  14.184 -0.2756 -0.6984 -0.9859
15950TIP3   OH269264   4.428   4.809   3.534  0.1568 -0.5559 -0.5875
15950TIP3    H169265   4.443   4.754   3.611  1.0720 -1.5412 -1.4607
15950TIP3    H269266   4.359   4.763   3.486 -1.2494  0.6700  0.2219
15951TIP3   OH269267   0.319   1.336  15.543  0.0854  0.0760 -0.2631
15951TIP3    H169268   0.411   1.358  15.553  0.2557 -0.4493 -0.6747
15951TIP3    H269269   0.282   1.408  15.491  0.7085 -0.7396 -1.8693
15952TIP3   OH269270   6.258   2.576  12.926 -0.0478  0.5997  0.2298
15952TIP3    H169271   6.245   2.537  13.012  0.2801  0.1794  0.0897
15952TIP3    H269272   6.350   2.603  12.925  0.0330  0.3128 -0.1056
15953TIP3   OH269273   5.218   2.174   5.216 -0.3186  1.0305 -0.2416
15953TIP3    H169274   5.300   2.180   5.166 -0.3705 -0.8548 -0.5817
15953TIP3    H269275   5.149   2.180   5.151 -0.3821 -2.9514 -0.6852
15954TIP3   OH269276   6.510   4.002   1.124  0.3409  0.4399  0.3966
15954TIP3    H169277   6.448   3.962   1.063  1.1527 -0.7259  0.3195
15954TIP3    H269278   6.581   4.035   1.069  0.1106  1.1968  0.5421
15955TIP3   OH269279   5.338   5.143   3.823 -0.9757  0.7915  0.1778
15955TIP3    H169280   5.340   5.212   3.889 -2.5498  0.4447  0.6089
15955TIP3    H269281   5.268   5.084   3.852  0.0781 -0.7833 -0.3776
15956TIP3   OH269282   0.601   2.609   2.031  0.1871 -0.2061 -0.0602
15956TIP3    H169283   0.687   2.568   2.042 -0.3743 -1.6103 -0.7167
15956TIP3    H269284   0.617   2.703   2.041  1.5205 -0.5789  1.4720
15957TIP3   OH269285   0.042   3.697  12.422  0.0591  0.8433  0.3138
15957TIP3    H169286  -0.041   3.692  12.468 -0.7943  1.0334 -1.1516
15957TIP3    H269287   0.071   3.606  12.413 -0.2626  0.7386  0.3392
15958TIP3   OH269288   1.336   6.628   2.047  0.3554  0.2908 -0.1679
15958TIP3    H169289   1.333   6.678   1.965  3.1279  1.0721  0.1788
15958TIP3    H269290   1.329   6.695   2.116  0.0728 -0.1820  0.2629
15959TIP3   OH269291   2.627   5.312   0.862 -0.0004 -0.3994 -0.6870
15959TIP3    H169292   2.705   5.357   0.829 -0.0650  0.6599  0.5505
15959TIP3    H269293   2.628   5.227   0.818  2.4509 -0.8417  0.1303
15960TIP3   OH269294   6.347   4.761   0.084 -0.5482 -0.7994  0.2897
15960TIP3    H169295   6.258   4.792   0.064  0.3221  2.1586  0.8194
15960TIP3    H269296   6.339   4.721   0.171 -1.5833 -1.7064 -0.1970
15961TIP3   OH269297   2.775   6.034  13.541  0.1702  0.1617 -0.1318
15961TIP3    H169298   2.827   6.038  13.461 -0.1978  3.6437 -0.3096
15961TIP3    H269299   2.685   6.020  13.511  0.4518 -1.8160 -0.0892
15962TIP3   OH269300   0.021   3.997  13.779  0.0702  0.2344 -0.5552
15962TIP3    H169301  -0.068   3.981  13.749  0.6044 -0.6470 -1.7074
15962TIP3    H269302   0.049   3.913  13.816  1.0991 -0.0804 -1.9985
15963TIP3   OH269303   4.746   1.805   0.478  0.0098 -0.1848  0.6783
15963TIP3    H169304   4.704   1.812   0.392  0.3981  0.7998  0.5562
15963TIP3    H269305   4.689   1.854   0.537  1.4373  2.0115  0.3259
15964TIP3   OH269306   5.482   5.830   0.721 -0.4941  0.1349 -0.7965
15964TIP3    H169307   5.556   5.818   0.661 -0.6777 -1.6649 -0.7045
15964TIP3    H269308   5.479   5.748   0.771 -2.3035  0.3513 -0.5279
15965TIP3   OH269309   3.831   5.504  13.432 -0.5101 -0.2692 -0.4718
15965TIP3    H169310   3.758   5.542  13.383 -0.0764  1.0495 -0.1116
15965TIP3    H269311   3.842   5.561  13.508  0.7340 -0.5964 -0.3885
15966TIP3   OH269312   5.710   3.988  13.438  0.2892  0.0343  0.3566
15966TIP3    H169313   5.718   4.021  13.527  0.5516  0.2473  0.2540
15966TIP3    H269314   5.631   4.029  13.404 -0.1061 -0.4613  0.6710
15967TIP3   OH269315   6.278   2.856  15.751  0.2434  0.2935 -0.1425
15967TIP3    H169316   6.360   2.901  15.774  1.0071 -1.0546 -0.1740
15967TIP3    H269317   6.276   2.779  15.808 -2.8952  2.2392  2.5261
15968TIP3   OH269318   5.756   1.676  15.671  0.1616  0.2010 -0.2045
15968TIP3    H169319   5.782   1.754  15.622  0.2775 -1.1105 -2.2848
15968TIP3    H269320   5.815   1.607  15.641  0.0583 -0.7032  1.5939
15969TIP3   OH269321   4.210   0.519   0.129  0.1573 -0.4545 -0.4615
15969TIP3    H169322   4.186   0.472   0.049  0.1717 -0.6642 -0.3429
15969TIP3    H269323   4.130   0.515   0.183 -0.5735  1.5704 -1.3586
15970TIP3   OH269324   3.291   5.028   2.283 -0.1574 -0.9954  0.4575
15970TIP3    H169325   3.259   5.035   2.373 -1.9123 -2.0443 -0.0554
15970TIP3    H269326   3.360   4.962   2.287 -0.1050 -0.9091  1.0479
15971TIP3   OH269327   4.508   4.671  13.402 -0.5417 -0.1410  0.4811
15971TIP3    H169328   4.548   4.720  13.330 -1.5456 -0.5923 -0.3960
15971TIP3    H269329   4.533   4.580  13.385 -0.7205 -0.2389  0.7406
15972TIP3   OH269330   0.041   4.924  15.403  0.0524  0.1564 -0.4613
15972TIP3    H169331  -0.027   4.857  15.409  0.7455 -0.6055 -0.9975
15972TIP3    H269332  -0.004   5.002  15.370 -0.6585 -0.1907 -0.3189
15973TIP3   OH269333   0.351   3.564   0.071  0.0161 -0.3533  0.2802
15973TIP3    H169334   0.446   3.575   0.065 -0.0549  0.0688 -0.0619
15973TIP3    H269335   0.332   3.575   0.164  0.2676 -0.1247  0.3060
15974TIP3   OH269336   0.016   0.581  13.635  0.1519 -0.6384 -0.0182
15974TIP3    H169337  -0.053   0.566  13.699 -0.1684  1.3235  0.1275
15974TIP3    H269338  -0.030   0.611  13.556  0.8565  1.1591  0.2384
15975TIP3   OH269339   5.433   4.881   2.425 -0.2974 -0.8103  0.5154
15975TIP3    H169340   5.421   4.851   2.335  0.2938 -3.1155  1.1772
15975TIP3    H269341   5.364   4.947   2.437  1.1083  1.2982 -2.3383
15976TIP3   OH269342   3.472   0.192  15.767 -0.2606  0.8021  0.1315
15976TIP3    H169343   3.379   0.209  15.780 -0.0068  1.0814  1.6274
15976TIP3    H269344   3.475   0.131  15.692 -1.5378  1.8859 -0.8249
15977TIP3   OH269345   4.078   3.459  15.765  0.4696 -0.2025  0.0968
15977TIP3    H169346   4.164   3.430  15.734  0.5099 -2.8874  2.5505
15977TIP3    H269347   4.018   3.391  15.737 -0.4572  0.4005  0.5978
15978TIP3   OH269348   0.969   1.207  16.392 -0.1480  0.2614  0.1790
15978TIP3    H169349   1.016   1.181  16.471  1.6493  2.5523 -0.0741
15978TIP3    H269350   1.006   1.153  16.323 -0.0205 -0.0503  0.4885
15979TIP3   OH269351   4.548   2.333   2.941  0.2419 -0.5214  0.4876
15979TIP3    H169352   4.467   2.379   2.917 -0.1150 -1.3513  0.0879
15979TIP3    H269353   4.617   2.384   2.899 -0.2075 -0.7283 -0.5112
15980TIP3   OH269354   6.148   1.197   0.699  0.3336  0.2210 -0.0870
15980TIP3    H169355   6.228   1.198   0.752 -0.6845 -0.3445  1.5099
15980TIP3    H269356   6.154   1.275   0.644  1.3429  0.9119  0.9899
15981TIP3   OH269357   2.091   1.570   1.950 -0.4474 -0.1758  0.6342
15981TIP3    H169358   2.119   1.661   1.960 -2.1527  0.2821  1.3640
15981TIP3    H269359   2.064   1.562   1.859  0.6354 -0.2378  0.3063
15982TIP3   OH269360   1.887   4.756   4.376 -0.1179 -0.5013 -0.2394
15982TIP3    H169361   1.863   4.688   4.313  0.9297 -0.5868 -0.5714
15982TIP3    H269362   1.856   4.837   4.336 -0.0724 -0.6316 -0.5440
15983TIP3   OH269363   5.986   2.528   3.546  0.2315  0.2705 -0.6960
15983TIP3    H169364   6.032   2.589   3.488  0.0098  0.6394 -0.4864
15983TIP3    H269365   5.896   2.527   3.512  0.9089 -2.2864 -2.6093
15984TIP3   OH269366   6.710   1.446  11.370 -0.5144 -0.4512  0.2428
15984TIP3    H169367   6.800   1.420  11.353 -0.7193 -1.1434  0.1934
15984TIP3    H269368   6.680   1.483  11.288 -0.5739 -1.0975 -0.0285
15985TIP3   OH269369   1.356   5.395  15.028 -0.1992 -0.0425 -0.1735
15985TIP3    H169370   1.356   5.302  15.051  1.4048 -0.4117 -1.5506
15985TIP3    H269371   1.344   5.440  15.111  1.5724 -1.4314  0.8853
15986TIP3   OH269372   6.100   5.652   3.065 -0.2549  0.2595 -0.3475
15986TIP3    H169373   6.098   5.745   3.045  1.2751  0.7870  1.8668
15986TIP3    H269374   6.012   5.633   3.100  0.0647  1.2957  1.0336
15987TIP3   OH269375   4.832   4.715  13.428 -0.0920  0.1695  0.6137
15987TIP3    H169376   4.787   4.764  13.497  1.0335 -1.1879  2.3796
15987TIP3    H269377   4.858   4.633  13.471  1.9255 -0.0849 -1.0350
15988TIP3   OH269378   5.172   1.611  15.901  0.3240  0.9075 -0.0473
15988TIP3    H169379   5.167   1.519  15.928 -1.9824  1.3314  1.1090
15988TIP3    H269380   5.264   1.634  15.911  0.5756 -0.7034  1.6529
15989TIP3   OH269381   0.887   1.802  15.577  0.1870 -0.4657 -0.3000
15989TIP3    H169382   0.878   1.780  15.484  3.2586 -0.5750 -0.6162
15989TIP3    H269383   0.952   1.872  15.579  1.6512 -1.8099  1.8954
15990TIP3   OH269384   4.130   2.110  14.582 -0.2148  0.2629 -0.3430
15990TIP3    H169385   4.084   2.083  14.503  0.0167  2.5818 -1.3306
15990TIP3    H269386   4.073   2.176  14.622  0.2590  0.0441  0.7323
15991TIP3   OH269387   2.114   0.112  16.119  0.1436  0.2496 -0.1700
15991TIP3    H169388   2.194   0.152  16.083  0.7837 -1.1450 -0.3500
15991TIP3    H269389   2.147   0.042  16.176 -0.9447  0.2980  0.5288
15992TIP3   OH269390   3.758   6.258  15.522  0.0244 -0.0846 -0.0786
15992TIP3    H169391   3.791   6.179  15.565 -0.4219 -0.4448 -0.3882
15992TIP3    H269392   3.736   6.230  15.433 -0.9974  0.1696  0.0876
15993TIP3   OH269393   6.433   1.854   5.278  0.1261  0.4566  0.3469
15993TIP3    H169394   6.466   1.909   5.349 -1.3518  1.2902  0.4034
15993TIP3    H269395   6.393   1.779   5.323  0.3305  0.3440  0.3422
15994TIP3   OH269396   1.004   0.808   0.999 -0.3496 -0.2830  0.2677
15994TIP3    H169397   1.036   0.836   0.913  0.5140 -0.9401  0.3680
15994TIP3    H269398   1.027   0.715   1.003  0.4194 -0.0482  1.5651
15995TIP3   OH269399   1.608   3.118   4.401 -0.2751  0.4428 -0.4621
15995TIP3    H169400   1.651   3.061   4.337 -0.7739 -2.0220  1.3282
15995TIP3    H269401   1.679   3.149   4.457  0.1262  2.3877 -2.0327
15996TIP3   OH269402   5.222   3.799   2.079 -0.2487 -0.1253  0.3121
15996TIP3    H169403   5.131   3.781   2.100 -0.3019  0.1605  0.3201
15996TIP3    H269404   5.267   3.716   2.097 -0.5068 -0.2734  0.2872
15997TIP3   OH269405   3.103   3.367   2.571  0.0684 -0.1499  0.6055
15997TIP3    H169406   3.104   3.449   2.620 -0.6998 -0.3963  1.0371
15997TIP3    H269407   3.059   3.388   2.488 -1.5457 -0.4852  1.3612
15998TIP3   OH269408   1.134   0.064   0.983 -0.4266 -0.0492  0.4501
15998TIP3    H169409   1.186   0.141   0.960 -0.2151 -0.6343 -1.0392
15998TIP3    H269410   1.055   0.100   1.024  0.1287  0.9199  0.6851
15999TIP3   OH269411   3.674   6.740  15.777 -0.0021 -0.7752 -0.4684
15999TIP3    H169412   3.655   6.833  15.771 -0.7818 -0.8584  0.5492
15999TIP3    H269413   3.756   6.734  15.825  0.4186 -0.5906 -1.1569
16000TIP3   OH269414   2.948   6.322   4.805  0.1155 -0.1074 -0.1642
16000TIP3    H169415   2.881   6.389   4.817 -1.3128 -1.4113 -0.6392
16000TIP3    H269416   2.899   6.242   4.787  1.7357 -1.5456  1.5280
16001TIP3   OH269417   6.236   1.347  15.855 -0.0358 -0.3497 -0.7420
16001TIP3    H169418   6.206   1.282  15.792 -1.0219 -0.3555 -0.2758
16001TIP3    H269419   6.157   1.397  15.877  0.7034  0.9433 -1.0338
16002TIP3   OH269420   3.016   0.843   3.521 -0.0240 -0.2737 -0.6508
16002TIP3    H169421   3.109   0.866   3.516 -0.1659  0.8264  1.5476
16002TIP3    H269422   2.971   0.926   3.534 -1.3671 -0.7682 -1.9269
16003TIP3   OH269423   4.407   0.818  17.085 -0.0178  0.0538  0.5920
16003TIP3    H169424   4.357   0.891  17.122 -1.1822  0.7290 -2.2108
16003TIP3    H269425   4.347   0.777  17.023  2.0826 -0.6779 -0.9985
16004TIP3   OH269426   3.741   0.923  16.103  0.1858  0.6572  0.1286
16004TIP3    H169427   3.720   0.980  16.177  1.3213  1.3813 -0.0842
16004TIP3    H269428   3.820   0.876  16.132 -0.3305 -0.2733  0.0216
16005TIP3   OH269429   4.070   2.975   4.788  0.2692 -0.2676 -0.8283
16005TIP3    H169430   4.023   2.897   4.757 -1.1091  0.6578 -1.1206
16005TIP3    H269431   4.021   3.003   4.865  0.6963  0.3709 -0.7859
16006TIP3   OH269432   4.025   0.326   2.733 -0.2287 -0.2641  0.2098
16006TIP3    H169433   3.935   0.325   2.767 -0.3884 -1.0392 -0.2359
16006TIP3    H269434   4.041   0.418   2.713 -0.7933 -0.0675  0.6424
16007TIP3   OH269435   2.812   1.232   4.105  0.3284  0.8408 -0.1697
16007TIP3    H169436   2.876   1.280   4.157 -1.1960  0.8073  1.8179
16007TIP3    H269437   2.767   1.176   4.168 -1.1791  0.3476 -1.6326
16008TIP3   OH269438   4.082   0.423  13.626  0.1008 -0.3108 -0.0918
16008TIP3    H169439   4.084   0.394  13.535  0.5767 -1.2686  0.2195
16008TIP3    H269440   4.050   0.347  13.675 -0.0281  0.1561  0.5632
16009TIP3   OH269441   3.890   6.675   3.581  0.1182 -0.0725 -0.1868
16009TIP3    H169442   3.898   6.624   3.661  3.0026  1.0862  0.3463
16009TIP3    H269443   3.814   6.732   3.595  0.4392 -0.0707  1.6355
16010TIP3   OH269444   1.755   2.300   5.497  0.6609 -0.1525  0.5557
16010TIP3    H169445   1.749   2.242   5.572  1.5638 -0.2537  0.5650
16010TIP3    H269446   1.758   2.388   5.534 -1.1936 -0.0524  0.5192
16011TIP3   OH269447   6.466   0.014   3.514 -0.6333  0.6016 -0.2594
16011TIP3    H169448   6.421   0.005   3.598 -0.4093  0.2471 -0.1795
16011TIP3    H269449   6.402   0.059   3.458 -1.1415 -0.0238 -0.1863
16012TIP3   OH269450   1.726   0.672   5.118 -0.3023  0.0550 -0.2049
16012TIP3    H169451   1.708   0.580   5.137 -0.1494  0.0670  0.0037
16012TIP3    H269452   1.765   0.706   5.199 -0.9525  0.4666 -0.0619
16013TIP3   OH269453   1.985   1.890  15.980  0.1441 -0.5739 -0.4296
16013TIP3    H169454   1.924   1.918  15.911 -1.3159 -1.3219  0.5431
16013TIP3    H269455   1.985   1.795  15.973 -0.5387 -0.6882  1.0402
16014TIP3   OH269456   2.170   5.708  14.697  0.3229 -0.1805 -0.2063
16014TIP3    H169457   2.163   5.795  14.735  1.2207 -0.4552  0.6031
16014TIP3    H269458   2.253   5.710  14.648 -1.0730  0.3570 -2.6700
16015TIP3   OH269459   1.854   1.747   1.449  0.0747  0.0295 -0.2058
16015TIP3    H169460   1.783   1.753   1.512  3.0812  3.0378  3.0612
16015TIP3    H269461   1.829   1.808   1.379 -0.3895  1.3265  1.0756
16016TIP3   OH269462   5.904   4.069  13.734 -0.3141  0.0273  0.1999
16016TIP3    H169463   5.990   4.110  13.736  0.0385 -0.6655 -0.7018
16016TIP3    H269464   5.844   4.139  13.710 -0.1481  0.7412  1.7746
16017TIP3   OH269465   4.428   2.742  14.740 -0.4124 -0.3395  0.1455
16017TIP3    H169466   4.425   2.793  14.821  1.1716  0.4338 -0.2615
16017TIP3    H269467   4.356   2.777  14.688  0.5357  1.4008 -0.0555
16018TIP3   OH269468   4.121   3.882   5.858 -0.1483  0.1400  0.2699
16018TIP3    H169469   4.206   3.914   5.827 -0.2639 -1.1253 -1.4312
16018TIP3    H269470   4.059   3.912   5.792 -1.0268  0.9532  1.4448
16019TIP3   OH269471   5.588   4.833   5.076 -0.5600  0.8864 -0.0654
16019TIP3    H169472   5.504   4.862   5.040 -0.3812  1.6961  0.1541
16019TIP3    H269473   5.568   4.750   5.119 -1.3855  1.3689  0.5053
16020TIP3   OH269474   1.237   4.406  16.888 -0.1070 -0.3250  0.2545
16020TIP3    H169475   1.310   4.460  16.917 -0.7684  0.4385  0.5388
16020TIP3    H269476   1.170   4.419  16.955 -0.5305 -0.9600 -0.0378
16021TIP3   OH269477   3.815   1.477   3.660  1.0236 -0.2226 -0.5184
16021TIP3    H169478   3.802   1.441   3.572  0.4535 -0.6037 -0.2837
16021TIP3    H269479   3.781   1.409   3.719 -0.4336  0.8456 -0.0778
16022TIP3   OH269480   4.255   5.003   4.437  0.1553  0.2263  0.2537
16022TIP3    H169481   4.215   5.039   4.517  1.3143 -0.5271  1.1776
16022TIP3    H269482   4.323   4.944   4.469  0.9644  0.3101 -1.3132
16023TIP3   OH269483   1.521   4.083   2.904  0.1827  0.1271 -0.5280
16023TIP3    H169484   1.544   3.994   2.877 -0.4809 -0.6380  1.3625
16023TIP3    H269485   1.559   4.092   2.991 -0.5058  1.3993 -0.3454
16024TIP3   OH269486   0.400   5.647   2.274 -0.7649 -0.1337  0.2746
16024TIP3    H169487   0.381   5.562   2.314  1.8411 -0.7261  0.3118
16024TIP3    H269488   0.408   5.707   2.347 -0.1521 -0.3679  0.4026
16025TIP3   OH269489   5.433   0.211  16.525  0.0967  0.4775  0.5261
16025TIP3    H169490   5.524   0.239  16.533  0.0975  0.2008  1.5411
16025TIP3    H269491   5.382   0.290  16.543  0.1166  0.1461  2.1185
16026TIP3   OH269492   0.945   0.181   1.404  0.3165  0.0684 -0.6427
16026TIP3    H169493   0.873   0.144   1.456 -0.8844  0.6529 -1.8545
16026TIP3    H269494   0.977   0.108   1.352 -0.6501  0.2129 -1.4671
16027TIP3   OH269495   1.607   4.031   6.645 -0.0233 -0.0614 -0.1505
16027TIP3    H169496   1.622   3.987   6.728  1.9650  0.8122 -0.0284
16027TIP3    H269497   1.523   3.997   6.615 -0.1402 -1.3584  1.5758
16028TIP3   OH269498   3.217   1.462   0.228  0.6458  0.0101  0.6252
16028TIP3    H169499   3.178   1.406   0.161 -0.2032 -0.7101  1.7071
16028TIP3    H269500   3.228   1.547   0.185 -0.3890 -0.2984 -0.2648
16029TIP3   OH269501   6.114   1.161  17.144  0.1663 -0.1831  0.0007
16029TIP3    H169502   6.086   1.070  17.153 -0.7662  0.0649 -0.3007
16029TIP3    H269503   6.064   1.194  17.069  1.2324  0.2939 -0.5065
16030TIP3   OH269504   2.107   5.947  12.683 -0.0332  0.3124  0.6716
16030TIP3    H169505   2.106   5.860  12.721 -1.1698 -0.7186 -1.6091
16030TIP3    H269506   2.199   5.971  12.678  0.2614 -0.6142  1.6092
16031TIP3   OH269507   1.104   1.358   3.056  0.3667  0.1234  0.0221
16031TIP3    H169508   1.115   1.285   3.118 -1.2119 -2.0830 -2.1925
16031TIP3    H269509   1.187   1.361   3.009  0.6809  0.1762  0.5776
16032TIP3   OH269510   2.754   3.263  15.149  0.1766 -0.5538 -0.2143
16032TIP3    H169511   2.694   3.204  15.103  0.4928 -1.5516  0.6287
16032TIP3    H269512   2.839   3.219  15.143  0.5995  0.2753 -0.3703
16033TIP3   OH269513   0.053   0.141   5.069  0.4331 -0.0340  0.1801
16033TIP3    H169514  -0.009   0.214   5.063 -1.9481 -1.8942  0.9528
16033TIP3    H269515   0.060   0.124   5.163  3.7156  1.3925  0.2518
16034TIP3   OH269516   2.557   2.838  13.905  0.0544  0.4466  0.3993
16034TIP3    H169517   2.477   2.864  13.860 -0.0580 -1.2034 -0.4077
16034TIP3    H269518   2.607   2.789  13.840  2.3034  2.4634  0.5295
16035TIP3   OH269519   6.243   6.440   3.381  0.2277  0.3025 -0.3632
16035TIP3    H169520   6.212   6.487   3.459  0.4749  2.7920 -1.7145
16035TIP3    H269521   6.197   6.356   3.384 -3.0057  2.0039  0.2719
16036TIP3   OH269522   6.595   1.535   2.624  0.2602  0.7471  0.3975
16036TIP3    H169523   6.575   1.548   2.717  0.0783 -1.9931  0.7748
16036TIP3    H269524   6.689   1.519   2.622  0.2325  0.6254  0.1363
16037TIP3   OH269525   4.610   0.250   3.162 -0.6241 -0.3135  0.2038
16037TIP3    H169526   4.597   0.235   3.069 -0.3852  0.5569  0.0190
16037TIP3    H269527   4.703   0.273   3.169 -1.1592  1.9926  0.3112
16038TIP3   OH269528   6.581   0.730   0.547  0.4799 -0.5348  0.5732
16038TIP3    H169529   6.626   0.647   0.555 -0.3106 -1.2427 -1.9601
16038TIP3    H269530   6.491   0.707   0.521 -0.3694  1.0000  1.9938
16039TIP3   OH269531   6.157   6.203  12.500 -0.4910  0.2238  0.3683
16039TIP3    H169532   6.130   6.203  12.408  0.0794 -1.0629  0.1892
16039TIP3    H269533   6.116   6.281  12.537 -1.7310  0.0937 -0.6853
16040TIP3   OH269534   1.184   5.447  10.711 -0.0191  0.2569 -0.3110
16040TIP3    H169535   1.214   5.382  10.646  2.2762  0.4239  0.5180
16040TIP3    H269536   1.135   5.511  10.660  1.1982  0.0352 -1.8093
16041TIP3   OH269537   6.605   1.947  14.155 -0.6380  0.0646  0.1203
16041TIP3    H169538   6.661   1.999  14.097  0.5483  0.0701  1.2651
16041TIP3    H269539   6.524   1.934  14.104  0.3185  0.1923 -1.4781
16042TIP3   OH269540   0.410   1.426  13.547 -0.3543  0.2307 -0.0114
16042TIP3    H169541   0.413   1.496  13.612  0.1890  1.2698 -1.1464
16042TIP3    H269542   0.369   1.466  13.470 -0.8846 -0.9563 -0.3635
16043TIP3   OH269543   5.007   5.716   5.116 -0.3307 -0.1183  0.1725
16043TIP3    H169544   4.960   5.732   5.198 -0.3154 -0.6664  0.2866
16043TIP3    H269545   4.981   5.628   5.090  1.4085 -0.8361  0.7667
16044TIP3   OH269546   1.653   5.625   2.725 -0.0125 -0.0634  0.1680
16044TIP3    H169547   1.717   5.562   2.691 -1.1718 -0.8697 -0.5763
16044TIP3    H269548   1.637   5.596   2.815 -0.3206 -0.6850 -0.0761
16045TIP3   OH269549   2.138   5.618  12.063 -0.1179  1.1440  0.0124
16045TIP3    H169550   2.144   5.617  11.968  0.4086 -0.3045  0.0507
16045TIP3    H269551   2.064   5.676  12.082 -0.1144  1.5768 -1.2614
16046TIP3   OH269552   0.934   5.023  12.725 -0.6854  0.1649 -0.1867
16046TIP3    H169553   0.852   5.071  12.720 -0.4345  0.6181  0.0121
16046TIP3    H269554   0.922   4.961  12.797 -0.9915 -0.0391 -0.4138
16047TIP3   OH269555   0.270   1.446  16.185 -0.6093 -0.3235 -0.2859
16047TIP3    H169556   0.192   1.487  16.148  0.5942  1.5131 -0.8404
16047TIP3    H269557   0.318   1.518  16.227 -0.1421 -1.7434  1.6871
16048TIP3   OH269558   5.027   5.260   5.772  0.4636 -0.3339  0.7509
16048TIP3    H169559   5.095   5.213   5.821  1.7385  1.9253  1.1875
16048TIP3    H269560   5.066   5.278   5.687 -0.5264 -1.2107  0.0820
16049TIP3   OH269561   4.979   2.889   3.486  0.0687  0.2718  0.2775
16049TIP3    H169562   4.956   2.910   3.396 -1.4781  1.0581  0.8182
16049TIP3    H269563   5.052   2.947   3.507 -0.5358  1.1513 -0.0127
16050TIP3   OH269564   1.864   1.783   2.877 -0.1473 -0.4665  0.2937
16050TIP3    H169565   1.807   1.736   2.938  0.1674 -0.6688  0.4300
16050TIP3    H269566   1.952   1.771   2.912  0.0927 -0.9858 -0.4679
16051TIP3   OH269567   6.344   0.658  16.129 -0.3905  0.3438 -0.2341
16051TIP3    H169568   6.364   0.741  16.085  0.5405 -1.0818 -2.5598
16051TIP3    H269569   6.389   0.592  16.077 -1.6950 -1.7048  1.1969
16052TIP3   OH269570   2.246   6.683  16.256  0.7408 -0.1698 -0.1416
16052TIP3    H169571   2.163   6.644  16.282  0.0684 -0.8987 -3.1416
16052TIP3    H269572   2.304   6.609  16.241  1.1558  0.2187 -0.4798
16053TIP3   OH269573   1.851   5.064  14.764 -0.7621 -0.2496  0.0292
16053TIP3    H169574   1.856   5.131  14.696 -0.2854  0.3446  0.6356
16053TIP3    H269575   1.930   5.077  14.816 -1.1408 -0.6719  0.7177
16054TIP3   OH269576   3.482   3.321  10.516  0.2967  0.1588  0.0785
16054TIP3    H169577   3.423   3.371  10.459  0.5412  1.1338  0.6850
16054TIP3    H269578   3.501   3.379  10.589  1.0768 -0.5877  0.4813
16055TIP3   OH269579   0.783   5.117  15.780  0.6290  0.1556  0.4240
16055TIP3    H169580   0.770   5.140  15.872 -0.2941  1.7826 -0.0981
16055TIP3    H269581   0.756   5.195  15.731  2.5291 -0.1378 -1.1679
16056TIP3   OH269582   4.257   1.393   1.106 -0.0112  0.0922 -0.8038
16056TIP3    H169583   4.206   1.408   1.027 -1.1351  0.4022 -0.0267
16056TIP3    H269584   4.213   1.444   1.173  0.3317 -0.9815  0.2623
16057TIP3   OH269585   4.482   4.848   4.480  0.0320 -0.2350 -0.3134
16057TIP3    H169586   4.430   4.823   4.556  0.7931 -0.4507  0.1392
16057TIP3    H269587   4.497   4.766   4.433  2.4475 -0.6657  1.1182
16058TIP3   OH269588   2.597   2.148   2.189 -0.5122  0.5825  0.0397
16058TIP3    H169589   2.546   2.071   2.215 -0.2930  0.3463 -0.2177
16058TIP3    H269590   2.672   2.149   2.249  1.3243 -1.3952 -2.1084
16059TIP3   OH269591   5.489   0.847  16.533  0.3220 -0.1595 -0.5355
16059TIP3    H169592   5.431   0.871  16.461 -1.0610  1.3020  1.0207
16059TIP3    H269593   5.433   0.848  16.611  1.8050 -1.5970  0.5968
16060TIP3   OH269594   0.548   6.038   3.998  0.9193  0.0498  0.0641
16060TIP3    H169595   0.481   6.035   3.930  1.1030 -3.4102 -0.0722
16060TIP3    H269596   0.501   6.066   4.077  0.3554  2.3507 -1.0452
16061TIP3   OH269597   1.154   2.540  15.358  0.0555 -0.3739 -0.5298
16061TIP3    H169598   1.123   2.524  15.447 -0.6136  0.0620 -0.6761
16061TIP3    H269599   1.216   2.470  15.340 -0.3100 -0.8408  0.0423
16062TIP3   OH269600   5.790   2.804  12.389  0.1034  0.2592  0.8431
16062TIP3    H169601   5.720   2.844  12.337  1.2677 -0.7537 -1.5985
16062TIP3    H269602   5.760   2.714  12.403 -0.3280  0.5997  2.2230
16063TIP3   OH269603   5.185   2.745   5.425  0.0400  0.0172 -0.5849
16063TIP3    H169604   5.137   2.699   5.494 -1.7826  0.8042 -1.2932
16063TIP3    H269605   5.197   2.834   5.459 -0.0479  0.1544 -0.9176
16064TIP3   OH269606   5.906   5.693  16.184 -0.1907  0.2504 -0.1698
16064TIP3    H169607   5.944   5.656  16.105 -1.5943  0.8462 -1.1476
16064TIP3    H269608   5.886   5.617  16.239  4.2153  0.0037  1.2694
16065TIP3   OH269609   2.568   1.632  10.740  0.1866  0.2947  0.1478
16065TIP3    H169610   2.601   1.722  10.745  2.2383 -0.5307  1.8131
16065TIP3    H269611   2.565   1.601  10.830 -1.4317 -1.0033 -0.3185
16066TIP3   OH269612   1.778   3.725   0.180 -0.1375  0.4516  0.0327
16066TIP3    H169613   1.854   3.706   0.237  2.4721  1.9852 -2.7969
16066TIP3    H269614   1.729   3.643   0.178  2.5499 -1.2289  0.3735
16067TIP3   OH269615   4.363   5.566   0.914  0.0996 -0.1424 -0.0135
16067TIP3    H169616   4.442   5.618   0.928 -1.5650  2.4327  0.1762
16067TIP3    H269617   4.329   5.552   1.003 -0.2396 -0.2915 -0.1689
16068TIP3   OH269618   1.413   4.700   5.643  0.6867  0.5763 -0.7142
16068TIP3    H169619   1.342   4.643   5.614  1.2242 -1.3986  1.6800
16068TIP3    H269620   1.387   4.728   5.731  2.3957  0.6490 -0.2221
16069TIP3   OH269621   1.027   5.085   6.057 -0.2025  0.4670  0.1327
16069TIP3    H169622   1.111   5.132   6.058  1.4115 -2.2751 -0.4350
16069TIP3    H269623   1.015   5.059   5.966 -0.2075 -1.5882  0.6847
16070TIP3   OH269624   2.455   0.946   5.778 -0.2512  0.6967 -0.3925
16070TIP3    H169625   2.372   0.898   5.780  0.4830 -0.6303 -0.8167
16070TIP3    H269626   2.486   0.943   5.869  0.5783 -1.0661 -0.7209
16071TIP3   OH269627   4.572   1.671   0.955 -0.0780  0.3997 -0.0739
16071TIP3    H169628   4.591   1.656   0.863 -1.0936 -0.1223 -0.2047
16071TIP3    H269629   4.571   1.766   0.964 -0.9780  0.4681 -0.8208
16072TIP3   OH269630   0.134   6.124   4.809 -0.3902  0.5117 -0.2265
16072TIP3    H169631   0.210   6.163   4.767  0.2497  1.8888  2.0930
16072TIP3    H269632   0.063   6.188   4.798 -0.8756 -0.1998 -1.2843
16073TIP3   OH269633   5.905   1.724  13.681  0.4928 -0.7078 -0.2230
16073TIP3    H169634   5.876   1.712  13.772  0.5692 -1.0728 -0.2433
16073TIP3    H269635   5.987   1.675  13.676 -0.3478 -2.0659 -0.9269
16074TIP3   OH269636   0.591   3.148  13.914 -0.1689 -0.2272 -0.1169
16074TIP3    H169637   0.560   3.231  13.952 -0.2650 -0.6168  0.6756
16074TIP3    H269638   0.571   3.155  13.821  1.3758  1.3655 -0.3732
16075TIP3   OH269639   2.527   0.895  16.771  0.1553  0.0620 -0.1986
16075TIP3    H169640   2.525   0.836  16.696  0.9413 -1.0375  0.6358
16075TIP3    H269641   2.614   0.884  16.809 -0.3991  0.2115  1.1836
16076TIP3   OH269642   6.729   1.959   3.032 -0.1041  0.4180  0.1573
16076TIP3    H169643   6.736   1.925   2.943  1.9503  0.3576  0.3248
16076TIP3    H269644   6.660   2.025   3.027 -1.4574 -1.0416 -1.0130
16077TIP3   OH269645   0.028   5.964  15.040 -0.0917  0.2147  0.5018
16077TIP3    H169646   0.035   5.999  15.129  1.0279  0.1993  0.4291
16077TIP3    H269647   0.008   5.871  15.053 -2.7874  0.7883  0.6960
16078TIP3   OH269648   6.028   1.270  15.000 -0.5791 -0.0744 -0.1408
16078TIP3    H169649   6.100   1.317  15.042 -0.5623 -0.3687  0.1578
16078TIP3    H269650   6.071   1.220  14.929 -0.5742  0.2261 -0.3493
16079TIP3   OH269651   2.090   3.198  12.569  0.2022 -0.3645 -0.2156
16079TIP3    H169652   2.021   3.228  12.509 -0.0634 -2.0425 -0.7726
16079TIP3    H269653   2.042   3.156  12.641  0.5838  0.3219  0.4517
16080TIP3   OH269654   4.555   4.137  12.947 -0.5982 -0.0317 -0.0651
16080TIP3    H169655   4.527   4.205  12.886 -0.9938  0.2497  0.4200
16080TIP3    H269656   4.479   4.123  13.004  0.0407  0.3150  0.8964
16081TIP3   OH269657   3.958   1.296  16.202  0.0783  0.2398  0.4378
16081TIP3    H169658   3.971   1.275  16.110 -0.1677 -0.4714  0.5675
16081TIP3    H269659   3.863   1.292  16.215  0.1455 -0.1277  0.8312
16082TIP3   OH269660   2.798   5.830   5.131 -0.1804  0.3841  0.5920
16082TIP3    H169661   2.796   5.825   5.226 -2.3544  1.5728  0.6310
16082TIP3    H269662   2.849   5.908   5.112  0.7327 -0.1659  0.7603
16083TIP3   OH269663   1.448   4.958   0.569  0.1492  0.3893  0.5825
16083TIP3    H169664   1.495   4.905   0.634  0.2369 -0.7102 -0.3750
16083TIP3    H269665   1.517   5.001   0.519  0.2717 -2.6910 -2.0660
16084TIP3   OH269666   5.750   6.546  14.775 -0.0276  0.0029 -0.1690
16084TIP3    H169667   5.800   6.624  14.751  1.6359 -0.9257  0.1792
16084TIP3    H269668   5.716   6.512  14.693 -0.8655  1.1606 -0.3091
16085TIP3   OH269669   5.971   1.821  15.211  0.0004  0.2642 -0.7353
16085TIP3    H169670   5.901   1.885  15.198 -0.0988 -0.0430 -1.7319
16085TIP3    H269671   5.944   1.745  15.160  1.0218  0.1104 -1.0478
16086TIP3   OH269672   5.576   2.365  12.975  0.1167 -0.4397  0.4153
16086TIP3    H169673   5.552   2.295  13.035 -0.3414 -0.1543  0.5759
16086TIP3    H269674   5.495   2.385  12.929  0.5691 -0.9454 -0.6023
16087TIP3   OH269675   3.342   2.496  13.260  0.4479  0.2597 -0.1561
16087TIP3    H169676   3.308   2.411  13.231  1.4090 -0.7612  1.6251
16087TIP3    H269677   3.277   2.527  13.322  0.5527  0.3981 -0.1169
16088TIP3   OH269678   4.733   5.567   0.204 -0.0668 -0.1166 -0.9254
16088TIP3    H169679   4.681   5.491   0.231  0.4256 -0.1424  0.0034
16088TIP3    H269680   4.759   5.548   0.114 -0.6734 -0.6502 -0.9900
16089TIP3   OH269681   0.475   3.697  13.811  0.1268  0.0244 -0.2371
16089TIP3    H169682   0.426   3.685  13.892  0.9743  0.6440  0.3778
16089TIP3    H269683   0.432   3.639  13.748 -1.5860  0.7769  0.2072
16090TIP3   OH269684   4.293   0.655  11.065  0.5330 -0.0472  0.0624
16090TIP3    H169685   4.213   0.704  11.082 -0.0404 -0.6139 -0.9346
16090TIP3    H269686   4.346   0.714  11.010  0.5778  0.1200  0.2831
16091TIP3   OH269687   1.663   6.597  16.253  1.0463 -0.5343  0.8073
16091TIP3    H169688   1.743   6.580  16.301  1.3422 -0.4255  0.3506
16091TIP3    H269689   1.691   6.645  16.175  0.6406 -1.2743  0.2013
16092TIP3   OH269690   0.639   4.405  10.682  0.5748 -0.2037 -0.2482
16092TIP3    H169691   0.704   4.409  10.611 -0.4412  0.1122 -1.1901
16092TIP3    H269692   0.594   4.489  10.676 -0.3162 -0.6641  0.0024
16093TIP3   OH269693   2.035   1.072  15.762 -0.7363 -0.2637  0.0913
16093TIP3    H169694   2.105   1.007  15.761 -0.0497  0.4703 -2.1898
16093TIP3    H269695   2.073   1.147  15.809  0.2584  0.3779 -1.7038
16094TIP3   OH269696   4.628   4.372  16.745  0.1858  0.0107 -0.0715
16094TIP3    H169697   4.565   4.313  16.785  1.3821 -0.5923  0.9579
16094TIP3    H269698   4.575   4.432  16.691 -1.1466 -1.1000 -0.0068
16095TIP3   OH269699   0.571   1.882  16.471  0.6393 -0.1679  0.5796
16095TIP3    H169700   0.531   1.812  16.522 -0.6575 -1.0172 -1.5591
16095TIP3    H269701   0.537   1.963  16.510 -1.7858 -0.8449 -0.0857
16096TIP3   OH269702   4.522   1.394   0.953 -0.1730  0.2645 -0.0612
16096TIP3    H169703   4.427   1.386   0.957 -0.2010  0.8478  0.4788
16096TIP3    H269704   4.538   1.488   0.943  0.3970  0.3296  1.3949
16097TIP3   OH269705   3.197   2.480   5.334 -0.2899 -0.3416  0.3403
16097TIP3    H169706   3.275   2.535   5.327  0.9746 -2.1844 -0.4435
16097TIP3    H269707   3.164   2.496   5.422 -0.1906  1.9665 -0.0145
16098TIP3   OH269708   5.086   0.502   3.266  0.2707 -0.1650 -0.3929
16098TIP3    H169709   5.136   0.431   3.226 -1.6686 -0.3387 -2.6510
16098TIP3    H269710   5.125   0.582   3.230  0.5360 -0.2144 -0.2084
16099TIP3   OH269711   2.743   3.478   6.644 -0.0490 -0.2433 -0.1050
16099TIP3    H169712   2.729   3.560   6.597 -1.8348  0.4458  1.5544
16099TIP3    H269713   2.712   3.411   6.583  0.7983  0.3556 -1.2095
16100TIP3   OH269714   2.993   2.158  15.738  0.3070  0.3304  0.6226
16100TIP3    H169715   3.049   2.165  15.660  1.1569 -0.5770  1.1371
16100TIP3    H269716   2.913   2.117  15.706  0.4846  0.3538  0.1376
16101TIP3   OH269717   1.637   4.335  16.400 -0.0474 -0.1896 -0.1653
16101TIP3    H169718   1.714   4.364  16.350 -0.4283 -1.4307 -1.4927
16101TIP3    H269719   1.579   4.411  16.401  0.4963  0.2358 -0.5290
16102TIP3   OH269720   3.935   5.698  12.604  0.1043 -0.6259  0.5317
16102TIP3    H169721   3.848   5.693  12.563 -1.5779  0.7209  3.7668
16102TIP3    H269722   3.932   5.633  12.674  1.5961 -0.2801  0.9199
16103TIP3   OH269723   3.999   0.079  16.173  0.3990 -0.5072  0.3005
16103TIP3    H169724   3.996   0.175  16.178  1.1322 -0.4027 -1.0462
16103TIP3    H269725   4.072   0.061  16.114 -0.4198 -1.8735 -0.3172
16104TIP3   OH269726   2.112   0.523  17.230 -0.1864 -0.4284  0.3957
16104TIP3    H169727   2.180   0.458  17.246 -0.5561 -1.3552 -1.5858
16104TIP3    H269728   2.144   0.602  17.272  1.9326 -0.9574 -0.1505
16105TIP3   OH269729   5.035   1.913  17.132  0.3867  0.0019  0.3850
16105TIP3    H169730   5.048   1.835  17.077  1.0331  0.7361 -0.5249
16105TIP3    H269731   4.995   1.879  17.212  2.8791 -1.6121  1.0239
16106TIP3   OH269732   1.217   5.577  16.777 -0.0443 -0.5446 -0.6121
16106TIP3    H169733   1.258   5.642  16.834  0.6211 -0.2292 -1.4362
16106TIP3    H269734   1.123   5.588  16.790  0.0296  1.3112 -1.5504
16107TIP3   OH269735   0.043   5.312  15.986 -0.7118  0.4543  0.2859
16107TIP3    H169736   0.077   5.382  16.042 -2.3263  0.4594  1.2820
16107TIP3    H269737   0.089   5.323  15.903  1.7283  0.4301  1.6137
16108TIP3   OH269738   5.481   4.393  11.344  0.4052 -0.0536  0.1143
16108TIP3    H169739   5.564   4.364  11.305  0.8552 -1.7172  2.2383
16108TIP3    H269740   5.418   4.326  11.319  0.4966 -0.6588  1.5156
16109TIP3   OH269741   3.381   0.902   5.079 -0.6007 -0.2019  0.5394
16109TIP3    H169742   3.339   0.972   5.030  0.2191  0.2921  0.5210
16109TIP3    H269743   3.474   0.925   5.078 -0.4818 -0.6002  1.6404
16110TIP3   OH269744   3.599   1.240   2.900  0.4072  0.3028 -0.2682
16110TIP3    H169745   3.681   1.220   2.854  0.1411 -0.2404 -0.5084
16110TIP3    H269746   3.532   1.191   2.852 -0.1695  1.3233 -0.5235
16111TIP3   OH269747   5.698   3.218   3.660  0.2307  0.0822  0.2770
16111TIP3    H169748   5.708   3.223   3.755 -1.0317  2.3146  0.3375
16111TIP3    H269749   5.668   3.129   3.644  0.9940 -0.4935  1.9096
16112TIP3   OH269750   1.639   2.986  13.954 -0.1011  0.4179  0.5944
16112TIP3    H169751   1.578   2.912  13.964  0.4104  0.1606  1.9357
16112TIP3    H269752   1.716   2.960  14.005  0.8284  1.0759 -0.4592
16113TIP3   OH269753   2.658   1.999   2.748 -0.5026 -0.4436  0.2995
16113TIP3    H169754   2.662   2.085   2.706  0.3082 -1.1797 -1.1440
16113TIP3    H269755   2.629   2.018   2.838  0.2609  1.3977  0.1796
16114TIP3   OH269756   4.204   0.742   2.824  0.3462  0.6684  0.2548
16114TIP3    H169757   4.276   0.788   2.782  0.2693  1.2406  0.7425
16114TIP3    H269758   4.125   0.778   2.784  0.2299  1.9943  1.6458
16115TIP3   OH269759   2.491   4.345  16.020 -0.2162 -0.6949 -0.5083
16115TIP3    H169760   2.524   4.433  16.040 -1.3440 -0.3618 -0.0693
16115TIP3    H269761   2.544   4.287  16.074  0.6805 -0.3094 -0.9565
16116TIP3   OH269762   1.634   1.590  15.836 -0.5760 -0.0449 -0.7031
16116TIP3    H169763   1.661   1.522  15.898 -0.4344 -0.7526 -1.5308
16116TIP3    H269764   1.714   1.610  15.786 -1.3936 -1.6220 -2.6740
16117TIP3   OH269765   0.196   1.317  11.394  0.7629  0.4988 -0.1329
16117TIP3    H169766   0.266   1.256  11.419  0.9510  1.6879  2.3637
16117TIP3    H269767   0.168   1.356  11.476  1.2226  4.4459 -1.7533
16118TIP3   OH269768   5.002   6.193  16.114 -0.1336  0.1629  0.4536
16118TIP3    H169769   5.005   6.120  16.176 -1.9515 -0.0907  0.2692
16118TIP3    H269770   5.051   6.263  16.156 -0.1183 -0.4896  1.5283
16119TIP3   OH269771   3.078   2.981  14.154 -0.6889 -0.3846 -0.6673
16119TIP3    H169772   3.166   2.948  14.175  0.1400  1.7514 -0.6349
16119TIP3    H269773   3.079   2.994  14.060 -0.7121  0.3151 -0.5770
16120TIP3   OH269774   5.953   1.689   4.853  0.1328  0.1333 -0.3095
16120TIP3    H169775   5.864   1.681   4.887  0.5852 -0.8879  0.6779
16120TIP3    H269776   5.942   1.697   4.758 -0.9413 -1.9493 -0.3980
16121TIP3   OH269777   1.017   5.604  12.232 -0.3049  0.1997 -0.5928
16121TIP3    H169778   0.991   5.684  12.186 -0.5433  0.1747 -0.5030
16121TIP3    H269779   1.073   5.636  12.303 -0.6920  0.3210 -0.3368
16122TIP3   OH269780   3.736   4.794   1.807  0.7887  0.0116 -0.0408
16122TIP3    H169781   3.652   4.754   1.787  1.2328 -2.0822  2.0173
16122TIP3    H269782   3.718   4.888   1.808 -0.9379 -0.2665 -2.0789
16123TIP3   OH269783   4.909   6.558   5.990  0.2307 -0.1723  0.0006
16123TIP3    H169784   4.944   6.645   6.008 -1.9448  0.6724  0.3787
16123TIP3    H269785   4.909   6.514   6.075 -0.0652  0.0018  0.0930
16124TIP3   OH269786   2.824   5.072   1.222 -0.4071  0.2340 -0.1715
16124TIP3    H169787   2.866   4.986   1.218 -0.7682  0.0433  0.1466
16124TIP3    H269788   2.830   5.098   1.314 -3.3610 -0.9901  0.4356
16125TIP3   OH269789   1.319   5.542  13.229 -0.3209  0.1710  0.2440
16125TIP3    H169790   1.258   5.527  13.156 -0.5176 -3.2613  1.0323
16125TIP3    H269791   1.263   5.550  13.306  0.1262 -2.5204  0.9027
16126TIP3   OH269792   0.336   2.573  13.002  0.0043 -0.2623 -0.6735
16126TIP3    H169793   0.281   2.499  12.975 -0.5190 -0.8230  1.7813
16126TIP3    H269794   0.356   2.555  13.094  1.8280  1.4706 -0.7080
16127TIP3   OH269795   6.673   6.588  12.767 -0.2160 -0.5832 -0.1708
16127TIP3    H169796   6.707   6.506  12.730 -0.1634 -0.8781  0.5205
16127TIP3    H269797   6.581   6.570  12.785 -0.5978  0.0050 -1.4242
16128TIP3   OH269798   3.590   3.362  12.280  0.0713 -0.4879 -0.0582
16128TIP3    H169799   3.595   3.368  12.376  1.6973 -1.0273 -0.0818
16128TIP3    H269800   3.646   3.433  12.249  0.0852 -0.7368 -0.6032
16129TIP3   OH269801   0.927   4.068   4.203 -0.1450  0.4221  0.6695
16129TIP3    H169802   0.941   4.022   4.120 -2.2197 -0.0551  0.5618
16129TIP3    H269803   1.011   4.111   4.221  1.3578 -2.1092 -0.0346
16130TIP3   OH269804   1.397   2.009   3.773  0.0822 -0.3272  0.9059
16130TIP3    H169805   1.432   2.074   3.834 -1.7260  2.3179 -0.7485
16130TIP3    H269806   1.325   1.968   3.819  0.5827 -0.4364  1.5974
16131TIP3   OH269807   0.887   3.608   2.180  0.7621 -0.1195  0.0243
16131TIP3    H169808   0.801   3.616   2.139 -0.4188 -2.0455  2.0507
16131TIP3    H269809   0.887   3.676   2.248  0.8837 -0.0618 -0.0328
16132TIP3   OH269810   1.256   5.576   0.358  0.0990  0.2051  0.3345
16132TIP3    H169811   1.316   5.628   0.411  0.7592 -0.9511  0.7401
16132TIP3    H269812   1.170   5.595   0.394  0.3392  0.9758  0.5160
16133TIP3   OH269813   4.111   4.522  12.640 -0.3198  0.1763  0.5248
16133TIP3    H169814   4.133   4.613  12.620  0.4944  0.1737  1.4158
16133TIP3    H269815   4.080   4.525  12.730  0.4245 -0.5490  0.8064
16134TIP3   OH269816   0.153   3.858  12.602  0.0967 -0.0061  0.1981
16134TIP3    H169817   0.138   3.809  12.522  1.0034  3.5804 -2.3228
16134TIP3    H269818   0.245   3.842  12.623 -0.0073 -0.5551  0.2365
16135TIP3   OH269819   0.906   2.685  12.727  0.2336  0.2016  0.4627
16135TIP3    H169820   0.947   2.723  12.649  0.3430 -0.0268  0.4075
16135TIP3    H269821   0.977   2.677  12.790  0.1874  0.1831  0.5125
16136TIP3   OH269822   4.299   4.723   0.240  0.2341  0.3619  0.5741
16136TIP3    H169823   4.241   4.783   0.193 -0.2240  1.4070  2.4551
16136TIP3    H269824   4.263   4.718   0.328  0.9057 -1.8476  0.7677
16137TIP3   OH269825   0.295   4.076   0.720  0.0897  0.2349  0.3203
16137TIP3    H169826   0.325   3.985   0.719 -1.1339 -0.1650  0.1601
16137TIP3    H269827   0.348   4.119   0.652  0.1875 -0.5058 -0.0780
16138TIP3   OH269828   6.007   2.989   3.499  0.2199  0.4559  0.2060
16138TIP3    H169829   5.926   2.940   3.487 -0.0556  0.7459  0.8760
16138TIP3    H269830   6.052   2.946   3.571  0.2394  0.8376  0.4268
16139TIP3   OH269831   0.042   2.174   1.845  0.3760  0.2713  0.5790
16139TIP3    H169832   0.114   2.214   1.893  1.5135 -1.1647  0.1344
16139TIP3    H269833  -0.012   2.133   1.912  0.8723 -0.0306  0.7991
16140TIP3   OH269834   1.225   3.534  15.224  0.4026 -0.0885 -0.1004
16140TIP3    H169835   1.133   3.554  15.210  0.0426 -1.4751  0.1456
16140TIP3    H269836   1.244   3.462  15.164  1.0907 -0.3727  0.4372
16141TIP3   OH269837   0.052   5.017  13.420  0.3617  0.2360  0.1828
16141TIP3    H169838  -0.033   5.017  13.376  0.1172 -0.1450  0.6461
16141TIP3    H269839   0.085   5.106  13.409  0.4758  0.0456 -1.1016
16142TIP3   OH269840   3.415   5.439   4.945 -0.1165 -0.3113  0.5328
16142TIP3    H169841   3.352   5.501   4.909  0.2752  0.0358  0.4425
16142TIP3    H269842   3.379   5.415   5.031 -0.4616 -0.2533  0.4036
16143TIP3   OH269843   5.927   5.516  15.208  0.0389  0.2582 -0.2538
16143TIP3    H169844   5.942   5.578  15.136 -0.7240 -1.4960 -1.9636
16143TIP3    H269845   5.851   5.465  15.181 -0.8831  0.2039  2.2627
16144TIP3   OH269846   6.532   5.251  11.452  0.1963  0.0634  0.1826
16144TIP3    H169847   6.553   5.326  11.507  1.1301  0.3126 -0.4975
16144TIP3    H269848   6.616   5.208  11.438 -0.4330 -1.4661  1.0766
16145TIP3   OH269849   0.573   4.183  10.822 -0.0797  0.1931 -0.1074
16145TIP3    H169850   0.587   4.200  10.915  2.8306 -0.0103 -0.4682
16145TIP3    H269851   0.582   4.269  10.780 -2.2968  0.4378 -0.1310
16146TIP3   OH269852   6.357   5.887  11.455 -0.7104  0.0832 -0.0540
16146TIP3    H169853   6.370   5.909  11.547 -1.0736 -1.9378  0.4841
16146TIP3    H269854   6.364   5.972  11.410 -1.6807  1.2762  1.9330
16147TIP3   OH269855   3.774   3.563  14.266  0.0924  0.1214  0.3388
16147TIP3    H169856   3.811   3.550  14.353 -0.2686 -0.5801  0.3870
16147TIP3    H269857   3.703   3.500  14.260 -0.1501  0.4475 -0.3136
16148TIP3   OH269858   1.156   6.233  16.701 -0.0883 -0.4861 -0.1388
16148TIP3    H169859   1.095   6.183  16.648  0.2859 -0.4983 -0.5591
16148TIP3    H269860   1.100   6.281  16.763 -0.4802 -0.9770 -0.1121
16149TIP3   OH269861   3.229   2.042  12.776  0.3334  0.1860 -0.1345
16149TIP3    H169862   3.219   1.966  12.834  0.2975  0.8392  0.7194
16149TIP3    H269863   3.169   2.107  12.812  0.1970  0.5423 -1.0074
16150TIP3   OH269864   5.045   3.997   0.936  0.2475 -0.4965  0.1163
16150TIP3    H169865   5.068   3.947   1.014 -0.1524 -0.2232  0.4122
16150TIP3    H269866   5.114   3.977   0.873  1.1318  0.0863  0.8930
16151TIP3   OH269867   1.514   3.538  11.660 -0.6984  0.1677  0.1228
16151TIP3    H169868   1.563   3.469  11.705  1.3828  0.1287 -2.1323
16151TIP3    H269869   1.422   3.521  11.683  0.0060 -1.8886  1.5364
16152TIP3   OH269870   6.289   0.093  13.222 -0.3679 -0.4805  0.4794
16152TIP3    H169871   6.376   0.082  13.185 -0.1753 -0.4941  0.9384
16152TIP3    H269872   6.272   0.188  13.218 -0.9617 -0.6423 -1.0318
16153TIP3   OH269873   1.022   6.387  13.531 -0.0928  0.1937  0.3286
16153TIP3    H169874   0.987   6.326  13.465  1.2825  0.8656 -1.0444
16153TIP3    H269875   0.957   6.457  13.534  0.6230  0.9611 -1.5103
16154TIP3   OH269876   0.469   0.894  13.820  0.1181 -0.2543  0.1556
16154TIP3    H169877   0.486   0.911  13.727 -0.1627  0.7845  0.2804
16154TIP3    H269878   0.534   0.948  13.866  2.2344 -3.0672  0.5447
16155TIP3   OH269879   0.207   2.790  14.268  0.0202  0.2810 -0.1103
16155TIP3    H169880   0.286   2.844  14.266  0.1853  0.0232 -1.0212
16155TIP3    H269881   0.186   2.781  14.360  0.4025  1.3097  0.0873
16156TIP3   OH269882   5.595   5.052  17.115  0.1058 -0.2416 -0.0567
16156TIP3    H169883   5.671   5.075  17.062 -0.8298 -0.7756 -1.6527
16156TIP3    H269884   5.548   5.135  17.127 -1.6275 -0.6851 -3.2134
16157TIP3   OH269885   1.845   2.700  11.250 -0.5473 -0.3399  0.1386
16157TIP3    H169886   1.793   2.758  11.306  1.4988  3.1300 -1.4297
16157TIP3    H269887   1.933   2.701  11.288 -0.9872 -4.5254  1.5488
16158TIP3   OH269888   1.023   5.664   4.914  0.4839 -0.4523 -0.6867
16158TIP3    H169889   1.051   5.755   4.922 -0.8948 -0.1177  0.5654
16158TIP3    H269890   0.939   5.669   4.868 -0.1844 -0.9751  0.4578
16159TIP3   OH269891   5.405   2.578  12.648  0.2358 -0.5139 -0.2861
16159TIP3    H169892   5.408   2.619  12.734 -0.2438 -0.5514 -0.2476
16159TIP3    H269893   5.340   2.630  12.600  1.7334  0.5877 -1.1900
16160TIP3   OH269894   4.933   1.840   1.223  0.3067 -0.2743  0.3222
16160TIP3    H169895   4.937   1.775   1.293  0.3966  0.3028  0.8630
16160TIP3    H269896   4.867   1.806   1.163 -0.0469 -0.5935  0.8808
16161TIP3   OH269897   5.363   6.655   0.150  0.5078  0.2111 -0.9014
16161TIP3    H169898   5.414   6.721   0.102 -2.7181  0.6684 -3.8701
16161TIP3    H269899   5.315   6.704   0.216  2.4249  0.0130  0.6896
16162TIP3   OH269900   2.956   5.996  17.225  0.0441 -0.7041  0.0439
16162TIP3    H169901   2.969   5.919  17.281  1.6692  1.0470  2.2056
16162TIP3    H269902   3.022   5.986  17.156  1.8056 -0.1230  1.6182
16163TIP3   OH269903   2.978   0.555   2.685  0.1238 -0.3842 -0.0583
16163TIP3    H169904   2.958   0.500   2.760  0.1401 -1.3238 -0.7305
16163TIP3    H269905   3.058   0.600   2.708  0.8372 -1.6494 -0.0229
16164TIP3   OH269906   1.714   1.064  13.626  0.1967 -0.1019  0.3590
16164TIP3    H169907   1.748   1.150  13.653 -0.5082  0.4516 -0.4906
16164TIP3    H269908   1.741   1.005  13.696  3.5054  0.1589 -0.6140
16165TIP3   OH269909   1.446   3.447   1.275 -0.2921 -0.1870  0.3290
16165TIP3    H169910   1.519   3.509   1.268  0.1030 -0.8631 -2.1213
16165TIP3    H269911   1.368   3.501   1.259 -0.0873  0.0196  0.0078
16166TIP3   OH269912   4.240   1.449   3.040 -0.4183  0.4405  0.4698
16166TIP3    H169913   4.223   1.474   3.131 -0.6625  0.4987  0.4092
16166TIP3    H269914   4.203   1.521   2.989  2.6710  2.0754  0.4232
16167TIP3   OH269915   2.159   3.769   3.081  0.0329 -0.1137  0.5834
16167TIP3    H169916   2.204   3.688   3.058 -1.9537 -0.6349 -1.6364
16167TIP3    H269917   2.083   3.741   3.132 -1.0666  0.2478 -0.8178
16168TIP3   OH269918   1.598   2.710   0.358 -0.3328  0.0562 -0.4063
16168TIP3    H169919   1.672   2.713   0.418 -0.6187 -2.7719  0.1395
16168TIP3    H269920   1.547   2.788   0.380  0.9695  0.5010  1.1636
16169TIP3   OH269921   2.592   6.152   3.320  0.0628 -0.3678 -0.0657
16169TIP3    H169922   2.661   6.218   3.320 -0.7400  0.4823 -0.2555
16169TIP3    H269923   2.585   6.124   3.411  0.2635 -0.0392  0.0500
16170TIP3   OH269924   3.845   5.970  14.990 -0.1749 -0.1909 -0.3989
16170TIP3    H169925   3.902   5.947  15.064 -2.2034 -0.0050  1.2679
16170TIP3    H269926   3.821   5.886  14.951 -2.1245 -0.5770  1.5151
16171TIP3   OH269927   0.734   2.600  13.603 -0.4581 -0.0620 -0.1097
16171TIP3    H169928   0.742   2.558  13.688 -2.8410 -1.0319 -0.3119
16171TIP3    H269929   0.709   2.690  13.623  2.1198  0.5954  0.2635
16172TIP3   OH269930   1.898   1.580  13.772 -0.4013  0.4478 -0.2575
16172TIP3    H169931   1.903   1.650  13.838  2.4989  1.3133 -1.2982
16172TIP3    H269932   1.867   1.622  13.693 -1.2933 -0.0278 -0.1649
16173TIP3   OH269933   5.573   0.260  15.890  0.1629  0.4113 -0.5699
16173TIP3    H169934   5.618   0.215  15.819  2.6578 -0.0341  1.2224
16173TIP3    H269935   5.640   0.317  15.928 -0.7248 -0.3242  2.2137
16174TIP3   OH269936   3.662   2.995  11.704 -0.1209  0.2368 -0.2349
16174TIP3    H169937   3.566   3.001  11.708 -0.1257 -0.8899  2.2761
16174TIP3    H269938   3.689   3.080  11.670 -1.9499  1.2114  0.6363
16175TIP3   OH269939   1.658   4.948   6.680  0.4534  0.3549  0.1579
16175TIP3    H169940   1.709   4.911   6.751  1.1667  1.4864  0.2584
16175TIP3    H269941   1.608   4.875   6.644  1.1428 -0.4918  0.9252
16176TIP3   OH269942   5.831   2.502  14.312  1.1205  0.5679  0.8920
16176TIP3    H169943   5.898   2.483  14.378 -0.9290 -0.6914  2.6932
16176TIP3    H269944   5.864   2.461  14.232  1.6775 -1.6319  2.2091
16177TIP3   OH269945   1.256   0.193   4.250 -0.7873 -0.1156 -0.0606
16177TIP3    H169946   1.233   0.187   4.343 -0.7327 -0.3991 -0.0642
16177TIP3    H269947   1.296   0.108   4.230 -0.1312  0.2119 -0.1587
16178TIP3   OH269948   2.897   1.835  15.775 -1.1840  0.4188 -0.3943
16178TIP3    H169949   2.846   1.764  15.815  1.1008 -0.1558  1.6184
16178TIP3    H269950   2.848   1.858  15.696 -2.2407 -3.0742 -0.8380
16179TIP3   OH269951   0.840   2.010   1.590  0.3130  0.6209 -0.7336
16179TIP3    H169952   0.930   1.980   1.578 -1.3176 -4.2240 -1.8198
16179TIP3    H269953   0.831   2.084   1.529  3.1706  0.4248 -1.4639
16180TIP3   OH269954   0.051   1.646   2.864  0.6376 -0.1503  0.0961
16180TIP3    H169955  -0.006   1.713   2.825  0.1792 -1.2711 -1.1766
16180TIP3    H269956   0.139   1.683   2.857  0.2491  0.9498  0.7449
16181TIP3   OH269957   2.206   1.025   2.317 -0.4780  0.7946 -0.1647
16181TIP3    H169958   2.280   1.074   2.353  0.0454  0.1603 -0.3645
16181TIP3    H269959   2.170   1.083   2.249  1.4423  0.0685 -1.8720
16182TIP3   OH269960   0.622   1.425   4.214  0.1951 -0.7444  0.0557
16182TIP3    H169961   0.609   1.518   4.233  3.5391 -0.2102  0.0289
16182TIP3    H269962   0.564   1.407   4.140  0.6110  1.7098 -0.9126
16183TIP3   OH269963   1.267   4.201   1.005 -0.2393 -0.2352 -0.3942
16183TIP3    H169964   1.190   4.143   1.007 -0.8488  0.5725 -0.1186
16183TIP3    H269965   1.291   4.205   0.912  0.7337 -2.1211 -0.2402
16184TIP3   OH269966   2.916   3.758   2.966 -0.3532 -0.4753  0.1942
16184TIP3    H169967   2.903   3.818   3.040 -1.9487 -2.3057  1.4574
16184TIP3    H269968   3.004   3.778   2.934 -0.5182  1.9306  1.1235
16185TIP3   OH269969   1.415   0.277  12.965 -0.1381  0.7190 -0.7394
16185TIP3    H169970   1.360   0.229  13.027 -0.1712  4.1906  2.1375
16185TIP3    H269971   1.498   0.289  13.011  1.7321 -1.0590 -3.4924
16186TIP3   OH269972   0.503   6.095  11.319  0.2461 -0.2429  0.4098
16186TIP3    H169973   0.577   6.134  11.365  0.1497 -0.5279  0.8114
16186TIP3    H269974   0.518   6.001  11.324  1.1217 -0.2476 -1.6190
16187TIP3   OH269975   3.044   4.730  11.559  0.4545  0.1965  0.3591
16187TIP3    H169976   3.061   4.800  11.496 -0.0086 -0.0069  0.0010
16187TIP3    H269977   3.107   4.745  11.629  0.6324  0.7308  0.0919
16188TIP3   OH269978   6.274   2.387  13.949 -0.0592 -0.1666 -0.4464
16188TIP3    H169979   6.312   2.336  13.878  1.2444  0.4091 -0.1808
16188TIP3    H269980   6.252   2.471  13.909 -1.9997 -0.8414 -0.8304
16189TIP3   OH269981   2.293   5.784   3.152 -0.0719  0.7397  0.2126
16189TIP3    H169982   2.384   5.790   3.183  0.8066  0.7492 -2.2217
16189TIP3    H269983   2.261   5.874   3.156  0.7252  1.0857 -0.8557
16190TIP3   OH269984   3.222   2.201   0.205  0.4842 -0.2529 -0.3365
16190TIP3    H169985   3.221   2.243   0.118  0.3157  0.7821  0.1550
16190TIP3    H269986   3.309   2.220   0.239 -0.1717  1.1555  0.5810
16191TIP3   OH269987   1.307   3.920   3.192  0.3391 -0.2486  1.1177
16191TIP3    H169988   1.395   3.957   3.200  0.9883 -1.8677  1.7533
16191TIP3    H269989   1.320   3.838   3.143 -0.8559 -0.3405  0.9397
16192TIP3   OH269990   2.050   6.061   0.789 -0.6689 -0.1243  0.1798
16192TIP3    H169991   1.985   6.088   0.724  0.8286  0.0762 -1.2864
16192TIP3    H269992   2.093   6.143   0.814  0.9911 -0.5853 -1.0800
16193TIP3   OH269993   6.504   3.817   0.528 -0.6172 -0.6056  0.1454
16193TIP3    H169994   6.558   3.871   0.469 -1.0940 -0.5125 -0.2029
16193TIP3    H269995   6.447   3.767   0.470  0.6684 -2.4216  0.4016
16194TIP3   OH269996   4.006   1.073  14.625 -0.7364  0.0380  0.2092
16194TIP3    H169997   3.916   1.043  14.640 -0.4850 -0.3374  0.9796
16194TIP3    H269998   4.031   1.118  14.706 -0.1004 -0.1722  0.1346
16195TIP3   OH269999   4.102   2.227  16.255 -0.6867 -0.2279  0.3159
16195TIP3    H170000   4.111   2.205  16.163  1.7592 -3.1547  1.1746
16195TIP3    H270001   4.012   2.202  16.277 -0.8120 -0.9357 -0.9291
16196TIP3   OH270002   0.964   5.107  16.541  0.9042 -0.3600 -0.7040
16196TIP3    H170003   0.925   5.095  16.455  1.6810  0.4008 -1.1675
16196TIP3    H270004   1.035   5.170  16.527 -0.1147  1.1854  0.8216
16197TIP3   OH270005   5.009   0.371  11.397 -0.1092  0.4411 -0.3165
16197TIP3    H170006   4.973   0.411  11.318 -0.7088  0.8374  0.1517
16197TIP3    H270007   4.935   0.326  11.438 -0.1785  1.5579  0.8357
16198TIP3   OH270008   4.476   1.912   1.558 -0.0776  0.1853 -0.0266
16198TIP3    H170009   4.428   1.833   1.534  1.6774 -0.4229 -1.6221
16198TIP3    H270010   4.532   1.930   1.483  0.7528  2.0084  1.0037
16199TIP3   OH270011   2.079   4.667  12.258 -0.3634  0.5158 -0.8736
16199TIP3    H170012   2.016   4.733  12.286 -0.1281 -0.2103  1.4940
16199TIP3    H270013   2.154   4.680  12.317  0.5826 -0.3982 -1.8688
16200TIP3   OH270014   0.001   2.588   1.778  0.2465 -0.1171 -0.0403
16200TIP3    H170015  -0.053   2.584   1.857 -1.2003  0.6929 -0.9588
16200TIP3    H270016  -0.005   2.500   1.740 -0.6188  0.0324 -0.2562
16201TIP3   OH270017   1.610   0.390  16.284 -0.6844  0.7337  0.3148
16201TIP3    H170018   1.660   0.375  16.364  0.4327  1.0602 -0.3154
16201TIP3    H270019   1.579   0.303  16.258  0.5807  0.3414  0.0599
16202TIP3   OH270020   5.796   3.713  12.915  0.0408  0.5027  0.0445
16202TIP3    H170021   5.728   3.646  12.914  0.7468 -0.2194  0.0751
16202TIP3    H270022   5.877   3.665  12.897  0.4748  1.4304 -0.5241
16203TIP3   OH270023   3.095   4.642  15.115  0.4305 -0.1397 -0.5036
16203TIP3    H170024   3.149   4.717  15.092  0.8673  0.2570  1.6757
16203TIP3    H270025   3.008   4.678  15.128  1.1111  0.4526  2.8484
16204TIP3   OH270026   0.188   0.914   1.826  0.1556 -0.4025  0.3937
16204TIP3    H170027   0.212   0.845   1.764  0.7246  1.0253 -1.0051
16204TIP3    H270028   0.092   0.918   1.820  0.2772  0.5959 -1.4011
16205TIP3   OH270029   0.882   1.083   0.719  0.3029  0.1040 -0.1073
16205TIP3    H170030   0.960   1.062   0.667 -0.9348 -0.8529 -1.6261
16205TIP3    H270031   0.830   1.003   0.717 -0.7368  0.7430  0.8851
16206TIP3   OH270032   0.099   5.058   5.260 -0.3626  0.7950  0.3228
16206TIP3    H170033   0.020   5.015   5.293 -0.4444 -0.6344 -1.6518
16206TIP3    H270034   0.069   5.110   5.185  0.8886 -1.7008 -2.0060
16207TIP3   OH270035   0.786   3.400  15.835 -0.3561  0.1518 -0.1589
16207TIP3    H170036   0.824   3.319  15.801  1.8240  1.2442 -0.4159
16207TIP3    H270037   0.790   3.391  15.930  0.2414  0.1006 -0.1862
16208TIP3   OH270038   0.597   4.719  14.620 -0.1925 -0.0427 -0.2314
16208TIP3    H170039   0.506   4.714  14.592 -0.4001 -1.1053  0.6176
16208TIP3    H270040   0.640   4.647  14.574  0.2900  0.6459 -0.8696
16209TIP3   OH270041   6.079   6.580  14.881 -0.5181 -0.2197  0.1741
16209TIP3    H170042   6.105   6.492  14.852 -0.2939 -0.6216  1.5747
16209TIP3    H270043   5.990   6.590  14.849 -0.4542 -0.8554 -0.2235
16210TIP3   OH270044   3.207   1.960   2.002 -0.0668  0.0031 -0.2239
16210TIP3    H170045   3.204   2.044   2.047 -1.2517 -0.4419  0.5628
16210TIP3    H270046   3.131   1.912   2.036  1.4867 -1.9841  0.5698
16211TIP3   OH270047   4.936   0.759   1.086  0.8746 -0.4460  0.5798
16211TIP3    H170048   4.951   0.692   1.019 -2.7891 -1.6650  0.8587
16211TIP3    H270049   4.977   0.838   1.050  3.5656 -2.3070 -0.6579
16212TIP3   OH270050   3.037   4.360  14.149  0.4891  0.0583 -0.2063
16212TIP3    H170051   2.985   4.349  14.069  0.0062  0.6621  0.0181
16212TIP3    H270052   3.021   4.451  14.175 -0.1470 -0.4283  1.1315
16213TIP3   OH270053   5.792   6.201  14.454  0.0912  0.5645 -0.2252
16213TIP3    H170054   5.824   6.151  14.529 -0.3697  0.9659  0.2429
16213TIP3    H270055   5.771   6.287  14.490  0.4818  0.9593 -0.9444
16214TIP3   OH270056   1.003   1.708  13.313  0.0650  0.1507 -0.3140
16214TIP3    H170057   1.013   1.645  13.242 -3.8152 -0.6592 -0.2136
16214TIP3    H270058   1.043   1.788  13.279  1.9249 -1.3534 -1.7903
16215TIP3   OH270059   4.153   4.436  16.291  0.4339 -0.3632 -0.4575
16215TIP3    H170060   4.063   4.429  16.261  0.0904  0.5571  0.3354
16215TIP3    H270061   4.152   4.397  16.379  1.2803 -2.3867 -1.3193
16216TIP3   OH270062   3.760   5.861  12.420  0.0401  0.4348 -0.1147
16216TIP3    H170063   3.827   5.927  12.436  0.5439  0.1124 -0.8751
16216TIP3    H270064   3.716   5.890  12.340 -0.9836  0.8500  0.5911
16217TIP3   OH270065   1.593   4.668  16.773  0.5670 -0.5337  0.4124
16217TIP3    H170066   1.665   4.610  16.796 -0.5337 -2.1029 -0.0011
16217TIP3    H270067   1.600   4.741  16.835  2.0238 -1.0506  0.8804
16218TIP3   OH270068   1.517   3.142  16.922  0.8012 -0.0670  0.0253
16218TIP3    H170069   1.474   3.132  16.837 -2.7260  0.9820  1.5921
16218TIP3    H270070   1.456   3.102  16.985  3.5896 -1.3543  2.0169
16219TIP3   OH270071   0.318   5.029   4.912  0.5581  0.2032 -0.8705
16219TIP3    H170072   0.299   4.997   4.824 -0.7465  0.1868 -0.5934
16219TIP3    H270073   0.332   5.123   4.900 -0.6943  0.3870 -0.9437
16220TIP3   OH270074   3.182   2.120   5.324  0.6266  0.6432 -0.4158
16220TIP3    H170075   3.097   2.158   5.347 -0.2391 -1.0295 -0.8040
16220TIP3    H270076   3.171   2.087   5.235  1.1052 -1.2361  0.1990
16221TIP3   OH270077   3.777   5.058  12.674 -0.0658  0.0960 -0.5181
16221TIP3    H170078   3.802   5.111  12.749  0.5293 -0.6765 -0.1617
16221TIP3    H270079   3.699   5.010  12.702  1.2424 -1.6050  0.2684
16222TIP3   OH270080   1.711   3.615  11.070 -0.1703  0.5003  0.3130
16222TIP3    H170081   1.693   3.599  10.977  0.5196 -1.6507  0.5278
16222TIP3    H270082   1.625   3.621  11.111 -0.4677  0.7155 -0.3391
16223TIP3   OH270083   5.638   2.381   5.207 -0.5954  0.4500  0.1802
16223TIP3    H170084   5.629   2.465   5.163  0.7058  1.9135  2.6082
16223TIP3    H270085   5.709   2.394   5.270 -0.6211 -2.3479  0.8793
16224TIP3   OH270086   5.519   1.046   3.617  0.1952  0.6002  0.3336
16224TIP3    H170087   5.479   1.129   3.641  1.1826  1.2429 -0.1929
16224TIP3    H270088   5.592   1.036   3.679 -1.1080 -0.8431  1.6675
16225TIP3   OH270089   2.868   2.244   1.809 -0.2950 -0.2796 -0.1802
16225TIP3    H170090   2.914   2.299   1.746  1.2571 -1.8631 -0.4884
16225TIP3    H270091   2.858   2.298   1.887 -0.7737  1.1492 -1.2251
16226TIP3   OH270092   5.913   5.837   0.812  0.3897 -0.3195  0.3371
16226TIP3    H170093   5.846   5.795   0.866  0.3586 -0.7941 -0.0608
16226TIP3    H270094   5.983   5.860   0.873 -0.4200  0.7907  0.8656
16227TIP3   OH270095   5.856   4.493  12.200  0.5221 -0.2311 -0.4521
16227TIP3    H170096   5.902   4.450  12.272 -1.8181 -1.7216  0.2227
16227TIP3    H270097   5.910   4.476  12.123  0.7692 -2.5158  0.1977
16228TIP3   OH270098   0.770   5.962   5.514 -0.2526 -0.4134  0.4723
16228TIP3    H170099   0.696   5.983   5.571 -0.9206 -0.5465 -0.3403
16228TIP3    H270100   0.732   5.904   5.447  0.1997  0.9849 -0.9967
16229TIP3   OH270101   6.041   1.192  11.121 -0.1614 -0.2168  0.1571
16229TIP3    H170102   6.019   1.107  11.083  0.9000  0.3380 -1.7514
16229TIP3    H270103   5.962   1.218  11.170 -1.7573 -0.7175 -2.0859
16230TIP3   OH270104   0.303   3.054  10.786  0.1001  0.1038  0.1675
16230TIP3    H170105   0.386   3.009  10.795  0.8690  1.6465  1.0361
16230TIP3    H270106   0.238   2.984  10.779  1.2855 -1.1325  1.2683
16231TIP3   OH270107   0.200   2.338  13.033  0.5495  0.3277 -0.3668
16231TIP3    H170108   0.115   2.333  13.076  0.4145 -2.4433 -0.8891
16231TIP3    H270109   0.264   2.313  13.101  0.5578 -1.5692 -1.0473
16232TIP3   OH270110   3.321   6.211  15.363  0.2335 -0.4781  0.6256
16232TIP3    H170111   3.233   6.233  15.395 -0.4154  0.0259 -1.3787
16232TIP3    H270112   3.307   6.134  15.308  1.5258 -2.1519  2.5881
16233TIP3   OH270113   4.163   2.987   4.532  0.1852 -0.2391  0.3938
16233TIP3    H170114   4.110   3.010   4.608 -0.2735  0.0924 -0.0219
16233TIP3    H270115   4.155   3.062   4.473 -1.2404 -1.4037 -0.9322
16234TIP3   OH270116   3.847   3.657   1.946 -0.2812 -0.1065  0.3819
16234TIP3    H170117   3.856   3.706   2.027  0.3792 -0.0747  0.2922
16234TIP3    H270118   3.816   3.721   1.882 -1.2377 -0.2329  0.7130
16235TIP3   OH270119   6.208   6.088   0.677  0.0848 -0.0118  0.2084
16235TIP3    H170120   6.211   6.006   0.627  0.9039 -0.7088  1.3614
16235TIP3    H270121   6.167   6.151   0.618 -3.9607 -2.1311  0.5714
16236TIP3   OH270122   2.433   3.617  12.393  0.1843  0.1312  0.1361
16236TIP3    H170123   2.358   3.586  12.342  1.0960  0.5104 -1.4739
16236TIP3    H270124   2.441   3.709  12.371  0.8081  0.2185  0.7074
16237TIP3   OH270125   0.365   0.027   2.806  0.4931 -0.0763 -0.0231
16237TIP3    H170126   0.446   0.016   2.857  0.8952 -0.2599 -0.6972
16237TIP3    H270127   0.381  -0.022   2.725 -0.5573 -0.6721  0.1304
16238TIP3   OH270128   6.389   3.181  13.110 -0.8359  0.6667  0.1287
16238TIP3    H170129   6.310   3.214  13.152 -2.0760 -0.9829 -0.8250
16238TIP3    H270130   6.366   3.092  13.084  0.5191  1.0096 -2.3498
16239TIP3   OH270131   5.395   2.658   1.801  0.1669 -0.5496 -0.1131
16239TIP3    H170132   5.397   2.590   1.869 -0.2512  1.0774  1.5562
16239TIP3    H270133   5.445   2.730   1.838 -1.8521  1.1708 -0.6640
16240TIP3   OH270134   1.947   5.104   4.068  0.3011  0.3420  0.2156
16240TIP3    H170135   1.976   5.061   3.988  0.0509  0.5445  0.0134
16240TIP3    H270136   1.897   5.180   4.038 -1.7728 -0.8542  0.5176
16241TIP3   OH270137   2.777   1.891  12.269 -0.3549 -0.4712  0.4300
16241TIP3    H170138   2.861   1.872  12.311  0.5715  0.4145 -1.0068
16241TIP3    H270139   2.749   1.806  12.233  0.4063 -0.5610  0.0471
16242TIP3   OH270140   1.548   4.772  11.270  1.1681  0.0861 -0.5503
16242TIP3    H170141   1.537   4.682  11.238 -0.3046 -0.5134  1.5699
16242TIP3    H270142   1.459   4.807  11.274  1.3673  0.3901  2.1012
16243TIP3   OH270143   3.534   5.309   1.345 -0.2696 -0.0804  0.0647
16243TIP3    H170144   3.499   5.299   1.433  0.2728  0.2801  0.3236
16243TIP3    H270145   3.467   5.272   1.288 -0.9312  0.3395  0.5756
16244TIP3   OH270146   4.760   5.284   3.156 -0.4510 -0.2863 -0.3294
16244TIP3    H170147   4.738   5.368   3.198 -2.6436 -0.8594 -0.2359
16244TIP3    H270148   4.845   5.260   3.193 -1.3376  0.2659  2.2287
16245TIP3   OH270149   1.904   0.299  12.890 -0.2458 -0.1720  0.7457
16245TIP3    H170150   1.833   0.290  12.827 -0.9249 -1.9692  1.7126
16245TIP3    H270151   1.868   0.265  12.972  1.1048  0.7123  1.7259
16246TIP3   OH270152   5.400   5.809  15.291 -0.3268 -0.4961 -0.1262
16246TIP3    H170153   5.477   5.775  15.245 -1.8475 -1.6016 -1.9157
16246TIP3    H270154   5.325   5.774  15.243 -1.9798  0.1355  1.8862
16247TIP3   OH270155   5.672   4.575  13.374 -0.1307 -0.0335 -0.8234
16247TIP3    H170156   5.625   4.568  13.457 -2.3096  1.2811 -1.8822
16247TIP3    H270157   5.690   4.484  13.349 -3.9434 -0.7426 -1.3071
16248TIP3   OH270158   6.027   3.163  15.877 -0.0685  0.0519  0.0616
16248TIP3    H170159   6.085   3.103  15.925  1.8700  1.1089 -0.8976
16248TIP3    H270160   6.061   3.163  15.788 -1.7526  0.4753 -0.5979
16249TIP3   OH270161   6.431   2.371  15.027 -0.1605  0.3162 -0.2316
16249TIP3    H170162   6.485   2.332  14.958 -0.1674 -0.0004 -0.0571
16249TIP3    H270163   6.470   2.457  15.042  0.1909  0.1560 -0.2248
16250TIP3   OH270164   6.472   5.123   4.037  0.0224 -0.1415  0.7337
16250TIP3    H170165   6.533   5.194   4.016 -1.9809  1.2266 -0.5521
16250TIP3    H270166   6.521   5.044   4.016  1.1940  0.9406 -0.7676
16251TIP3   OH270167   4.114   5.379  16.422  0.3448 -0.2408  0.0892
16251TIP3    H170168   4.035   5.377  16.368 -0.2714  0.5463  0.9564
16251TIP3    H270169   4.185   5.399  16.360  0.1098 -2.4117 -0.9443
16252TIP3   OH270170   2.810   6.340   0.323 -0.5641 -0.0534  0.3126
16252TIP3    H170171   2.879   6.277   0.346  0.4944  0.3355 -1.6696
16252TIP3    H270172   2.782   6.314   0.236 -2.7097  0.0272  0.9464
16253TIP3   OH270173   2.151   1.827  14.233 -0.0168  0.4549 -0.1382
16253TIP3    H170174   2.111   1.911  14.253 -0.9750  0.3246 -1.4303
16253TIP3    H270175   2.077   1.766  14.229  0.6298 -0.3777  0.3943
16254TIP3   OH270176   6.604   0.020  11.336  0.3844 -0.1839  0.0691
16254TIP3    H170177   6.685   0.034  11.384  0.6789 -2.4514  0.3008
16254TIP3    H270178   6.631   0.011  11.245  0.0515  1.9858 -0.2745
16255TIP3   OH270179   5.108   5.960   0.688 -0.1482  0.4767 -0.4578
16255TIP3    H170180   5.036   6.012   0.651 -1.1387  1.7383  3.0443
16255TIP3    H270181   5.087   5.952   0.781  3.2201 -0.8747  0.2749
16256TIP3   OH270182   1.342   3.006  12.754 -0.2108 -0.4233 -0.6105
16256TIP3    H170183   1.350   2.948  12.830 -1.5910 -1.2125 -1.0548
16256TIP3    H270184   1.429   3.003  12.713  0.1474 -1.0497  0.1803
16257TIP3   OH270185   5.023   0.842  12.269  0.0697 -0.0688  0.4243
16257TIP3    H170186   4.956   0.907  12.246  0.3913 -0.0418 -0.4513
16257TIP3    H270187   5.099   0.867  12.216  0.2657 -1.0235  0.2478
16258TIP3   OH270188   5.206   5.607  13.115  0.0585  0.5022 -0.5820
16258TIP3    H170189   5.236   5.547  13.047  2.4728 -1.2007  1.8613
16258TIP3    H270190   5.132   5.562  13.156 -0.5555  0.9356 -1.2021
16259TIP3   OH270191   5.705   4.498   1.469 -0.4737  0.0414  0.0381
16259TIP3    H170192   5.736   4.581   1.507 -0.6622 -0.7995  2.1284
16259TIP3    H270193   5.691   4.441   1.545 -2.4989 -1.1847 -1.2106
16260TIP3   OH270194   2.274   2.546   1.952  0.4035 -1.1344 -0.1203
16260TIP3    H170195   2.349   2.535   1.894  0.0310 -0.1574 -0.8094
16260TIP3    H270196   2.198   2.547   1.893 -0.0376 -0.7841  0.4425
16261TIP3   OH270197   5.292   5.336  12.555  0.2040  0.3825  0.1313
16261TIP3    H170198   5.352   5.283  12.608  0.2650  1.7984  1.5212
16261TIP3    H270199   5.346   5.407  12.521 -0.4799  1.1685  0.6583
16262TIP3   OH270200   0.209   4.319   0.940 -0.0807 -0.4679 -0.3285
16262TIP3    H170201   0.210   4.226   0.920 -1.6360 -0.4238 -0.6403
16262TIP3    H270202   0.122   4.349   0.912  0.9304  1.3687 -1.6517
16263TIP3   OH270203   5.863   3.090  11.646 -0.0314 -0.2976  0.5599
16263TIP3    H170204   5.882   3.049  11.562  0.1461 -2.0926  1.4663
16263TIP3    H270205   5.948   3.113  11.682 -0.1301  0.9079  0.0494
16264TIP3   OH270206   5.519   1.001  10.870 -0.4792  0.0191  0.5711
16264TIP3    H170207   5.582   1.052  10.821 -1.1426 -1.2306 -1.6692
16264TIP3    H270208   5.536   0.910  10.845 -2.8284 -0.3872  0.2535
16265TIP3   OH270209   2.418   0.285   6.016  0.7690  0.0979  0.0541
16265TIP3    H170210   2.353   0.217   6.000  0.0606  1.3313 -2.5973
16265TIP3    H270211   2.371   0.352   6.066 -0.0118  0.9166 -1.7246
16266TIP3   OH270212   6.254   3.058  11.957 -0.2227  0.4542  0.1498
16266TIP3    H170213   6.340   3.027  11.985  0.7472  1.8631 -1.1921
16266TIP3    H270214   6.244   3.144  11.999 -0.5076  0.7745 -0.5571
16267TIP3   OH270215   5.928   2.412  15.060 -0.1165 -0.0966 -0.3526
16267TIP3    H170216   6.012   2.433  15.019  0.6262 -1.4493  0.4554
16267TIP3    H270217   5.875   2.491  15.046  2.0790  1.7482  1.2539
16268TIP3   OH270218   2.329   4.784   1.581  0.1084 -0.2794 -0.0856
16268TIP3    H170219   2.307   4.817   1.668  1.4932  0.5081 -0.0150
16268TIP3    H270220   2.350   4.692   1.595  0.6089 -0.0866  0.4676
16269TIP3   OH270221   3.856   6.441   1.575  0.1994  0.0041  0.4808
16269TIP3    H170222   3.902   6.514   1.616 -1.5221 -0.2947  3.0214
16269TIP3    H270223   3.772   6.477   1.548  0.2703 -0.4730 -0.4180
16270TIP3   OH270224   6.640   1.819   2.470 -0.2394  0.5725  0.1559
16270TIP3    H170225   6.594   1.888   2.424  0.4842  0.0619 -1.3818
16270TIP3    H270226   6.618   1.739   2.422  1.0479  0.1254  0.2808
16271TIP3   OH270227   4.305   6.005   5.444 -0.0631  0.0953  0.3600
16271TIP3    H170228   4.348   6.034   5.524  2.8045 -1.1399 -0.6926
16271TIP3    H270229   4.244   5.937   5.473  0.1115  0.4679  1.6083
16272TIP3   OH270230   6.751   4.548   4.868  0.1009 -0.4760  0.9639
16272TIP3    H170231   6.696   4.471   4.876 -0.7744  0.2807  2.4501
16272TIP3    H270232   6.809   4.544   4.944  0.1640  0.2380  0.9567
16273TIP3   OH270233   2.161   1.766  15.217 -0.2684 -0.3293  0.0766
16273TIP3    H170234   2.127   1.849  15.183  0.6199 -0.2203 -0.5792
16273TIP3    H270235   2.127   1.761  15.306 -0.8396  0.4458 -0.0918
16274TIP3   OH270236   5.948   0.545  14.108 -0.2128 -0.2112  0.1336
16274TIP3    H170237   5.951   0.553  14.203  3.3818 -2.2708  0.2636
16274TIP3    H270238   5.925   0.632  14.077 -0.3652  0.7416  2.8274
16275TIP3   OH270239   1.720   2.068   1.722 -0.7675  0.5549 -0.1747
16275TIP3    H170240   1.696   2.106   1.807  2.0795  0.4857  0.7289
16275TIP3    H270241   1.753   2.142   1.671 -0.4210  0.2359 -0.4164
16276TIP3   OH270242   4.521   4.927  13.907  0.0802 -0.6021 -0.2288
16276TIP3    H170243   4.485   4.840  13.928  0.7855 -0.6374  0.8316
16276TIP3    H270244   4.607   4.929  13.949 -0.3394  0.9871  0.5866
16277TIP3   OH270245   6.422   4.038   0.221  0.0926  0.4178  0.3281
16277TIP3    H170246   6.490   3.972   0.230  0.5795  0.6745 -1.2557
16277TIP3    H270247   6.469   4.119   0.201 -0.5848  0.8941  0.6320
16278TIP3   OH270248   5.065   1.221   0.273 -0.6147  0.4387 -0.0251
16278TIP3    H170249   5.080   1.221   0.368  1.2335  2.0021 -0.2660
16278TIP3    H270250   4.998   1.288   0.259 -0.5209  0.5740  0.1602
16279TIP3   OH270251   3.236   3.108  11.053 -0.3099  0.0072  0.1616
16279TIP3    H170252   3.173   3.104  10.982 -0.3224 -1.2734  0.2329
16279TIP3    H270253   3.184   3.103  11.133 -0.1981  0.0788  0.2406
16280TIP3   OH270254   2.524   0.126  17.143  0.7126 -0.1016  0.3687
16280TIP3    H170255   2.570   0.193  17.093 -0.4094 -0.6253 -1.4110
16280TIP3    H270256   2.444   0.169  17.173  0.2389 -0.4952 -0.3333
16281TIP3   OH270257   1.769   1.014  15.196  0.8242  0.0258  0.1518
16281TIP3    H170258   1.764   1.050  15.108  1.9587 -0.1877 -0.0072
16281TIP3    H270259   1.814   1.081  15.247  1.4145 -0.4363  0.2433
16282TIP3   OH270260   6.334   0.574  14.985  0.1443 -0.0071 -0.3589
16282TIP3    H170261   6.326   0.547  15.077 -0.3988 -1.6558 -0.8784
16282TIP3    H270262   6.251   0.617  14.966  0.2427  0.3061 -0.0809
16283TIP3   OH270263   0.247   0.858   2.719  0.2443 -0.0686 -0.1616
16283TIP3    H170264   0.310   0.788   2.703 -2.8080 -3.2553  1.0372
16283TIP3    H270265   0.245   0.868   2.814 -0.9101  0.0981 -0.1952
16284TIP3   OH270266   3.276   4.567  11.797 -0.5912 -0.2906 -0.1190
16284TIP3    H170267   3.342   4.562  11.866 -1.3328  0.5404  0.6609
16284TIP3    H270268   3.285   4.655  11.761 -1.9238  0.1739  0.6631
16285TIP3   OH270269   4.064   0.442   3.670 -0.1435 -0.0382 -0.1274
16285TIP3    H170270   4.057   0.392   3.588 -1.5592 -0.0847  0.0048
16285TIP3    H270271   4.087   0.530   3.642  1.1328 -0.4629 -0.4505
16286TIP3   OH270272   2.472   3.829   1.901  0.0382  0.3702  0.8819
16286TIP3    H170273   2.404   3.888   1.870  1.4793  0.9982 -1.1986
16286TIP3    H270274   2.424   3.755   1.939 -1.7827  2.4767  2.8891
16287TIP3   OH270275   2.805   5.828  14.080  0.0034  0.2345  0.1731
16287TIP3    H170276   2.812   5.906  14.025  0.1143 -0.4286 -0.7658
16287TIP3    H270277   2.712   5.811  14.087 -0.1481  1.7638  2.2696
16288TIP3   OH270278   2.873   6.240  17.104 -0.4133 -0.3965 -0.1167
16288TIP3    H170279   2.880   6.311  17.168 -1.5862  0.5045 -0.9491
16288TIP3    H270280   2.894   6.161  17.153  0.5683  0.4915  0.9118
16289TIP3   OH270281   3.645   6.365   0.434 -0.0097  0.3792  0.1500
16289TIP3    H170282   3.605   6.335   0.515 -0.7961  1.5580  0.1983
16289TIP3    H270283   3.736   6.336   0.440 -0.5062 -1.1503  0.6213
16290TIP3   OH270284   0.792   3.995   0.810  0.2679 -0.3969  0.3034
16290TIP3    H170285   0.721   4.039   0.858  0.9362  0.4812  0.5022
16290TIP3    H270286   0.851   3.964   0.879 -0.4424 -2.0531  0.1859
16291TIP3   OH270287   3.286   4.764  12.254 -0.1282 -0.4945 -0.1411
16291TIP3    H170288   3.278   4.858  12.242  0.1762 -0.4133  0.2777
16291TIP3    H270289   3.378   4.745  12.234  0.6304 -0.2298  2.7909
16292TIP3   OH270290   5.235   5.815   6.020  0.3962  0.2513 -0.1178
16292TIP3    H170291   5.149   5.854   6.033 -0.2981 -1.2853 -0.0559
16292TIP3    H270292   5.264   5.790   6.108 -0.0906 -1.3121 -0.3967
16293TIP3   OH270293   6.345   4.608   3.034  0.2094  0.0514 -0.0761
16293TIP3    H170294   6.313   4.538   3.090 -1.1904  0.4371 -0.3740
16293TIP3    H270295   6.303   4.593   2.949  0.2379  0.9927 -0.2689
16294TIP3   OH270296   0.882   3.779  14.696  0.4141 -0.1804 -0.3714
16294TIP3    H170297   0.857   3.871  14.708  2.4352  0.4397 -0.7356
16294TIP3    H270298   0.965   3.783  14.648 -0.4747 -2.2565 -2.1777
16295TIP3   OH270299   6.276   5.914   2.355  0.0015 -0.3323  0.7082
16295TIP3    H170300   6.292   5.998   2.311  0.9332 -2.1284 -2.5354
16295TIP3    H270301   6.359   5.867   2.348 -0.8597 -2.0089  1.3977
16296TIP3   OH270302   6.332   3.908   0.704  0.1374 -0.4415 -0.2605
16296TIP3    H170303   6.368   3.868   0.625 -0.6777  1.5052 -1.6627
16296TIP3    H270304   6.237   3.898   0.694 -0.2035  3.1014 -1.4387
16297TIP3   OH270305   2.383   0.596  11.516  0.3225 -0.0300 -0.0258
16297TIP3    H170306   2.405   0.626  11.604  1.4486  0.4454 -0.4521
16297TIP3    H270307   2.288   0.590  11.515  0.3441 -0.7476  1.4470
16298TIP3   OH270308   0.371   1.109  11.401 -0.1418 -0.5376  0.5792
16298TIP3    H170309   0.419   1.029  11.378  0.2074  0.2729 -1.7359
16298TIP3    H270310   0.404   1.134  11.487  1.9057 -1.2764  0.0290
16299TIP3   OH270311   0.491   2.623   4.799  0.1518  0.2027  0.6890
16299TIP3    H170312   0.567   2.615   4.743 -0.5855 -0.1026 -0.2823
16299TIP3    H270313   0.476   2.718   4.807  0.7049  0.2642  0.9909
16300TIP3   OH270314   0.340   3.264  15.817  0.9442 -0.5207  0.5887
16300TIP3    H170315   0.343   3.169  15.826 -0.4819 -0.6019  0.3732
16300TIP3    H270316   0.311   3.278  15.727  1.8904  0.1276  0.3842
16301TIP3   OH270317   2.851   2.118   0.508  0.5328 -0.0194 -0.2182
16301TIP3    H170318   2.893   2.104   0.423  0.8655 -1.0021  0.1016
16301TIP3    H270319   2.907   2.071   0.570 -0.5635 -0.6137  0.3307
16302TIP3   OH270320   3.843   0.461   4.392 -0.2451 -0.0219  0.0737
16302TIP3    H170321   3.865   0.382   4.441  1.7787  0.7668  0.4701
16302TIP3    H270322   3.800   0.518   4.455  1.4748  0.5976  0.7036
16303TIP3   OH270323   4.774   0.863   5.344 -0.5471 -0.3045 -0.0737
16303TIP3    H170324   4.831   0.803   5.294  0.1192 -0.7574  1.2024
16303TIP3    H270325   4.686   0.828   5.333 -0.1930 -1.3894  0.4451
16304TIP3   OH270326   1.850   3.294   3.052  0.5476 -0.4588  0.5476
16304TIP3    H170327   1.813   3.367   3.003  0.4109 -0.9781 -0.1288
16304TIP3    H270328   1.832   3.314   3.144 -0.1042  0.0099  0.3151
16305TIP3   OH270329   3.546   0.148  15.260  0.2374 -0.5467 -0.7024
16305TIP3    H170330   3.511   0.107  15.339  1.1490  1.4709  0.7840
16305TIP3    H270331   3.611   0.086  15.228  0.6217 -0.9124  0.7415
16306TIP3   OH270332   1.797   5.948  12.945 -0.0872  0.0744  0.1154
16306TIP3    H170333   1.801   5.950  13.041 -1.5630  1.6115  0.1623
16306TIP3    H270334   1.859   6.016  12.917 -3.0120  2.8700  0.1353
16307TIP3   OH270335   5.350   0.830  15.736  0.1327 -0.4420  0.2920
16307TIP3    H170336   5.256   0.838  15.724  0.0039 -2.1218  0.1630
16307TIP3    H270337   5.387   0.853  15.651 -0.3469 -3.1817 -0.6977
16308TIP3   OH270338   0.434   6.736   3.736  0.3139 -0.1355  0.3102
16308TIP3    H170339   0.428   6.762   3.827  0.0501 -0.5433  0.4133
16308TIP3    H270340   0.528   6.730   3.719  0.3999  2.1089 -0.0879
16309TIP3   OH270341   5.563   1.739   0.898  0.0020 -0.3913  0.3328
16309TIP3    H170342   5.472   1.725   0.872  0.0874  0.9788 -0.7612
16309TIP3    H270343   5.614   1.684   0.839  0.1083  1.7674 -1.6819
16310TIP3   OH270344   0.086   2.141   4.271 -0.3531 -0.0760  0.3870
16310TIP3    H170345   0.141   2.192   4.210 -0.4581 -1.0949 -0.5767
16310TIP3    H270346   0.004   2.189   4.274 -0.0518  0.4452  0.3807
16311TIP3   OH270347   5.036   4.730  12.189 -0.2038  0.2479  0.0859
16311TIP3    H170348   5.042   4.800  12.123 -0.4874 -0.2652 -0.4857
16311TIP3    H270349   5.118   4.681  12.179 -0.0099  0.4870  0.4792
16312TIP3   OH270350   2.922   6.132   2.406  0.2480  0.2115 -0.0539
16312TIP3    H170351   2.918   6.227   2.398 -0.2986  0.1415 -0.7114
16312TIP3    H270352   2.959   6.103   2.322 -0.9582 -0.2414 -0.4407
16313TIP3   OH270353   4.850   2.668   3.101  0.2329  0.1843 -0.3484
16313TIP3    H170354   4.885   2.638   3.185 -0.1785  3.1635  0.9282
16313TIP3    H270355   4.918   2.724   3.064 -0.3654  0.4111 -1.1226
16314TIP3   OH270356   2.195   5.035   3.933  0.3205 -0.3691 -0.2255
16314TIP3    H170357   2.156   5.062   3.850  0.2475 -0.0635 -0.0923
16314TIP3    H270358   2.234   5.115   3.969  2.0519 -0.8966 -0.8777
16315TIP3   OH270359   4.180   2.550  11.764  0.1408 -0.1175 -0.0584
16315TIP3    H170360   4.099   2.549  11.713  2.0751  0.6946 -3.3114
16315TIP3    H270361   4.169   2.624  11.825 -0.5192  1.7038 -2.3097
16316TIP3   OH270362   5.160   6.725   2.341 -0.7429  0.1018  0.0963
16316TIP3    H170363   5.119   6.646   2.375 -0.7775  1.1606  2.5919
16316TIP3    H270364   5.250   6.700   2.322 -0.6757 -0.4670  1.1665
16317TIP3   OH270365   4.184   2.146   2.629  0.2184  0.4202 -0.1529
16317TIP3    H170366   4.262   2.117   2.582  0.0565  0.1336 -0.2494
16317TIP3    H270367   4.217   2.199   2.701  0.5719 -0.9025  0.6709
16318TIP3   OH270368   0.775   1.086   2.309 -0.7068 -0.0894 -0.0223
16318TIP3    H170369   0.717   1.027   2.260  0.4833  0.2077 -1.8414
16318TIP3    H270370   0.756   1.173   2.274 -0.3031  0.2062  0.4891
16319TIP3   OH270371   0.322   0.342  16.147  0.0810  0.3826 -0.0697
16319TIP3    H170372   0.347   0.310  16.234 -1.1399  1.0089  0.5255
16319TIP3    H270373   0.350   0.434  16.146  0.6795  0.1981 -0.5866
16320TIP3   OH270374   6.646   4.403  14.552 -0.4914 -0.3958 -0.2006
16320TIP3    H170375   6.582   4.343  14.515  0.2412 -0.9211 -0.6301
16320TIP3    H270376   6.639   4.483  14.499 -1.3839 -0.1308  0.3012
16321TIP3   OH270377   5.750   1.606  14.723  0.0251  0.3021 -0.7192
16321TIP3    H170378   5.776   1.696  14.702  0.7193  0.5955  1.2992
16321TIP3    H270379   5.830   1.564  14.753 -0.6140 -0.5286 -0.1506
16322TIP3   OH270380   5.061   4.883   3.219 -0.0558  0.7844 -0.6775
16322TIP3    H170381   4.974   4.845   3.230  0.0423  0.3587 -1.3783
16322TIP3    H270382   5.114   4.813   3.183  1.3776  0.1050  2.6340
16323TIP3   OH270383   5.290   4.363  11.864 -0.7390  0.1998 -0.0965
16323TIP3    H170384   5.222   4.432  11.863  0.0961  1.0152 -1.6965
16323TIP3    H270385   5.267   4.306  11.791 -0.0288  0.1679 -0.2975
16324TIP3   OH270386   6.281   0.643   5.604 -0.5053  0.4623 -0.5095
16324TIP3    H170387   6.377   0.637   5.610 -0.5532  1.5404  1.8993
16324TIP3    H270388   6.265   0.672   5.514  1.4690  1.0152 -0.7147
16325TIP3   OH270389   4.895   1.415  15.947 -0.1105 -0.4202 -0.0164
16325TIP3    H170390   4.904   1.488  15.887 -0.5280  0.1367  0.5953
16325TIP3    H270391   4.903   1.337  15.892  0.7486  0.0752 -0.6101
16326TIP3   OH270392   5.014   4.111  12.270 -0.1350  0.0046 -0.3274
16326TIP3    H170393   4.990   4.019  12.270 -1.6073  0.3750 -0.1802
16326TIP3    H270394   4.977   4.146  12.351 -0.3183  0.9040 -0.7901
16327TIP3   OH270395   2.426   1.444   5.998 -0.5924  0.1477 -0.0397
16327TIP3    H170396   2.484   1.401   5.935 -0.2856  0.2186  0.1917
16327TIP3    H270397   2.482   1.464   6.072 -0.9610  0.0383  0.2714
16328TIP3   OH270398   4.603   1.699   1.711  0.2807 -0.0467  0.0406
16328TIP3    H170399   4.581   1.768   1.649 -1.1463  0.7217  1.3787
16328TIP3    H270400   4.522   1.681   1.759  1.5913  0.1594  2.4428
16329TIP3   OH270401   5.188   5.411  14.476 -0.0500 -0.7040  0.2112
16329TIP3    H170402   5.265   5.463  14.498 -0.3742  0.2588 -0.8666
16329TIP3    H270403   5.187   5.340  14.540  0.1382  0.8756  1.9954
16330TIP3   OH270404   5.668   0.482   3.873  0.5812  0.6609 -0.1454
16330TIP3    H170405   5.656   0.392   3.904  1.8629  0.4908 -0.1129
16330TIP3    H270406   5.744   0.514   3.921 -1.6060  2.7802  2.0098
16331TIP3   OH270407   0.344   4.973  15.251 -1.1411 -0.3669 -0.5568
16331TIP3    H170408   0.313   5.043  15.308 -1.2116 -0.7834 -0.0757
16331TIP3    H270409   0.325   5.004  15.163  0.3486  0.9443 -0.4259
16332TIP3   OH270410   6.296   6.533   4.331 -0.5340  0.2017 -0.3233
16332TIP3    H170411   6.237   6.594   4.375 -1.4097  0.1382 -1.3828
16332TIP3    H270412   6.242   6.456   4.312  0.7403 -1.2149  1.6304
16333TIP3   OH270413   3.373   1.827  10.885 -0.1162 -0.3596 -0.3382
16333TIP3    H170414   3.445   1.777  10.922 -0.8114 -0.3301  1.0659
16333TIP3    H270415   3.371   1.802  10.792  2.4606  0.5483 -0.6689
16334TIP3   OH270416   1.351   0.362  12.058  0.0703  0.2265 -0.0184
16334TIP3    H170417   1.311   0.448  12.046 -0.3653  0.2077  1.1926
16334TIP3    H270418   1.283   0.300  12.034 -0.3689  0.2042  1.2459
16335TIP3   OH270419   2.248   4.326  15.117  0.4146  0.0013 -0.2791
16335TIP3    H170420   2.165   4.278  15.107 -0.5502  1.3904  0.8759
16335TIP3    H270421   2.223   4.410  15.154  2.1623  1.2136 -1.7840
16336TIP3   OH270422   3.572   2.581   4.772  0.2165  0.4082  0.2296
16336TIP3    H170423   3.556   2.675   4.777  0.0576  0.4226 -0.4838
16336TIP3    H270424   3.508   2.542   4.832 -2.8229  0.4294 -2.8666
16337TIP3   OH270425   5.762   5.035  13.608 -0.0356  0.2700 -0.7842
16337TIP3    H170426   5.846   5.017  13.565 -0.2298  0.7595 -1.3740
16337TIP3    H270427   5.697   5.014  13.542 -0.4715 -2.0269  0.3184
16338TIP3   OH270428   5.706   5.783  13.797 -0.2434  0.4746 -0.0325
16338TIP3    H170429   5.685   5.786  13.891  0.3639 -0.0280  0.1272
16338TIP3    H270430   5.622   5.799  13.753 -0.4571  1.1220  0.5948
16339TIP3   OH270431   5.271   1.340  16.663  0.2940 -0.2278 -0.0033
16339TIP3    H170432   5.350   1.333  16.609 -1.7199  2.0200 -3.3739
16339TIP3    H270433   5.264   1.254  16.706  1.5923 -2.4159 -3.8933
16340TIP3   OH270434   3.263   2.745  13.181  0.1313  0.5330 -0.6920
16340TIP3    H170435   3.261   2.650  13.173  0.3349  0.6042 -1.6076
16340TIP3    H270436   3.175   2.769  13.208  0.2508  0.0354  0.1746
16341TIP3   OH270437   3.098   5.362   1.375  0.1881 -0.2307  0.1669
16341TIP3    H170438   3.120   5.364   1.469  0.5391 -0.6618  0.0979
16341TIP3    H270439   3.172   5.316   1.335 -0.4888 -1.0317 -0.1696
16342TIP3   OH270440   5.149   2.551  11.981 -0.2368  0.3094 -0.0613
16342TIP3    H170441   5.151   2.642  12.008  1.8771  0.5741 -0.9871
16342TIP3    H270442   5.240   2.521  11.992 -0.8381 -1.5878 -0.0576
16343TIP3   OH270443   4.642   2.874   3.134 -0.2273 -0.4614 -0.0062
16343TIP3    H170444   4.684   2.884   3.049 -1.2807  0.0575 -0.4835
16343TIP3    H270445   4.564   2.929   3.128  0.2255  0.3712  1.6616
16344TIP3   OH270446   3.246   2.996   2.884 -0.4802 -0.4910  0.3316
16344TIP3    H170447   3.268   3.004   2.977 -0.7106 -0.6877  0.4014
16344TIP3    H270448   3.250   3.086   2.850 -1.1562 -0.3210  0.6999
16345TIP3   OH270449   0.948   3.579   3.904  0.0455  0.3189 -0.4837
16345TIP3    H170450   0.970   3.542   3.989 -0.2252 -0.5204 -0.7746
16345TIP3    H270451   0.875   3.526   3.873 -0.0420  0.7996 -1.1153
16346TIP3   OH270452   5.598   0.518   2.083 -0.2152 -0.0821  0.2046
16346TIP3    H170453   5.529   0.452   2.088 -0.8444  0.5763  0.3676
16346TIP3    H270454   5.629   0.514   1.992  0.8744 -1.7087  0.6333
16347TIP3   OH270455   0.446   0.715  14.101 -0.0877  0.0149 -1.0890
16347TIP3    H170456   0.420   0.638  14.051 -0.6892 -1.0955  0.9011
16347TIP3    H270457   0.414   0.699  14.190  3.1407  0.7892  0.3034
16348TIP3   OH270458   2.971   1.590   5.380  0.5264 -0.5683 -0.3388
16348TIP3    H170459   2.924   1.507   5.368  1.2540 -1.0806  0.3120
16348TIP3    H270460   3.063   1.565   5.387  0.8157  0.3607 -0.8072
16349TIP3   OH270461   5.150   4.794  17.239  0.0477  0.1869 -0.3512
16349TIP3    H170462   5.147   4.709  17.194 -0.3177 -0.1465  0.3016
16349TIP3    H270463   5.226   4.838  17.201  1.2544 -1.1030  0.5086
16350TIP3   OH270464   1.880   1.359  13.263 -0.1386 -0.0406  0.3080
16350TIP3    H170465   1.893   1.319  13.349  0.8426 -0.6017 -0.1030
16350TIP3    H270466   1.929   1.304  13.203  0.6739  1.3806 -0.3583
16351TIP3   OH270467   3.121   2.075   5.044  0.1960  0.1734  0.0656
16351TIP3    H170468   3.179   2.099   4.972  0.8183  0.9279  0.8018
16351TIP3    H270469   3.033   2.084   5.007  0.5032  0.7250 -0.5545
16352TIP3   OH270470   0.296   3.084   6.495  0.6432 -0.1657  0.4144
16352TIP3    H170471   0.247   3.011   6.533  0.8307 -0.6557 -0.2693
16352TIP3    H270472   0.240   3.160   6.509 -0.1481 -0.6556 -0.0161
16353TIP3   OH270473   4.712   2.032  13.396 -0.6959 -0.4822  0.1746
16353TIP3    H170474   4.751   1.977  13.465  0.5394 -0.9769 -0.8940
16353TIP3    H270475   4.694   1.971  13.325  1.0923  0.5485 -1.1973
16354TIP3   OH270476   3.747   2.164  15.167 -0.3285  0.1585 -0.1139
16354TIP3    H170477   3.672   2.108  15.189 -2.1288  3.3137  2.0234
16354TIP3    H270478   3.808   2.151  15.239 -0.9695  1.2952  0.6457
16355TIP3   OH270479   1.928   1.602   5.594  0.0207  0.3066  0.4438
16355TIP3    H170480   2.023   1.591   5.599 -0.0149 -0.0934  0.2374
16355TIP3    H270481   1.893   1.514   5.605 -0.2937  0.3002 -0.5723
16356TIP3   OH270482   0.697   4.113   2.513 -0.1856 -0.2645  0.3215
16356TIP3    H170483   0.791   4.102   2.503  0.1479  1.1113  1.7872
16356TIP3    H270484   0.660   4.080   2.431  1.5439 -1.0866 -0.1437
16357TIP3   OH270485   0.762   1.132  15.086  0.4428  0.1222 -0.4369
16357TIP3    H170486   0.698   1.202  15.096  2.0006  1.6132 -0.8023
16357TIP3    H270487   0.718   1.067  15.032 -0.6836  1.2380 -0.8856
16358TIP3   OH270488   4.512   3.180   1.653 -0.2019 -0.5088 -0.5493
16358TIP3    H170489   4.462   3.248   1.609 -0.2937 -0.4292 -0.3232
16358TIP3    H270490   4.598   3.220   1.668 -1.2597  0.7597  2.5576
16359TIP3   OH270491   6.572   5.632   1.846  0.1274  0.0604  0.2693
16359TIP3    H170492   6.548   5.660   1.758 -2.3189  1.7481  1.3941
16359TIP3    H270493   6.560   5.710   1.900  0.0651 -1.3433  2.3590
16360TIP3   OH270494   5.595   3.587   4.518 -0.2929 -0.6371  0.2506
16360TIP3    H170495   5.686   3.579   4.491 -0.2818 -0.1722  0.1433
16360TIP3    H270496   5.597   3.645   4.595 -0.5379 -0.2373 -0.0387
16361TIP3   OH270497   2.936   4.085  11.025  0.0704 -0.4640 -0.0253
16361TIP3    H170498   2.953   4.021  10.956  1.0666 -1.5736  1.2380
16361TIP3    H270499   3.022   4.101  11.064 -0.4891  0.1810  0.9337
16362TIP3   OH270500   5.128   2.387  13.019 -0.0164  0.2303  0.1188
16362TIP3    H170501   5.200   2.382  13.082  0.9319  0.0221 -0.9463
16362TIP3    H270502   5.075   2.460  13.049  0.2403 -0.0798  1.3416
16363TIP3   OH270503   0.241   6.268  11.924  0.6102  0.7139  0.5307
16363TIP3    H170504   0.250   6.363  11.918  2.7687  0.5494  0.5868
16363TIP3    H270505   0.197   6.242  11.844  0.0307  1.7584  0.5069
16364TIP3   OH270506   3.054   6.468  15.399 -0.7512  0.0572  0.3997
16364TIP3    H170507   3.112   6.519  15.342 -1.3087  0.6816  0.3841
16364TIP3    H270508   3.086   6.485  15.488  0.1476 -0.9537  0.2829
16365TIP3   OH270509   1.994   5.010   0.131 -0.1608  0.3945  0.3492
16365TIP3    H170510   1.982   5.092   0.085  0.7599  0.9605  1.1134
16365TIP3    H270511   2.013   5.035   0.222  0.1653 -0.6532  0.5849
16366TIP3   OH270512   0.306   5.055  13.943 -0.3582  0.2740 -0.6606
16366TIP3    H170513   0.228   5.086  13.990 -0.0633  1.6639 -1.0540
16366TIP3    H270514   0.377   5.111  13.975 -0.2016  1.4521 -2.9421
16367TIP3   OH270515   3.958   2.935   3.915 -0.1718 -0.7083  0.0521
16367TIP3    H170516   4.033   2.916   3.970 -1.5145 -0.1268  2.1419
16367TIP3    H270517   3.884   2.893   3.959 -1.0249 -1.6605 -2.1898
16368TIP3   OH270518   5.029   4.716   2.433 -0.4497 -0.7118 -0.3001
16368TIP3    H170519   5.045   4.627   2.402  0.5602 -0.3900 -0.7286
16368TIP3    H270520   5.031   4.770   2.354 -0.2378 -0.1993  0.0514
16369TIP3   OH270521   6.478   1.409   1.663 -0.4168 -0.0156 -0.5715
16369TIP3    H170522   6.441   1.358   1.591 -1.0820  0.3610 -0.5072
16369TIP3    H270523   6.537   1.349   1.708  1.0711  0.1531 -2.2659
16370TIP3   OH270524   0.546   3.938  11.170  0.6974  0.4013  0.0835
16370TIP3    H170525   0.593   3.856  11.155 -0.5091 -0.1946 -0.4761
16370TIP3    H270526   0.614   3.999  11.199  1.8611 -0.3851 -0.9152
16371TIP3   OH270527   5.605   6.445  13.974 -0.1956 -0.0281  0.2965
16371TIP3    H170528   5.593   6.402  14.059 -0.0543 -0.6898 -0.0227
16371TIP3    H270529   5.686   6.495  13.985  0.9691 -1.7868 -0.1312
16372TIP3   OH270530   5.822   2.909   5.032 -0.3613 -0.0407 -0.0311
16372TIP3    H170531   5.862   2.823   5.019  0.1252 -0.0127  1.2017
16372TIP3    H270532   5.831   2.953   4.947 -2.7272 -2.0480 -1.3738
16373TIP3   OH270533   4.660   4.841   3.384  0.2692 -0.7128  0.1655
16373TIP3    H170534   4.694   4.926   3.410 -0.3653 -0.1088 -0.9079
16373TIP3    H270535   4.566   4.847   3.401  0.4529 -1.8150  1.6748
16374TIP3   OH270536   2.786   1.440  15.886  0.4337  0.2670 -0.2862
16374TIP3    H170537   2.818   1.456  15.797  1.5837 -0.3275  0.0110
16374TIP3    H270538   2.820   1.513  15.937  0.3117  0.2680 -0.2081
16375TIP3   OH270539   6.002   1.449   6.534 -0.0448 -0.0138  0.3452
16375TIP3    H170540   5.923   1.445   6.479  0.2506  0.3298 -0.1047
16375TIP3    H270541   5.996   1.371   6.589 -0.6340 -0.0627  0.2160
16376TIP3   OH270542   5.539   3.358   2.485 -0.3102  0.0305 -0.4222
16376TIP3    H170543   5.463   3.376   2.541 -1.1176  1.4038 -1.9350
16376TIP3    H270544   5.509   3.380   2.397  1.6967  0.0710 -1.1005
16377TIP3   OH270545   5.560   0.835   1.318  0.3457  0.7588 -0.2415
16377TIP3    H170546   5.573   0.906   1.256  0.1825 -0.9942 -2.3626
16377TIP3    H270547   5.500   0.870   1.383  1.1023  2.8886 -0.6473
16378TIP3   OH270548   4.767   2.343   1.896  0.0117 -0.0605 -0.6368
16378TIP3    H170549   4.810   2.365   1.814 -0.0087  1.8938 -0.1361
16378TIP3    H270550   4.677   2.374   1.885  0.0363  0.3009  0.1601
16379TIP3   OH270551   1.588   1.724  14.427  0.6925 -0.0182 -0.2210
16379TIP3    H170552   1.609   1.646  14.478  0.5276 -0.1488 -0.3521
16379TIP3    H270553   1.540   1.781  14.487  0.0753 -0.3778 -0.3718
16380TIP3   OH270554   4.279   4.824  14.280 -0.2298  0.1493  0.1148
16380TIP3    H170555   4.338   4.899  14.294  0.4117 -0.0366 -1.4276
16380TIP3    H270556   4.329   4.748  14.309 -0.9760  0.3263  1.9195
16381TIP3   OH270557   3.278   6.104   2.038  0.4696  0.1058 -0.3774
16381TIP3    H170558   3.324   6.108   1.954  0.4621 -0.1576 -0.3940
16381TIP3    H270559   3.189   6.131   2.018  0.3750 -0.3045 -0.5232
16382TIP3   OH270560   4.244   6.571   4.748  0.1626 -0.0371  0.0031
16382TIP3    H170561   4.260   6.572   4.842  0.8138  1.1870 -0.1164
16382TIP3    H270562   4.190   6.648   4.731  1.7188  0.8943 -0.8922
16383TIP3   OH270563   1.554   6.754  12.561 -0.3140  0.0252  0.2778
16383TIP3    H170564   1.463   6.730  12.544 -0.9070  1.3516  1.4180
16383TIP3    H270565   1.550   6.848  12.581  1.6455  0.7063 -2.2734
16384TIP3   OH270566   0.071   4.785  14.605 -0.0756  0.6120 -0.1566
16384TIP3    H170567   0.147   4.840  14.623 -1.4587  2.7991 -0.8001
16384TIP3    H270568   0.031   4.824  14.526 -1.2635 -1.1242 -0.4439
16385TIP3   OH270569   1.602   3.050   3.594 -0.3794  0.2048  0.1756
16385TIP3    H170570   1.599   3.122   3.531 -1.1935  0.2294  0.2294
16385TIP3    H270571   1.510   3.033   3.615 -0.1944 -0.8771  0.1362
16386TIP3   OH270572   5.092   3.327   5.695 -0.5653  0.0258  0.0197
16386TIP3    H170573   5.120   3.318   5.786 -0.7548 -0.4864  0.0309
16386TIP3    H270574   5.009   3.375   5.700  0.4557  1.8484 -0.0371
16387TIP3   OH270575   6.517   2.968  11.995  0.1799  0.7810 -0.0223
16387TIP3    H170576   6.498   2.952  12.088 -1.9109  4.0340  0.1995
16387TIP3    H270577   6.570   3.048  11.995  1.5830 -0.1183 -1.5791
16388TIP3   OH270578   2.611   4.444  12.187 -0.5206  0.0093  0.2034
16388TIP3    H170579   2.653   4.358  12.182 -0.5837  0.0011 -0.1679
16388TIP3    H270580   2.544   4.442  12.119  1.0341  1.2138 -1.4000
16389TIP3   OH270581   2.859   6.134   0.975  0.3539 -0.1661  0.6347
16389TIP3    H170582   2.807   6.158   1.051  0.0890 -1.0785  0.7467
16389TIP3    H270583   2.821   6.185   0.903  2.3568  2.8128  1.6011
16390TIP3   OH270584   2.820   1.422   4.764  0.2976  0.1777  0.1414
16390TIP3    H170585   2.765   1.412   4.686 -0.2285 -1.5878  0.7308
16390TIP3    H270586   2.858   1.510   4.755 -1.0499  0.6358 -1.2735
16391TIP3   OH270587   0.687   3.559  14.693 -0.1002  0.1157  0.3759
16391TIP3    H170588   0.781   3.551  14.709  0.2129  1.4368 -0.7597
16391TIP3    H270589   0.672   3.652  14.677 -1.5145 -0.1570 -0.0004
16392TIP3   OH270590   5.087   1.597   5.189  0.4122 -0.2627 -0.7749
16392TIP3    H170591   5.071   1.503   5.175 -0.4580 -0.2409 -0.0160
16392TIP3    H270592   5.099   1.604   5.284 -2.1142  0.7544 -0.4947
16393TIP3   OH270593   4.376   0.067  15.671 -0.3272  0.0815 -0.4367
16393TIP3    H170594   4.312   0.137  15.662 -0.7757 -0.5705 -2.4916
16393TIP3    H270595   4.333  -0.010  15.635  1.5147 -0.4075 -1.6518
16394TIP3   OH270596   6.153   2.914  16.078 -0.0490 -0.6517 -0.4491
16394TIP3    H170597   6.222   2.908  16.013  2.5410  1.8525  1.8956
16394TIP3    H270598   6.186   2.864  16.153 -1.6597 -1.1081 -0.0232
16395TIP3   OH270599   4.067   2.463  11.331  0.4195 -0.2113 -0.2014
16395TIP3    H170600   4.157   2.471  11.298 -0.3799  0.5358 -2.2813
16395TIP3    H270601   4.040   2.553  11.349 -0.0636 -0.3926 -0.0125
16396TIP3   OH270602   0.330   2.190   5.002 -0.4025  0.0555  0.4778
16396TIP3    H170603   0.275   2.264   5.025 -0.5318  0.9080 -2.3470
16396TIP3    H270604   0.420   2.224   5.006 -0.3216 -0.2429  1.2703
16397TIP3   OH270605   2.344   0.580  13.533  0.5809  0.0509 -0.0600
16397TIP3    H170606   2.270   0.631  13.566  1.5132  1.5180 -0.1656
16397TIP3    H270607   2.421   0.626  13.566  1.4459 -1.3539 -0.1079
16398TIP3   OH270608   0.549   5.639   0.522 -0.4245 -0.4576 -0.6504
16398TIP3    H170609   0.633   5.593   0.514  0.8507  1.4990  1.0238
16398TIP3    H270610   0.503   5.591   0.592 -1.0268 -1.9326 -2.0114
16399TIP3   OH270611   5.732   5.973  11.125  0.3807 -0.6020  0.1526
16399TIP3    H170612   5.752   5.900  11.066 -0.5859 -0.8175  0.0832
16399TIP3    H270613   5.713   6.046  11.067  0.1145 -0.6307  0.2018
16400TIP3   OH270614   1.523   3.911  11.762  0.1315  0.4780 -0.0612
16400TIP3    H170615   1.585   3.840  11.775 -0.0846  0.2686 -0.1553
16400TIP3    H270616   1.577   3.988  11.747  0.4306 -0.4715 -4.5635
16401TIP3   OH270617   2.999   0.775  10.969 -0.1788 -0.3081  0.3366
16401TIP3    H170618   2.985   0.865  10.939  0.0588 -0.9195 -1.6979
16401TIP3    H270619   2.995   0.723  10.889  1.5205 -1.8992  1.2570
16402TIP3   OH270620   3.658   4.057  13.263  0.2115 -0.0303 -0.2836
16402TIP3    H170621   3.623   4.133  13.217 -0.5238 -0.9012 -1.1689
16402TIP3    H270622   3.721   4.018  13.202  0.8846  0.0757  0.3245
16403TIP3   OH270623   0.504   0.378   5.060 -0.3033  0.5344  0.3837
16403TIP3    H170624   0.425   0.372   5.115 -0.4844 -1.1697 -0.0377
16403TIP3    H270625   0.472   0.366   4.971  0.1993  1.6998  0.0496
16404TIP3   OH270626   1.532   0.328   0.852  0.3987 -0.6585  0.5253
16404TIP3    H170627   1.538   0.401   0.790  0.7939 -0.7724  0.4249
16404TIP3    H270628   1.511   0.252   0.797 -1.7987 -0.3085  0.8473
16405TIP3   OH270629   1.741   3.251  13.970  0.8575  0.2295  0.5573
16405TIP3    H170630   1.707   3.162  13.969  0.0066  0.5532  0.3105
16405TIP3    H270631   1.831   3.242  13.939 -0.0724 -0.2084 -2.1392
16406TIP3   OH270632   6.315   3.377  11.159 -0.1365  0.1853 -0.0424
16406TIP3    H170633   6.250   3.397  11.226 -0.9534  1.2152 -1.1008
16406TIP3    H270634   6.293   3.436  11.087  2.3714  1.0061 -0.1830
16407TIP3   OH270635   0.457   0.033  13.959  0.4800  0.5880 -0.4272
16407TIP3    H170636   0.403   0.111  13.941 -0.2122 -0.2392 -2.0137
16407TIP3    H270637   0.475  -0.004  13.873  2.2740 -0.0482  0.2021
16408TIP3   OH270638   2.752   0.376  12.457 -0.0172  0.5220  0.2622
16408TIP3    H170639   2.745   0.357  12.550  1.6100  0.1262  0.3275
16408TIP3    H270640   2.733   0.470  12.450  3.1896  1.3274  1.4640
16409TIP3   OH270641   3.321   4.888  15.444  1.0613 -0.7092  0.3035
16409TIP3    H170642   3.254   4.886  15.512  0.4069  1.0725 -0.2549
16409TIP3    H270643   3.399   4.921  15.489  0.9731 -0.7228  0.4691
16410TIP3   OH270644   1.972   0.034  12.635 -0.2037 -0.1197  0.0114
16410TIP3    H170645   1.922   0.111  12.608  1.3114  0.6254 -0.7726
16410TIP3    H270646   2.035   0.068  12.699  0.9237 -0.5487 -0.8444
16411TIP3   OH270647   4.769   4.239   3.294  0.1754 -0.2253 -0.1925
16411TIP3    H170648   4.728   4.226   3.380  3.0303 -2.1310  0.9376
16411TIP3    H270649   4.853   4.280   3.313  1.9418 -2.9252 -1.7994
16412TIP3   OH270650   0.172   1.388   0.102  0.5911 -0.3745 -0.1646
16412TIP3    H170651   0.223   1.337   0.039 -0.0071  0.9932 -1.7990
16412TIP3    H270652   0.204   1.361   0.188  2.0240 -1.6390 -1.0937
16413TIP3   OH270653   4.156   0.215   2.353 -0.4924  0.1646 -0.1336
16413TIP3    H170654   4.196   0.302   2.349 -0.3655  0.0997 -0.3118
16413TIP3    H270655   4.205   0.169   2.420 -0.6858  0.2940  0.0954
16414TIP3   OH270656   3.720   1.265   0.863  0.2807 -0.1695 -0.0966
16414TIP3    H170657   3.637   1.230   0.896  0.0945 -1.7714 -2.1371
16414TIP3    H270658   3.772   1.187   0.842  0.8426  0.7808 -2.3696
16415TIP3   OH270659   6.600   6.614  11.711  0.8294 -0.0070 -0.0842
16415TIP3    H170660   6.623   6.608  11.618 -0.5469 -2.3969 -0.3119
16415TIP3    H270661   6.598   6.523  11.740 -0.4888  0.6270  1.8563
16416TIP3   OH270662   2.927   1.774  13.696 -0.4252 -0.3785  0.3071
16416TIP3    H170663   2.933   1.681  13.676 -0.9851 -0.0359 -1.5522
16416TIP3    H270664   2.988   1.816  13.635 -0.4740  0.5125  0.8543
16417TIP3   OH270665   5.382   4.685   4.339 -0.4853 -0.0302  0.0084
16417TIP3    H170666   5.389   4.590   4.338 -0.6368 -0.0705 -3.1075
16417TIP3    H270667   5.332   4.706   4.260  0.3624  2.6758  0.1419
16418TIP3   OH270668   4.206   4.851  15.295 -0.2718 -0.2968  0.2238
16418TIP3    H170669   4.278   4.848  15.358  1.4808  0.8395 -1.6589
16418TIP3    H270670   4.170   4.939  15.304  2.0314  1.0143 -2.4799
16419TIP3   OH270671   0.118   0.224  15.459 -0.3710  0.2321 -0.8452
16419TIP3    H170672   0.100   0.317  15.446 -1.9348  0.3515  1.7818
16419TIP3    H270673   0.198   0.208  15.409  0.2415  3.1093 -0.8865
16420TIP3   OH270674   2.598   3.539  13.275  0.3818 -0.4468  0.0831
16420TIP3    H170675   2.584   3.602  13.204 -1.8031 -1.1281 -0.1406
16420TIP3    H270676   2.674   3.572  13.322 -0.1375  1.8241 -0.6069
16421TIP3   OH270677   3.487   5.171   2.856 -0.6655  0.4304  0.2277
16421TIP3    H170678   3.416   5.234   2.866  0.2300  1.8440 -1.9550
16421TIP3    H270679   3.444   5.092   2.823 -1.5376  0.4682  1.2290
16422TIP3   OH270680   5.147   6.234   3.337 -0.2119  0.2164  0.2430
16422TIP3    H170681   5.104   6.183   3.269 -0.8142  0.5791  0.3425
16422TIP3    H270682   5.212   6.287   3.291 -0.4784  0.3112 -0.0241
16423TIP3   OH270683   0.126   4.292  14.090  0.3374 -0.0410 -0.0231
16423TIP3    H170684   0.155   4.362  14.148 -1.8301  0.1826  0.8521
16423TIP3    H270685   0.204   4.238  14.077  1.4733  1.2638  1.1126
16424TIP3   OH270686   6.083   2.367   4.106 -0.5463 -0.4840 -0.3460
16424TIP3    H170687   6.064   2.460   4.121  0.6124 -0.8349  3.9641
16424TIP3    H270688   6.177   2.364   4.090 -0.2782 -1.0637  1.2770
16425TIP3   OH270689   3.220   2.421  12.546  0.3142 -0.4662  0.2425
16425TIP3    H170690   3.304   2.432  12.501  0.9837 -2.1344  1.0583
16425TIP3    H270691   3.195   2.331  12.528 -0.1124 -0.7173  2.0392
16426TIP3   OH270692   2.405   6.765   0.526  0.0945 -0.1055  0.5139
16426TIP3    H170693   2.492   6.756   0.487  0.2843  0.5158  0.7803
16426TIP3    H270694   2.417   6.828   0.597 -0.3798 -0.7644  1.1759
16427TIP3   OH270695   3.130   5.981  14.785 -0.4768 -0.1598  0.1559
16427TIP3    H170696   3.046   5.954  14.822  0.7488 -1.9742  1.6409
16427TIP3    H270697   3.160   5.905  14.735  0.3417  0.4458 -0.2870
16428TIP3   OH270698   5.896   3.446   0.544  0.1583  0.1952 -0.7565
16428TIP3    H170699   5.845   3.386   0.489  1.8979  0.7199 -3.0098
16428TIP3    H270700   5.987   3.423   0.526  0.7727  0.9096  1.3679
16429TIP3   OH270701   4.351   0.341   4.483 -0.3521 -0.3697 -0.2402
16429TIP3    H170702   4.260   0.325   4.508  0.2047 -0.9476  1.4487
16429TIP3    H270703   4.398   0.263   4.512  0.7969  0.1943 -0.5644
16430TIP3   OH270704   4.298   4.234   2.663 -0.3742 -0.3889 -0.1086
16430TIP3    H170705   4.236   4.161   2.658  0.4190 -1.0988  0.2603
16430TIP3    H270706   4.256   4.304   2.614 -1.4586 -0.8694  0.1167
16431TIP3   OH270707   0.614   2.721   4.175 -0.5094 -0.1438 -0.0544
16431TIP3    H170708   0.619   2.787   4.105 -1.2371  0.1026  0.1287
16431TIP3    H270709   0.521   2.701   4.183 -0.5570  0.6602  1.6206
16432TIP3   OH270710   3.339   1.381  17.085 -0.1876 -0.5374  0.3143
16432TIP3    H170711   3.271   1.443  17.111 -0.6618  0.2578 -2.5770
16432TIP3    H270712   3.299   1.295  17.095 -2.1236 -0.0459 -2.4874
16433TIP3   OH270713   0.829   2.491  15.833 -0.0093  0.3020 -0.1578
16433TIP3    H170714   0.839   2.559  15.899 -0.6861  0.2804 -0.0223
16433TIP3    H270715   0.870   2.414  15.872  0.2000  0.4658 -0.0505
16434TIP3   OH270716   5.300   1.791  16.182 -0.7389  0.2680  0.1526
16434TIP3    H170717   5.384   1.754  16.156 -1.5626 -0.2814 -1.8158
16434TIP3    H270718   5.321   1.852  16.252  1.5936  1.7540 -1.7499
16435TIP3   OH270719   3.945   1.691  12.188  0.0878  0.3083  0.0609
16435TIP3    H170720   3.911   1.709  12.100 -0.3579 -3.1888 -0.5377
16435TIP3    H270721   3.872   1.714  12.246 -1.3153 -1.7773 -0.8345
16436TIP3   OH270722   3.655   2.990   2.071 -0.1669  0.0662 -0.2365
16436TIP3    H170723   3.633   3.081   2.091  0.4879  0.2496 -0.3610
16436TIP3    H270724   3.750   2.988   2.065 -0.2264 -0.4610 -1.0792
16437TIP3   OH270725   4.284   6.711  10.983 -0.2048  0.2962 -0.6294
16437TIP3    H170726   4.225   6.653  10.935 -0.0117 -0.7386  0.3648
16437TIP3    H270727   4.369   6.667  10.980  0.3374  1.3772 -1.3451
16438TIP3   OH270728   6.402   4.884   3.826 -0.1176  0.1693  0.6524
16438TIP3    H170729   6.318   4.840   3.819 -0.1804 -0.2138  3.3627
16438TIP3    H270730   6.430   4.869   3.916  2.2438  1.3873  0.1672
16439TIP3   OH270731   5.529   2.939  13.556  0.0230 -0.1821 -0.2637
16439TIP3    H170732   5.568   2.913  13.639 -1.3427  0.0277  0.4593
16439TIP3    H270733   5.587   3.006  13.521  0.0547  0.4697  1.0258
16440TIP3   OH270734   3.770   3.013   1.556 -0.6564  0.1902 -0.8277
16440TIP3    H170735   3.722   2.943   1.513  0.3313 -0.9528 -0.1066
16440TIP3    H270736   3.862   2.994   1.539 -0.3853  1.5046 -0.9121
16441TIP3   OH270737   2.510   6.771  15.119  0.8294  0.2130  0.1470
16441TIP3    H170738   2.523   6.861  15.089 -1.7168  1.3660  2.2832
16441TIP3    H270739   2.481   6.724  15.041  1.3110  1.4629 -0.8083
16442TIP3   OH270740   0.490   3.060   5.159 -0.1703 -0.4204  0.2003
16442TIP3    H170741   0.414   3.047   5.215 -0.6802  2.4279  0.1958
16442TIP3    H270742   0.453   3.075   5.072  0.4012  0.7949  0.1663
16443TIP3   OH270743   5.109   2.028  12.245 -0.0377 -0.1192  0.1957
16443TIP3    H170744   5.084   2.055  12.333 -1.3872  0.2771 -0.2939
16443TIP3    H270745   5.204   2.039  12.243 -0.3247  2.9986  0.5795
16444TIP3   OH270746   5.171   5.916   3.654 -0.1387 -0.5584 -0.0586
16444TIP3    H170747   5.224   5.993   3.676  1.1201 -1.5308  0.3491
16444TIP3    H270748   5.232   5.843   3.657 -1.0086 -1.3920 -1.9195
16445TIP3   OH270749   6.473   3.431   5.155  0.4451 -0.2805  0.0030
16445TIP3    H170750   6.499   3.368   5.222 -1.2658 -1.9233 -0.8373
16445TIP3    H270751   6.397   3.475   5.191 -0.6049 -1.3083 -0.8846
16446TIP3   OH270752   0.883   5.230  15.144 -0.5736 -0.0938  0.2367
16446TIP3    H170753   0.859   5.303  15.201 -2.8081 -1.1215  0.6686
16446TIP3    H270754   0.800   5.188  15.123  0.6331 -2.2685 -0.3277
16447TIP3   OH270755   5.711   3.576   1.362  0.2547  0.1464  0.4910
16447TIP3    H170756   5.779   3.559   1.297  0.2728 -0.1333  0.5816
16447TIP3    H270757   5.684   3.667   1.346 -0.6629 -0.3206 -0.7736
16448TIP3   OH270758   0.868   2.107  10.773  0.6088 -0.4386  0.6486
16448TIP3    H170759   0.835   2.134  10.859  0.0122  1.3147 -0.1186
16448TIP3    H270760   0.865   2.186  10.719  0.5500 -1.6181 -1.1323
16449TIP3   OH270761   6.253   4.978  15.937 -0.4265  0.0698 -0.4377
16449TIP3    H170762   6.176   4.988  15.993  1.2656  0.8867  1.8389
16449TIP3    H270763   6.292   4.895  15.964  0.5812  0.6208 -0.1928
16450TIP3   OH270764   2.774   0.799  16.964  0.4066 -0.4125  0.0477
16450TIP3    H170765   2.742   0.767  17.048 -0.5659 -0.6824 -0.4123
16450TIP3    H270766   2.826   0.726  16.929 -1.2417 -1.2795 -0.6900
16451TIP3   OH270767   0.291   4.705   2.555 -0.7526  0.1954  0.2474
16451TIP3    H170768   0.378   4.744   2.555 -0.6934  0.0586  0.6511
16451TIP3    H270769   0.231   4.779   2.542 -0.5619  0.2475 -0.3781
16452TIP3   OH270770   1.867   2.534  15.905 -0.2673 -0.1611  0.0716
16452TIP3    H170771   1.830   2.555  15.990 -1.6255  0.8332 -0.7553
16452TIP3    H270772   1.894   2.618  15.868 -0.4524 -0.4805 -0.8196
16453TIP3   OH270773   2.322   2.500  15.899  0.1953  0.7013 -0.3469
16453TIP3    H170774   2.408   2.494  15.940  0.2843  0.2903 -0.5942
16453TIP3    H270775   2.340   2.495  15.805 -0.2157 -0.7279 -0.3608
16454TIP3   OH270776   2.413   3.183  13.204 -0.4144 -0.0323 -0.1797
16454TIP3    H170777   2.465   3.239  13.262 -1.4237 -0.5129  1.2307
16454TIP3    H270778   2.468   3.170  13.127  1.9796 -1.3192  1.6660
16455TIP3   OH270779   2.855   4.205   6.427  0.0032  0.2363 -0.3297
16455TIP3    H170780   2.875   4.289   6.467  0.1300 -0.5165  1.2400
16455TIP3    H270781   2.785   4.168   6.481  0.1771 -0.8135 -0.7996
16456TIP3   OH270782   0.326   6.483   4.826 -0.1867 -0.1511 -0.6652
16456TIP3    H170783   0.349   6.573   4.801  0.6409  0.2628  1.5010
16456TIP3    H270784   0.245   6.493   4.876 -0.5520 -0.7226 -1.1323
16457TIP3   OH270785   6.669   3.301  15.680 -0.4119 -0.5448  0.0159
16457TIP3    H170786   6.695   3.256  15.760 -0.3746  0.4690  0.5898
16457TIP3    H270787   6.653   3.231  15.617  0.8225 -1.3100  0.5242
16458TIP3   OH270788   6.752   5.620   3.883 -0.0580  0.5423  0.4123
16458TIP3    H170789   6.675   5.604   3.939 -0.4775 -0.8996 -0.5334
16458TIP3    H270790   6.715   5.646   3.799  0.4504 -0.5687 -0.1744
16459TIP3   OH270791   4.006   1.973   1.268  0.0599  0.3349  0.2301
16459TIP3    H170792   4.088   1.929   1.290 -0.9101 -1.3800  0.5935
16459TIP3    H270793   3.997   2.042   1.334  1.0851  0.3778  0.3316
16460TIP3   OH270794   5.751   5.877  17.077 -0.3448  0.7197  0.2541
16460TIP3    H170795   5.817   5.808  17.064 -1.4339 -0.4167  0.6319
16460TIP3    H270796   5.671   5.829  17.100 -0.6602  2.2164  2.3783
16461TIP3   OH270797   5.590   2.055  14.047 -0.0624 -0.1344 -0.2718
16461TIP3    H170798   5.681   2.040  14.023 -0.2347  1.0300 -1.7545
16461TIP3    H270799   5.544   1.977  14.015  0.3462 -0.5183  0.0710
16462TIP3   OH270800   3.306   3.397   1.051 -0.6763 -0.3289  0.0916
16462TIP3    H170801   3.385   3.439   1.015 -0.6638 -1.0444 -0.7279
16462TIP3    H270802   3.264   3.357   0.975 -0.8683 -1.5071  0.8177
16463TIP3   OH270803   3.475   0.223  11.279  0.2511 -0.4674 -0.2116
16463TIP3    H170804   3.400   0.269  11.317 -0.4375 -0.2634 -1.7805
16463TIP3    H270805   3.436   0.149  11.231  1.1921 -1.4092  0.4588
16464TIP3   OH270806   2.195   4.618   5.776 -0.2804  0.1438 -0.8352
16464TIP3    H170807   2.142   4.695   5.754  0.1474 -0.4174 -4.0999
16464TIP3    H270808   2.146   4.544   5.739  0.2920 -0.9431  0.5482
16465TIP3   OH270809   3.228   4.215   3.343  0.3110 -0.1705  0.1962
16465TIP3    H170810   3.226   4.296   3.393  2.0118  0.4327 -0.7073
16465TIP3    H270811   3.136   4.199   3.321 -0.3371  0.1476  2.5031
16466TIP3   OH270812   4.202   2.445  14.194  0.0661  0.4625  0.3893
16466TIP3    H170813   4.220   2.351  14.197 -0.4622  0.3326 -0.3720
16466TIP3    H270814   4.118   2.455  14.239 -0.0852  0.5180  0.0954
16467TIP3   OH270815   3.481   2.562  11.635  0.6317 -0.0131 -0.0905
16467TIP3    H170816   3.571   2.532  11.623  0.8038  0.1780  0.6920
16467TIP3    H270817   3.485   2.620  11.711  0.0498  0.8701 -0.7209
16468TIP3   OH270818   1.642   4.329   0.437 -0.3546 -0.8396 -0.0737
16468TIP3    H170819   1.717   4.297   0.387 -1.3346 -1.0195 -1.4729
16468TIP3    H270820   1.572   4.267   0.417 -1.2497  0.1007  0.1095
16469TIP3   OH270821   2.060   2.313   1.009  0.2522 -0.4457  0.1791
16469TIP3    H170822   2.057   2.263   1.091  0.1595 -1.8562 -0.6695
16469TIP3    H270823   2.058   2.246   0.940 -1.8152  0.8117 -1.0181
16470TIP3   OH270824   2.364   5.848   0.384  0.0869 -0.3588 -0.3532
16470TIP3    H170825   2.309   5.910   0.432 -0.1119 -0.2882 -0.6664
16470TIP3    H270826   2.440   5.900   0.357 -0.0144 -0.2836 -0.4980
16471TIP3   OH270827   4.049   3.625  14.557 -0.9578  0.0093  0.7473
16471TIP3    H170828   4.105   3.636  14.633  0.8371  0.8535 -0.6696
16471TIP3    H270829   4.061   3.705  14.506 -0.4548 -1.4237 -1.4690
16472TIP3   OH270830   4.791   5.408  15.248 -0.1928 -0.5586 -0.0357
16472TIP3    H170831   4.712   5.436  15.202 -1.7186 -1.2130  2.1151
16472TIP3    H270832   4.766   5.327  15.292  0.6508  0.9405  3.3614
16473TIP3   OH270833   1.052   4.455   3.688 -0.6870 -0.0218 -0.1286
16473TIP3    H170834   0.963   4.463   3.654 -0.7597  1.0126  0.2705
16473TIP3    H270835   1.087   4.544   3.684  0.5941 -0.5526 -0.9930
16474TIP3   OH270836   3.807   3.169  11.987  0.2412  0.5968 -0.5120
16474TIP3    H170837   3.888   3.221  11.990  0.3770  0.3696 -0.1891
16474TIP3    H270838   3.751   3.216  11.925 -0.1264  1.8518  0.7248
16475TIP3   OH270839   1.430   0.987   5.458  0.2181 -0.2069 -0.4679
16475TIP3    H170840   1.435   1.062   5.399 -2.0641  0.2642 -0.0829
16475TIP3    H270841   1.469   0.915   5.407  1.6254  1.0035 -1.1562
16476TIP3   OH270842   4.189   5.065   3.812  0.1710  0.0754 -0.0433
16476TIP3    H170843   4.189   5.035   3.903 -0.9220  0.9861  0.2626
16476TIP3    H270844   4.282   5.069   3.788  0.4068 -1.6251  0.5422
16477TIP3   OH270845   0.772   3.063  12.114  0.0865 -0.5861  0.5153
16477TIP3    H170846   0.710   3.113  12.166  1.7112  1.0369  0.9589
16477TIP3    H270847   0.801   3.124  12.046  1.5186 -1.1479  0.5918
16478TIP3   OH270848   0.147   5.312   1.883 -0.0479 -0.7135 -0.3415
16478TIP3    H170849   0.227   5.364   1.882  0.0690 -0.8774 -2.4426
16478TIP3    H270850   0.088   5.359   1.823 -2.0437  0.1735  2.2292
16479TIP3   OH270851   6.339   3.535   0.193  0.2955 -0.0479  0.2554
16479TIP3    H170852   6.365   3.469   0.258  0.2754  0.4447  0.7669
16479TIP3    H270853   6.243   3.535   0.196  0.2717 -0.7555 -0.5127
16480TIP3   OH270854   3.632   1.822  10.635  0.1730 -0.2660  0.0266
16480TIP3    H170855   3.688   1.778  10.572  0.4749 -0.8100  0.6793
16480TIP3    H270856   3.544   1.791  10.615  0.1121  0.4801 -0.9062
16481TIP3   OH270857   2.925   0.348  11.413 -0.4873  0.2751  0.1572
16481TIP3    H170858   2.849   0.317  11.363 -0.1208  0.7488 -0.7020
16481TIP3    H270859   2.891   0.419  11.467 -0.9133 -0.3242  0.6872
16482TIP3   OH270860   5.217   6.622   5.207  0.1935 -0.5326  0.0806
16482TIP3    H170861   5.209   6.717   5.216  0.4830 -0.3025 -1.9277
16482TIP3    H270862   5.127   6.590   5.210  0.0687 -0.1558  0.3639
16483TIP3   OH270863   2.639   4.927   2.284  0.1064 -0.4783 -0.3204
16483TIP3    H170864   2.548   4.909   2.260 -1.2987  1.8998  2.8732
16483TIP3    H270865   2.676   4.841   2.302 -1.5677 -1.4788 -1.4916
16484TIP3   OH270866   4.910   6.448  13.561  0.0791 -0.1790  0.2188
16484TIP3    H170867   4.894   6.373  13.503  1.7856  0.2623 -0.8651
16484TIP3    H270868   4.940   6.409  13.643  1.1058 -0.6842 -0.3889
16485TIP3   OH270869   5.453   0.869   1.618 -0.1309 -0.3632 -0.5861
16485TIP3    H170870   5.446   0.963   1.600 -1.3312 -0.2468  0.4774
16485TIP3    H270871   5.384   0.851   1.682  0.9387 -1.7139  0.2167
16486TIP3   OH270872   0.478   5.486  11.874  0.4054 -0.0880  0.1252
16486TIP3    H170873   0.471   5.390  11.875  0.2071 -0.0683  0.9193
16486TIP3    H270874   0.394   5.515  11.839  1.0676 -0.2474 -1.6568
16487TIP3   OH270875   0.423   1.896  13.351 -0.2669  0.3492 -0.0473
16487TIP3    H170876   0.334   1.861  13.356  0.1051 -0.4390  1.1746
16487TIP3    H270877   0.423   1.972  13.409 -0.1197  0.2835  0.0406
16488TIP3   OH270878   1.927   0.765   4.142 -0.4003  0.0352  0.0418
16488TIP3    H170879   1.898   0.692   4.198 -0.1999 -0.1121 -0.0458
16488TIP3    H270880   1.896   0.843   4.187 -0.4393 -0.0953  0.2433
16489TIP3   OH270881   6.031   6.191  10.941 -0.0187  0.3008 -0.1775
16489TIP3    H170882   6.110   6.225  10.899 -0.2819  0.2209 -0.7318
16489TIP3    H270883   6.020   6.103  10.906 -0.1485  0.1721  0.1788
16490TIP3   OH270884   5.565   0.693  11.035 -0.6866  0.4709  0.2271
16490TIP3    H170885   5.595   0.718  10.948  0.3139  1.5478  0.8561
16490TIP3    H270886   5.582   0.771  11.089 -0.3359 -0.5290  1.5964
16491TIP3   OH270887   3.028   1.292   1.508 -0.3568 -0.2704 -0.1985
16491TIP3    H170888   3.072   1.309   1.591 -0.5382 -0.9178  0.0318
16491TIP3    H270889   3.014   1.379   1.471  1.7297 -0.0755 -0.6080
16492TIP3   OH270890   0.990   1.245   1.577 -0.3914 -0.0507 -0.2469
16492TIP3    H170891   0.989   1.299   1.656  0.8168  0.6230 -0.6757
16492TIP3    H270892   1.068   1.191   1.586 -0.3816 -0.1419 -0.8601
16493TIP3   OH270893   3.933   0.852  17.013 -0.7694 -0.0356 -0.1792
16493TIP3    H170894   3.892   0.818  17.093 -0.4376  0.1207  0.0635
16493TIP3    H270895   3.880   0.928  16.989 -0.2083  0.6014  0.5466
16494TIP3   OH270896   1.948   0.316   4.160 -0.3403  0.2745  0.3367
16494TIP3    H170897   2.003   0.335   4.236 -1.5578 -0.4533  1.4355
16494TIP3    H270898   1.916   0.227   4.176 -1.3712  0.4763 -0.5405
16495TIP3   OH270899   4.839   3.662   6.139  0.2913 -0.0565 -0.3483
16495TIP3    H170900   4.785   3.665   6.218 -2.8111 -0.4444 -2.3796
16495TIP3    H270901   4.840   3.570   6.114 -0.5352  0.3431 -1.9171
16496TIP3   OH270902   3.446   5.454  13.587 -0.9021  0.0291 -0.3751
16496TIP3    H170903   3.393   5.387  13.631 -0.2195 -0.2275  0.0653
16496TIP3    H270904   3.511   5.404  13.538 -1.3922  0.3307 -1.3263
16497TIP3   OH270905   4.042   0.881   2.656 -0.2458 -0.5455  0.1649
16497TIP3    H170906   4.074   0.971   2.655 -0.5984 -0.3425  2.7079
16497TIP3    H270907   3.984   0.874   2.581 -1.5606  1.8666  0.9290
16498TIP3   OH270908   5.448   0.887  13.393  0.0534  0.6494  0.2022
16498TIP3    H170909   5.389   0.858  13.324  0.2371  0.3842  0.1580
16498TIP3    H270910   5.392   0.938  13.452 -0.1766  0.5745  0.0505
16499TIP3   OH270911   2.637   2.268  15.768  0.3057  0.5117 -0.6423
16499TIP3    H170912   2.695   2.316  15.708  0.2226 -2.7729 -3.5040
16499TIP3    H270913   2.549   2.285  15.735  0.0906  0.4604 -0.0983
16500TIP3   OH270914   0.919   1.312  11.928 -0.7982 -0.1845  0.1591
16500TIP3    H170915   1.014   1.304  11.935 -0.9018 -1.6530  0.0197
16500TIP3    H270916   0.906   1.380  11.863  0.1592  0.8843  1.0657
16501TIP3   OH270917   4.508   4.951  16.978  0.5867 -0.2475 -1.0638
16501TIP3    H170918   4.443   4.953  17.048  1.0052  1.6556 -0.7053
16501TIP3    H270919   4.456   4.964  16.898  0.2859 -0.8563 -0.9670
16502TIP3   OH270920   4.799   5.290   4.765 -0.5501 -0.3878 -0.2457
16502TIP3    H170921   4.769   5.379   4.750  0.3119 -0.3956 -2.1469
16502TIP3    H270922   4.788   5.246   4.680 -3.2437 -2.7804  1.2714
16503TIP3   OH270923   1.270   1.911  16.222 -0.2566 -0.4649  0.4774
16503TIP3    H170924   1.251   1.967  16.147 -0.4544  0.3886  1.1472
16503TIP3    H270925   1.214   1.945  16.292  0.6482 -0.6222  1.2875
16504TIP3   OH270926   5.263   5.105   1.956 -0.1634 -0.3534  0.1274
16504TIP3    H170927   5.326   5.107   1.885 -2.3692  0.6371 -1.8903
16504TIP3    H270928   5.294   5.171   2.017 -0.0763  1.2735 -1.6241
16505TIP3   OH270929   1.351   6.027   3.417  0.2187 -0.3225 -0.4190
16505TIP3    H170930   1.363   5.940   3.379 -1.9680  0.2072 -2.4788
16505TIP3    H270931   1.383   6.087   3.349 -0.5115  0.5504  0.0058
16506TIP3   OH270932   6.691   1.946   5.514  0.5558  0.0187  0.2205
16506TIP3    H170933   6.647   2.022   5.555  0.6616 -0.5185  1.3525
16506TIP3    H270934   6.688   1.878   5.582  1.5172 -0.6087 -0.3659
16507TIP3   OH270935   2.970   2.203  12.876  0.1160  0.2156 -0.4855
16507TIP3    H170936   2.875   2.193  12.870  0.2791 -1.0496 -1.0931
16507TIP3    H270937   2.989   2.276  12.817 -0.2219 -1.1449 -2.3465
16508TIP3   OH270938   3.132   5.523  16.896 -0.2754 -0.0085  0.6538
16508TIP3    H170939   3.125   5.529  16.801  1.9388  0.6041  0.4920
16508TIP3    H270940   3.158   5.432  16.913 -0.6223 -0.1051  0.6758
16509TIP3   OH270941   0.942   5.553  15.422 -0.1641  0.3756 -0.7978
16509TIP3    H170942   0.878   5.582  15.486 -0.3348  0.2736 -0.9198
16509TIP3    H270943   0.890   5.530  15.345  0.0783  0.9118 -1.1259
16510TIP3   OH270944   1.557   6.568   3.514 -0.2865  0.4274  0.2635
16510TIP3    H170945   1.505   6.501   3.559  0.8376 -1.3186 -0.9992
16510TIP3    H270946   1.578   6.631   3.583 -0.9081 -0.7770  1.5897
16511TIP3   OH270947   1.948   0.013  12.287  0.2071 -0.1130 -0.1883
16511TIP3    H170948   2.015  -0.032  12.340  0.4670  0.1928 -0.2581
16511TIP3    H270949   1.880  -0.053  12.274  0.9929 -0.7741 -1.0427
16512TIP3   OH270950   4.232   6.514   0.635  0.1362 -0.0903 -0.0379
16512TIP3    H170951   4.216   6.512   0.729  0.8045  1.7191  0.1313
16512TIP3    H270952   4.311   6.462   0.622 -0.8678 -1.6896  0.1973
16513TIP3   OH270953   2.656   1.750   0.406 -0.3347 -0.7100 -0.3024
16513TIP3    H170954   2.591   1.682   0.421 -0.0465 -0.7502  0.8854
16513TIP3    H270955   2.677   1.783   0.494  0.3085  0.1737 -0.7704
16514TIP3   OH270956   1.146   6.496   3.142  0.0297 -0.1584  0.2808
16514TIP3    H170957   1.128   6.403   3.157 -3.1616  0.1652 -1.1544
16514TIP3    H270958   1.186   6.500   3.056  1.4550 -0.2935  0.9173
16515TIP3   OH270959   3.389   0.526   3.585  0.5738 -0.4725  0.3958
16515TIP3    H170960   3.433   0.446   3.557 -0.4628 -0.6049 -0.9352
16515TIP3    H270961   3.296   0.502   3.591  0.3695  0.3952  0.8380
16516TIP3   OH270962   0.388   3.147   1.746  0.1834 -1.0420  0.2961
16516TIP3    H170963   0.405   3.184   1.659 -0.1797 -0.9233  0.2734
16516TIP3    H270964   0.425   3.060   1.743  2.2024 -0.2132  0.7707
16517TIP3   OH270965   0.250   0.438   1.216  0.3137 -0.2985 -0.3086
16517TIP3    H170966   0.328   0.421   1.163 -1.3928 -0.6481 -2.8103
16517TIP3    H270967   0.273   0.514   1.269  2.1712 -0.0334 -1.4491
16518TIP3   OH270968   3.216   1.673   2.931 -0.3216  0.2244 -0.1054
16518TIP3    H170969   3.148   1.697   2.869 -1.3259  4.4574  2.4499
16518TIP3    H270970   3.175   1.608   2.988 -1.0405  0.1225 -0.7346
16519TIP3   OH270971   5.990   1.201   2.119 -0.7393  0.2337  0.7556
16519TIP3    H170972   6.065   1.241   2.074 -0.7279 -0.8850 -0.2472
16519TIP3    H270973   6.026   1.165   2.200 -0.3123  0.2265  0.5597
16520TIP3   OH270974   4.936   1.514   3.274 -0.2451 -0.8809 -0.2137
16520TIP3    H170975   5.011   1.495   3.219 -0.6058  0.6779 -1.2718
16520TIP3    H270976   4.879   1.437   3.266  0.2006 -1.1114 -1.1579
16521TIP3   OH270977   0.705   5.334   6.071 -0.5463 -0.0579  0.8541
16521TIP3    H170978   0.723   5.417   6.026 -0.1416  0.1976  1.4895
16521TIP3    H270979   0.687   5.359   6.161 -0.9756 -0.6131  0.9240
16522TIP3   OH270980   1.854   3.450  11.800 -0.2793  0.0881  0.5964
16522TIP3    H170981   1.930   3.509  11.798 -0.4157  0.2449  0.0814
16522TIP3    H270982   1.815   3.465  11.886 -0.5439  1.0383  0.3163
16523TIP3   OH270983   0.741   0.921  17.017  0.1910  0.2175 -1.2972
16523TIP3    H170984   0.767   0.955  17.102  0.3002 -2.1721 -0.3310
16523TIP3    H270985   0.771   0.987  16.954  0.4749  1.8017  0.4817
16524TIP3   OH270986   0.742   2.887   3.011  0.5017  0.3368  0.0456
16524TIP3    H170987   0.778   2.917   2.927 -0.1704 -0.1531 -0.4159
16524TIP3    H270988   0.764   2.794   3.014  1.3617  0.5579  0.8531
16525TIP3   OH270989   6.506   5.048  12.268 -0.3233  0.0978 -0.0348
16525TIP3    H170990   6.591   5.090  12.259 -0.0797 -0.3352  0.2312
16525TIP3    H270991   6.449   5.093  12.206  0.0690  0.4715 -0.1152
16526TIP3   OH270992   5.028   1.390  14.764  0.2255  0.1009 -0.4271
16526TIP3    H170993   5.057   1.395  14.855 -1.4740  1.2663  0.0746
16526TIP3    H270994   4.943   1.433  14.764 -0.3340 -0.9516 -2.3499
16527TIP3   OH270995   5.940   5.301  12.349 -0.0301 -0.5461 -0.3245
16527TIP3    H170996   5.860   5.301  12.297 -1.0371  0.5756  1.1698
16527TIP3    H270997   5.920   5.246  12.424 -0.4792  2.1235  1.5859
16528TIP3   OH270998   1.953   5.137  15.222 -0.0349  0.3396 -0.3486
16528TIP3    H170999   2.030   5.152  15.166 -0.4417 -0.6753 -1.2094
16528TIP3    H271000   1.916   5.055  15.189 -1.7590  1.0554 -0.2396
16529TIP3   OH271001   4.827   3.124  16.954  0.6042  0.4285 -0.4250
16529TIP3    H171002   4.907   3.162  16.919  0.3049  0.3208 -1.2343
16529TIP3    H271003   4.832   3.032  16.929  1.0341  0.0446  0.9973
16530TIP3   OH271004   1.465   4.250  14.699  0.2820 -0.1745 -0.2541
16530TIP3    H171005   1.477   4.344  14.706 -0.8510  0.0217 -0.8381
16530TIP3    H271006   1.542   4.219  14.650 -0.4139  0.7337 -1.9482
16531TIP3   OH271007   0.962   6.341  16.897  0.3619  0.0371 -0.5023
16531TIP3    H171008   0.933   6.342  16.989  0.3417  1.5058 -0.5156
16531TIP3    H271009   0.888   6.304  16.849 -0.2558  0.7767 -0.1255
16532TIP3   OH271010   5.564   3.063  12.411  0.3377 -0.0303 -0.0772
16532TIP3    H171011   5.558   2.981  12.363  1.1118 -0.0361 -0.1638
16532TIP3    H271012   5.486   3.063  12.466  1.4744 -1.9292  1.6359
16533TIP3   OH271013   6.773   1.562  12.006  0.1192 -0.1495  0.5093
16533TIP3    H171014   6.794   1.475  12.039 -0.1977 -1.2015 -1.9923
16533TIP3    H271015   6.725   1.546  11.925  1.5621  2.3699 -0.8970
16534TIP3   OH271016   2.475   5.501  13.815  0.8990  0.1728  0.3039
16534TIP3    H171017   2.396   5.551  13.795  1.1959  0.9105  0.9694
16534TIP3    H271018   2.454   5.454  13.896  0.6255 -0.7801 -0.3087
16535TIP3   OH271019   1.859   1.012   4.263 -0.5347  0.2999 -0.1632
16535TIP3    H171020   1.949   1.019   4.295 -0.0521  1.1133 -1.6491
16535TIP3    H271021   1.805   1.042   4.336  0.3487 -0.6719  0.9292
16536TIP3   OH271022   5.714   5.118   2.167 -0.1240  0.2487  0.0714
16536TIP3    H171023   5.707   5.109   2.262 -0.2925  2.4198  0.2885
16536TIP3    H271024   5.771   5.047   2.140 -0.5523 -0.7438  1.7265
16537TIP3   OH271025   0.854   4.428  14.790  0.2511  0.5415  0.1215
16537TIP3    H171026   0.930   4.480  14.764 -0.1008  1.4349  0.8770
16537TIP3    H271027   0.791   4.491  14.824 -1.3055 -0.0723 -1.5584
16538TIP3   OH271028   5.707   3.584   2.127 -0.2085  0.4518 -0.2624
16538TIP3    H171029   5.678   3.605   2.216 -1.3995 -2.4842  0.1093
16538TIP3    H271030   5.700   3.667   2.080  2.2822  2.5006  2.8054
16539TIP3   OH271031   6.523   6.726   4.498  0.0768  0.3033  0.1725
16539TIP3    H171032   6.530   6.778   4.418 -3.0762  1.8486  0.8391
16539TIP3    H271033   6.566   6.779   4.565  0.6507  0.0669 -0.0023
16540TIP3   OH271034   4.844   4.498   4.890  0.4983  0.2477 -0.4472
16540TIP3    H171035   4.789   4.501   4.811 -0.9632 -0.2915  0.5248
16540TIP3    H271036   4.814   4.420   4.937  2.0544 -0.0044  0.1428
16541TIP3   OH271037   5.205   3.219   2.145  0.2012  0.1849  0.3275
16541TIP3    H171038   5.116   3.195   2.118  0.9560 -4.0164  1.1126
16541TIP3    H271039   5.257   3.214   2.065  0.4364 -1.5485  0.5529
16542TIP3   OH271040   5.229   4.603  16.461 -0.4219 -0.2500  0.6618
16542TIP3    H171041   5.268   4.528  16.417  0.5434  0.6673 -0.0631
16542TIP3    H271042   5.289   4.675  16.444 -1.4071  0.7235  1.2317
16543TIP3   OH271043   1.508   0.849  12.583 -0.1827  0.0648  0.2859
16543TIP3    H171044   1.557   0.925  12.616 -0.4795  0.0386  0.7823
16543TIP3    H271045   1.486   0.799  12.661  0.1160 -0.5978 -0.0527
16544TIP3   OH271046   1.796   4.983  14.095  0.3206  0.1689 -0.2319
16544TIP3    H171047   1.880   4.957  14.135 -0.4121  0.5577  1.5971
16544TIP3    H271048   1.820   5.008  14.006  2.0627 -0.3489  0.0524
16545TIP3   OH271049   0.417   1.166   4.762  0.3519  0.2188 -0.1297
16545TIP3    H171050   0.466   1.152   4.681  1.6839  0.4715  0.6318
16545TIP3    H271051   0.455   1.105   4.824 -1.1577 -0.4920  0.1276
16546TIP3   OH271052   0.525   5.477  16.445  0.0384 -0.6729  0.2022
16546TIP3    H171053   0.579   5.401  16.421  0.2897  0.9231 -4.9147
16546TIP3    H271054   0.587   5.546  16.466 -0.0611 -0.2759 -0.7706
16547TIP3   OH271055   4.835   2.547   2.448  0.1772 -0.1701 -0.0388
16547TIP3    H171056   4.762   2.601   2.415  0.1065 -1.0499 -1.3650
16547TIP3    H271057   4.913   2.597   2.426 -0.0247  2.5956  4.6316
16548TIP3   OH271058   2.595   5.167   1.537 -0.6612 -0.3140  0.4909
16548TIP3    H171059   2.550   5.105   1.479 -2.1426  0.4045  0.8406
16548TIP3    H271060   2.667   5.116   1.574 -0.2198 -1.0444 -1.2795
16549TIP3   OH271061   2.447   5.938   0.796  0.0573 -0.5414  0.1052
16549TIP3    H171062   2.423   5.858   0.843  0.1066 -0.5208  0.1643
16549TIP3    H271063   2.402   6.008   0.843 -1.1296 -0.6865 -0.7748
16550TIP3   OH271064   1.062   4.134  12.290 -0.4380 -0.3963 -0.0236
16550TIP3    H171065   0.976   4.112  12.326 -0.5537 -0.9924 -0.6515
16550TIP3    H271066   1.123   4.083  12.343 -0.3918  0.5870  0.9074
16551TIP3   OH271067   1.576   3.998  12.483 -0.4640  0.3705  0.4998
16551TIP3    H171068   1.528   4.076  12.510 -0.7549 -0.2354  1.7619
16551TIP3    H271069   1.668   4.018  12.503 -0.7653 -0.4205  2.8861
16552TIP3   OH271070   4.600   5.561   6.532 -0.4908 -0.0677 -0.3985
16552TIP3    H171071   4.575   5.610   6.610  1.3586 -0.1705  0.2779
16552TIP3    H271072   4.663   5.496   6.564 -1.0260 -1.2540 -1.6955
16553TIP3   OH271073   2.036   4.869  15.533  0.2006  0.3618 -0.0777
16553TIP3    H171074   1.976   4.911  15.594 -0.6608  0.9522 -1.2971
16553TIP3    H271075   2.115   4.853  15.583 -0.6088  0.5407  1.2686
16554TIP3   OH271076   6.581   0.396   4.508  0.3205 -0.4003 -0.6294
16554TIP3    H171077   6.498   0.350   4.496  1.7356 -3.0874 -0.5171
16554TIP3    H271078   6.642   0.329   4.539  1.9570  2.0361  1.6424
16555TIP3   OH271079   2.290   6.628  11.177 -0.2410  0.0703  0.2570
16555TIP3    H171080   2.305   6.722  11.174 -0.1491  0.0560  0.2820
16555TIP3    H271081   2.215   6.614  11.119  0.5423 -0.0052 -0.7516
16556TIP3   OH271082   6.188   0.374   4.687 -0.2179 -0.0279 -0.1599
16556TIP3    H171083   6.119   0.439   4.675  0.0269  0.3652  0.5336
16556TIP3    H271084   6.256   0.420   4.737 -0.5911 -1.1844  1.4517
16557TIP3   OH271085   2.108   6.325   0.899  0.4097  0.0242  0.4492
16557TIP3    H171086   2.132   6.390   0.966  1.0033  1.5421 -1.1876
16557TIP3    H271087   2.033   6.364   0.854 -0.4496 -1.3217  0.6922
16558TIP3   OH271088   5.218   2.733  14.226  0.0798  0.1818  0.6431
16558TIP3    H171089   5.290   2.797  14.227 -0.9809  1.4514 -0.9475
16558TIP3    H271090   5.219   2.697  14.137 -2.9252  2.2376 -0.3006
16559TIP3   OH271091   6.070   6.743   4.507 -0.0789 -0.4508 -0.2393
16559TIP3    H171092   6.151   6.775   4.546 -0.1018 -0.7226  0.0313
16559TIP3    H271093   6.046   6.666   4.559 -1.2834  0.4646  0.5955
16560TIP3   OH271094   3.928   5.177  12.854 -0.3768  0.4987 -0.0844
16560TIP3    H171095   3.898   5.172  12.945 -0.2265  0.6514 -0.0264
16560TIP3    H271096   4.016   5.140  12.856  0.9995  3.7100  0.4694
16561TIP3   OH271097   4.753   6.683  10.790  0.4579  0.3705  0.5621
16561TIP3    H171098   4.756   6.775  10.764  1.2558 -0.3106 -1.9507
16561TIP3    H271099   4.755   6.635  10.707  2.1224 -1.9479  1.8935
16562TIP3   OH271100   4.497   1.328  11.251  0.5394 -0.0868  0.0237
16562TIP3    H171101   4.440   1.404  11.264  2.0514  0.5394  3.8224
16562TIP3    H271102   4.585   1.364  11.257  1.2843 -1.8417 -0.1466
16563TIP3   OH271103   0.223   0.845  14.044 -0.6327 -0.3699 -0.2342
16563TIP3    H171104   0.229   0.937  14.071 -0.7149  0.0242 -1.5600
16563TIP3    H271105   0.313   0.818  14.028 -0.8053  0.1844 -2.1871
16564TIP3   OH271106   4.445   2.360  13.240 -0.3292 -0.2374  0.0223
16564TIP3    H171107   4.471   2.379  13.330  2.8592  0.6668 -1.0360
16564TIP3    H271108   4.445   2.265  13.234 -0.4296 -0.2946  0.9378
16565TIP3   OH271109   6.169   1.258   2.314 -0.1150  0.2917  0.0842
16565TIP3    H171110   6.137   1.229   2.399 -0.4718 -0.8315 -0.4178
16565TIP3    H271111   6.247   1.204   2.298 -0.2676  0.2354 -0.4683
16566TIP3   OH271112   1.136   3.196   0.237 -0.6397  0.4624 -0.2611
16566TIP3    H171113   1.128   3.273   0.180 -0.9956  0.6725  0.0688
16566TIP3    H271114   1.115   3.122   0.180 -0.6493  0.6422 -0.4934
16567TIP3   OH271115   6.008   6.605  14.286 -0.5559 -0.5237 -0.3930
16567TIP3    H171116   6.003   6.510  14.300 -0.0815 -0.7110 -1.4823
16567TIP3    H271117   6.099   6.621  14.263 -0.5064  0.2818  0.3511
16568TIP3   OH271118   2.540   1.721   6.609  0.2581  0.2845  0.1164
16568TIP3    H171119   2.478   1.650   6.628 -0.2809  0.8774  0.5979
16568TIP3    H271120   2.491   1.782   6.554  0.4894  0.6459  0.3083
16569TIP3   OH271121   3.176   1.025   4.948 -0.3573 -0.2388 -0.0952
16569TIP3    H171122   3.236   1.041   4.875 -0.7657  1.0719 -0.1527
16569TIP3    H271123   3.089   1.026   4.909 -0.5805  0.4821  0.4075
16570TIP3   OH271124   5.914   3.085   4.169 -0.7252  0.3647  0.6488
16570TIP3    H171125   5.846   3.141   4.205  1.4646  1.7478  2.7662
16570TIP3    H271126   5.992   3.141   4.166  0.8567 -1.8050  0.2932
16571TIP3   OH271127   4.124   3.206   3.379 -0.5416 -0.0390  0.1757
16571TIP3    H171128   4.121   3.165   3.465  0.2740 -0.2975  0.0804
16571TIP3    H271129   4.217   3.222   3.362 -0.7278  0.4337 -0.4571
16572TIP3   OH271130   1.937   2.562  12.849  0.1722 -0.2695 -0.1247
16572TIP3    H171131   1.854   2.599  12.880  0.1381  0.2375 -0.8103
16572TIP3    H271132   2.003   2.603  12.905 -0.0365 -0.6387  0.3939
16573TIP3   OH271133   1.231   6.099  12.707 -0.0307 -0.4526 -0.4681
16573TIP3    H171134   1.177   6.159  12.655 -1.2896  0.0553  1.3925
16573TIP3    H271135   1.182   6.018  12.710  0.2633 -0.6304 -0.4538
16574TIP3   OH271136   6.499   5.099   2.182 -0.9718  0.3274  0.1118
16574TIP3    H171137   6.578   5.135   2.141 -0.2911 -0.9365  0.2956
16574TIP3    H271138   6.453   5.176   2.216 -0.2723  1.1584 -0.7904
16575TIP3   OH271139   3.502   1.586  16.549  0.6179 -0.4532 -0.4410
16575TIP3    H171140   3.490   1.506  16.600  0.5109  0.0081  0.2586
16575TIP3    H271141   3.414   1.607  16.518  0.5191 -0.1749  0.0252
16576TIP3   OH271142   4.660   1.638  11.355 -0.0809  0.4447 -0.5459
16576TIP3    H171143   4.721   1.566  11.371 -2.3471 -1.2107  0.8570
16576TIP3    H271144   4.693   1.710  11.409  0.1728 -0.6974  0.8423
16577TIP3   OH271145   1.964   6.128  12.842 -0.1181 -0.3943 -0.2090
16577TIP3    H171146   1.996   6.050  12.796  1.3236 -0.4174  0.7754
16577TIP3    H271147   2.018   6.200  12.808 -0.2194 -0.1333  0.1786
16578TIP3   OH271148   5.459   5.969  16.275  0.5877 -0.5431  0.1818
16578TIP3    H171149   5.426   5.951  16.187 -0.8581 -1.0507  0.8072
16578TIP3    H271150   5.518   6.043  16.264 -0.4854  0.1532 -1.0515
16579TIP3   OH271151   2.579   0.464  15.700  0.0340 -0.0908  0.1132
16579TIP3    H171152   2.495   0.472  15.746 -1.1344 -0.5496 -1.9000
16579TIP3    H271153   2.631   0.407  15.757 -0.6149  1.0572  1.9098
16580TIP3   OH271154   4.746   0.788   1.640  0.0320 -0.0002 -0.5246
16580TIP3    H171155   4.790   0.818   1.561  0.9300  1.3079  0.4505
16580TIP3    H271156   4.804   0.816   1.712 -1.0147 -0.7110  0.6200
16581TIP3   OH271157   5.549   2.268   2.571  0.0113 -0.6344 -0.5403
16581TIP3    H171158   5.613   2.228   2.512  1.4005  2.4515 -1.2146
16581TIP3    H271159   5.602   2.303   2.643 -1.2858 -0.9859  0.6072
16582TIP3   OH271160   0.597   4.531   1.983 -0.7527 -0.0435 -0.0444
16582TIP3    H171161   0.632   4.536   1.895 -0.2407  0.8109  0.2052
16582TIP3    H271162   0.502   4.544   1.972 -0.8551 -1.2550 -0.5994
16583TIP3   OH271163   2.206   3.478   0.652  0.1472  0.4365 -0.3884
16583TIP3    H171164   2.286   3.511   0.692  1.6610 -1.3324 -1.8959
16583TIP3    H271165   2.171   3.552   0.603  0.9149  1.1692  0.1496
16584TIP3   OH271166   0.779   5.823   0.173 -0.3084  0.0652  0.1031
16584TIP3    H171167   0.779   5.728   0.181 -0.4430 -0.0140 -0.7955
16584TIP3    H271168   0.699   5.850   0.218 -0.9702 -0.3586 -0.7939
16585TIP3   OH271169   2.164   4.835  15.017 -0.6884  0.5140 -0.2869
16585TIP3    H171170   2.172   4.741  15.001 -0.6635  0.8459 -2.2914
16585TIP3    H271171   2.120   4.841  15.102  1.4785 -1.3152  1.0319
16586TIP3   OH271172   5.636   6.345  13.688  0.6845  0.5514  0.7983
16586TIP3    H171173   5.613   6.430  13.725 -0.6149  0.3065  0.5731
16586TIP3    H271174   5.708   6.314  13.742  1.5336  2.0335  0.5561
16587TIP3   OH271175   1.780   3.819  15.116 -0.3572 -0.6070 -0.9305
16587TIP3    H171176   1.805   3.870  15.038 -1.4922  1.7839  0.2099
16587TIP3    H271177   1.857   3.820  15.172  0.1235 -1.4656 -1.5646
16588TIP3   OH271178   4.633   4.721   3.062  0.0197  0.2897 -0.3210
16588TIP3    H171179   4.598   4.784   3.124  0.6602  3.5899 -3.1148
16588TIP3    H271180   4.570   4.720   2.990  1.3005 -0.3288 -1.4614
16589TIP3   OH271181   2.891   4.621  13.708  0.8605 -0.4687  0.0790
16589TIP3    H171182   2.959   4.556  13.689  0.0200 -1.2803 -0.1701
16589TIP3    H271183   2.883   4.671  13.627 -0.6029 -1.9970 -0.7474
16590TIP3   OH271184   3.239   1.030  14.422  0.2017 -0.4173  0.0456
16590TIP3    H171185   3.271   0.940  14.428  1.7160  0.0457 -0.7233
16590TIP3    H271186   3.186   1.031  14.342 -0.6573 -0.8578  0.5990
16591TIP3   OH271187   4.998   4.868   0.471  0.3559  0.2788 -0.0045
16591TIP3    H171188   4.903   4.865   0.467  0.4168 -1.3348 -0.6909
16591TIP3    H271189   5.017   4.910   0.555 -0.9419  3.3644 -1.1886
16592TIP3   OH271190   6.357   3.244  16.636  0.0613 -0.4353  0.6057
16592TIP3    H171191   6.304   3.165  16.647  0.6295 -0.7897  0.7565
16592TIP3    H271192   6.410   3.249  16.715 -0.7204  0.6720  1.0837
16593TIP3   OH271193   0.528   4.267  15.075 -0.4250  0.3548  0.2996
16593TIP3    H171194   0.461   4.242  15.010 -0.8682 -0.5969  1.1107
16593TIP3    H271195   0.479   4.278  15.156  0.4505 -0.7201  0.9897
16594TIP3   OH271196   2.698   1.230   5.335  0.1796  0.1930 -0.2599
16594TIP3    H171197   2.758   1.278   5.278 -1.3901  1.7829 -0.6186
16594TIP3    H271198   2.753   1.166   5.380  2.0475  1.2879 -0.9504
16595TIP3   OH271199   3.077   2.743  12.851  0.0122 -0.2420 -0.0341
16595TIP3    H171200   3.092   2.747  12.946 -0.6284 -1.6303  0.1303
16595TIP3    H271201   3.059   2.651  12.833  1.3166 -0.1848 -1.7092
16596TIP3   OH271202   5.081   5.115  11.806  0.4696 -0.2435  0.1750
16596TIP3    H171203   5.072   5.069  11.889  1.0944  0.3466  0.5735
16596TIP3    H271204   5.172   5.145  11.805  0.0932  0.8852 -0.1401
16597TIP3   OH271205   6.268   6.612   0.352  0.2671 -0.5052  0.1610
16597TIP3    H171206   6.247   6.523   0.322 -3.7372  0.4351 -0.1715
16597TIP3    H271207   6.341   6.639   0.297  1.1491 -3.3586 -0.1488
16598TIP3   OH271208   0.452   0.137   2.090  0.1525 -0.3439  0.2544
16598TIP3    H171209   0.503   0.056   2.080  1.1711  0.1568  1.2648
16598TIP3    H271210   0.361   0.107   2.092  0.5340 -1.5155  0.9372
16599TIP3   OH271211   2.053   3.396   0.860  0.0933 -0.7058 -0.4765
16599TIP3    H171212   2.109   3.428   0.789 -1.4767  1.2861 -0.8366
16599TIP3    H271213   1.969   3.377   0.819 -0.7958  0.3398  0.8026
16600TIP3   OH271214   3.768   2.371   1.000  0.0673  0.5089 -0.7862
16600TIP3    H171215   3.677   2.377   1.031  0.9741 -1.4417  2.4078
16600TIP3    H271216   3.788   2.278   1.004  2.3635  0.9725 -1.1095
16601TIP3   OH271217   1.824   2.006  15.794  0.3154 -0.2769  0.4858
16601TIP3    H171218   1.818   2.100  15.810  2.7133 -0.3569  1.9579
16601TIP3    H271219   1.734   1.975  15.803 -0.0168  1.3603  3.3163
16602TIP3   OH271220   1.024   4.738   1.113  1.2478  0.1484  0.3794
16602TIP3    H171221   0.981   4.815   1.150 -0.7458  0.4927 -2.4903
16602TIP3    H271222   1.116   4.765   1.102  0.6861  1.9321 -0.0794
16603TIP3   OH271223   0.061   1.445   2.661  0.2493 -0.1033  0.3433
16603TIP3    H171224   0.084   1.523   2.712 -0.0321 -0.4318  0.9774
16603TIP3    H271225   0.135   1.386   2.673 -0.9068 -1.1984  2.4601
16604TIP3   OH271226   5.897   1.161  16.631  0.2391 -0.1359 -0.8173
16604TIP3    H171227   5.861   1.249  16.642  1.7843  0.2475  1.4997
16604TIP3    H271228   5.822   1.103  16.643 -0.0751  0.7326  1.7445
16605TIP3   OH271229   1.897   6.181  16.361  0.7809 -0.1805 -0.4256
16605TIP3    H171230   1.954   6.251  16.393 -0.2046  0.7272 -0.6551
16605TIP3    H271231   1.841   6.223  16.296 -0.5517 -0.9304  0.2085
16606TIP3   OH271232   4.795   3.090  14.410  0.1644 -0.3656  0.1933
16606TIP3    H171233   4.729   3.159  14.422 -0.1152 -0.8600  1.5277
16606TIP3    H271234   4.818   3.063  14.498  0.5967 -1.6915 -0.3148
16607TIP3   OH271235   4.863   1.402   0.207  0.2527  0.3597  0.0259
16607TIP3    H171236   4.783   1.361   0.239 -0.4505  1.3324 -0.4636
16607TIP3    H271237   4.884   1.468   0.274  0.3958  0.4064 -0.0641
16608TIP3   OH271238   0.269   1.271  12.365  0.1224  0.5436 -0.0107
16608TIP3    H171239   0.229   1.294  12.448  1.6810 -2.1587  1.5675
16608TIP3    H271240   0.242   1.181  12.349 -0.7302  1.2587 -2.8119
16609TIP3   OH271241   0.134   6.524  16.803  0.1812  0.1014 -0.4308
16609TIP3    H171242   0.119   6.604  16.753  2.9202  0.6121 -0.4741
16609TIP3    H271243   0.163   6.460  16.738 -0.1989 -0.4027 -0.1115
16610TIP3   OH271244   4.997   6.681   3.267  0.5380  0.2386  0.2938
16610TIP3    H171245   4.942   6.634   3.329  0.9560  1.0468  1.2820
16610TIP3    H271246   4.935   6.724   3.208  0.0961  1.2581  1.4842
16611TIP3   OH271247   0.771   6.454   5.931 -0.6095  0.0578  0.0827
16611TIP3    H171248   0.851   6.402   5.920 -1.8542 -1.8545 -0.2030
16611TIP3    H271249   0.798   6.544   5.912  1.4124 -0.5973 -0.2641
16612TIP3   OH271250   3.886   4.055   3.024 -0.2353  0.4144  0.5846
16612TIP3    H171251   3.960   4.009   3.065  0.8288  2.0315  0.5239
16612TIP3    H271252   3.914   4.068   2.933 -1.4881 -0.8153  0.0084
16613TIP3   OH271253   3.387   5.449   3.678 -0.2218 -0.6251 -0.3303
16613TIP3    H171254   3.445   5.524   3.687  1.6423 -2.0582 -0.0854
16613TIP3    H271255   3.311   5.471   3.733  0.3473  0.9874 -0.1538
16614TIP3   OH271256   1.031   6.535   3.750 -0.1394 -0.1806 -0.3577
16614TIP3    H171257   1.061   6.499   3.667  0.4953  0.4570 -0.4217
16614TIP3    H271258   0.937   6.520   3.751 -0.3151  0.7473 -1.6724
16615TIP3   OH271259   1.336   3.816   3.835  0.0682  0.1334 -0.6052
16615TIP3    H171260   1.402   3.885   3.845  0.1404 -0.0474  0.2474
16615TIP3    H271261   1.331   3.775   3.922 -0.9854 -0.0149 -0.7258
16616TIP3   OH271262   6.069   3.413  16.708 -0.0074 -0.0524  0.8106
16616TIP3    H171263   5.990   3.367  16.679  0.8420  0.6490 -2.8429
16616TIP3    H271264   6.038   3.500  16.732 -0.0320  1.3745 -3.8497
16617TIP3   OH271265   5.462   2.169   2.274  0.2601 -0.1877  0.5425
16617TIP3    H171266   5.520   2.093   2.283  3.1296  1.7853 -0.5187
16617TIP3    H271267   5.412   2.153   2.195 -0.3482 -1.7081  1.2219
16618TIP3   OH271268   3.759   5.493   1.359  0.1751  0.2084  0.5219
16618TIP3    H171269   3.749   5.532   1.272  0.4466 -0.0472  0.3752
16618TIP3    H271270   3.699   5.418   1.358  0.4792 -0.0319  0.4138
16619TIP3   OH271271   0.788   2.727   1.473 -0.2677 -0.7274 -0.4506
16619TIP3    H171272   0.758   2.754   1.559 -1.2977 -0.1941 -0.9661
16619TIP3    H271273   0.809   2.634   1.483 -2.1363 -1.1375 -0.0693
16620TIP3   OH271274   0.112   5.107  14.120 -0.5387 -0.0123 -0.1294
16620TIP3    H171275   0.028   5.082  14.081 -0.3363 -1.2376  0.1829
16620TIP3    H271276   0.093   5.118  14.213 -1.0066  2.8410 -0.5193
16621TIP3   OH271277   3.477   3.475   6.746 -0.3766  0.6885  0.3481
16621TIP3    H171278   3.426   3.394   6.734  0.1738  0.3315  0.3690
16621TIP3    H271279   3.523   3.462   6.829 -0.4413  1.1130  0.4513
16622TIP3   OH271280   0.781   6.782  14.812 -0.0699 -0.4292 -0.4834
16622TIP3    H171281   0.785   6.692  14.845  2.4895 -0.3966 -0.5921
16622TIP3    H271282   0.862   6.822  14.843 -0.4579  1.3752 -1.7425
16623TIP3   OH271283   4.886   6.695   2.039  0.0981 -0.5767 -0.0708
16623TIP3    H171284   4.799   6.735   2.034  0.7990  1.0321  0.1819
16623TIP3    H271285   4.892   6.641   1.961 -1.0136 -0.4553 -0.2472
16624TIP3   OH271286   5.466   0.923  15.505  0.0302 -0.2280 -0.3105
16624TIP3    H171287   5.421   1.004  15.480  1.6975  0.6640 -0.5326
16624TIP3    H271288   5.420   0.854  15.458  0.6881  1.0030 -2.8507
16625TIP3   OH271289   1.760   2.893  14.470 -0.4537 -0.0047  0.3362
16625TIP3    H171290   1.791   2.803  14.476  1.0680  0.4442 -0.5287
16625TIP3    H271291   1.699   2.903  14.543  1.5880 -0.8571  2.1900
16626TIP3   OH271292   3.956   4.678  14.902  0.3400 -0.2179  0.1926
16626TIP3    H171293   3.882   4.621  14.924 -1.6410  2.4409  0.5297
16626TIP3    H271294   4.006   4.627  14.838 -2.9344 -1.2421 -1.6674
16627TIP3   OH271295   1.066   0.331   2.033  0.1688  0.3622 -0.0935
16627TIP3    H171296   1.036   0.409   1.987  1.2824 -0.9151 -3.1390
16627TIP3    H271297   1.069   0.263   1.965  1.5998 -1.7004  1.9502
16628TIP3   OH271298   3.304   5.363  10.916  0.3122 -0.3429 -0.8172
16628TIP3    H171299   3.276   5.454  10.913  0.6275 -0.0981  1.8447
16628TIP3    H271300   3.353   5.349  10.836 -1.9124  1.0867 -2.4865
16629TIP3   OH271301   5.374   3.642  13.179  0.4274 -0.1236 -0.1640
16629TIP3    H171302   5.353   3.652  13.272  2.0344  2.6707 -0.0434
16629TIP3    H271303   5.469   3.650  13.175  0.2438  1.5091 -2.2192
16630TIP3   OH271304   6.378   6.096   2.902 -0.0364  0.3452 -0.1693
16630TIP3    H171305   6.380   6.046   2.820 -0.4405  0.1381 -0.0557
16630TIP3    H271306   6.313   6.051   2.956 -1.1415  1.5537 -0.4439
16631TIP3   OH271307   4.138   3.453  11.281 -0.2437  0.0842  0.7340
16631TIP3    H171308   4.129   3.359  11.295  0.5336  0.0008  0.6905
16631TIP3    H271309   4.186   3.461  11.199  0.2419  0.5055  1.0530
16632TIP3   OH271310   0.848   1.510   1.348 -0.2743 -0.3327 -0.5266
16632TIP3    H171311   0.820   1.547   1.432  1.1810 -1.0638  0.2892
16632TIP3    H271312   0.806   1.566   1.283  0.4536  1.6577  0.6823
16633TIP3   OH271313   4.035   5.111   4.081  0.2333 -0.1575 -0.0784
16633TIP3    H171314   4.102   5.043   4.087 -0.4184 -0.6922  1.5957
16633TIP3    H271315   3.954   5.062   4.065 -0.1212  0.2798  0.3604
16634TIP3   OH271316   2.645   5.952   1.927 -0.0932 -0.2914 -0.0955
16634TIP3    H171317   2.681   5.882   1.982  0.7063 -0.2846 -0.5933
16634TIP3    H271318   2.636   5.912   1.840  0.8715  0.3520 -0.5127
16635TIP3   OH271319   5.319   1.842  16.654 -0.3369  0.4794  0.5287
16635TIP3    H171320   5.285   1.755  16.675 -1.2020  1.0473  1.5596
16635TIP3    H271321   5.336   1.840  16.560 -0.4349 -0.7707  0.5299
16636TIP3   OH271322   2.547   4.364   2.381  0.3456  0.4050 -0.3224
16636TIP3    H171323   2.572   4.288   2.327  0.8691 -0.0490  0.5532
16636TIP3    H271324   2.504   4.326   2.457  0.5914  0.9976  0.1146
16637TIP3   OH271325   3.716   2.387  12.919  0.1562  0.1368 -0.8148
16637TIP3    H171326   3.763   2.470  12.912 -1.4789  1.0410 -1.3889
16637TIP3    H271327   3.763   2.328  12.862  0.4570  1.0949 -1.5794
16638TIP3   OH271328   1.185   4.732  16.668  0.0052  0.4759 -0.7596
16638TIP3    H171329   1.156   4.811  16.712 -1.1351  0.4131 -1.3623
16638TIP3    H271330   1.111   4.709  16.610 -0.3820 -1.9443  0.6257
16639TIP3   OH271331   2.517   2.283  17.045  0.2888 -0.4655 -0.0083
16639TIP3    H171332   2.588   2.219  17.036 -0.2232 -0.9166 -0.8953
16639TIP3    H271333   2.437   2.230  17.040 -0.1287  0.2064 -0.4388
16640TIP3   OH271334   4.772   3.027   2.661  0.2213 -0.0185 -0.0648
16640TIP3    H171335   4.781   3.008   2.568 -1.4655 -0.2451 -0.2120
16640TIP3    H271336   4.757   3.121   2.666  0.4137  0.0097 -0.0130
16641TIP3   OH271337   3.465   3.231   2.358 -0.4438  0.0932 -0.0901
16641TIP3    H171338   3.544   3.233   2.303 -0.5413 -1.5931 -0.3142
16641TIP3    H271339   3.400   3.281   2.310  0.4731  1.4407  0.0636
16642TIP3   OH271340   3.109   4.648   5.388  0.3364  0.0085 -0.1597
16642TIP3    H171341   3.029   4.655   5.440  0.6597  0.6162  0.2553
16642TIP3    H271342   3.180   4.658   5.451  0.7321  2.3148 -0.9225
16643TIP3   OH271343   4.948   1.888   2.903  0.2317  0.0726 -0.2652
16643TIP3    H171344   4.969   1.969   2.857 -0.9667 -0.7388 -2.3403
16643TIP3    H271345   4.910   1.831   2.835 -1.1809 -1.3312  1.6357
16644TIP3   OH271346   5.779   3.606   6.200 -0.1761 -0.4055 -0.1172
16644TIP3    H171347   5.870   3.578   6.204 -0.6132 -1.6574  1.4693
16644TIP3    H271348   5.754   3.595   6.108  0.9200 -1.2043 -0.3214
16645TIP3   OH271349   4.186   4.743   1.986 -0.0732 -0.0043 -0.2833
16645TIP3    H171350   4.137   4.726   1.906 -0.3199  0.5858 -0.2613
16645TIP3    H271351   4.118   4.765   2.051  0.2738  1.4965 -0.4272
16646TIP3   OH271352   3.839   2.140  13.935  0.3930  0.2889  0.3189
16646TIP3    H171353   3.877   2.121  13.849 -1.2098  0.7177 -0.5239
16646TIP3    H271354   3.884   2.219  13.965  0.2841  0.6997 -0.5790
16647TIP3   OH271355   5.679   0.718  12.598  0.0653  0.9109 -0.2947
16647TIP3    H171356   5.589   0.739  12.574  0.3425  0.8009 -1.4475
16647TIP3    H271357   5.717   0.678  12.519  0.3211 -1.5434  1.0185
16648TIP3   OH271358   5.921   0.079  16.471 -0.4485 -0.3241 -0.0235
16648TIP3    H171359   5.983   0.153  16.473  0.0912 -0.8006  0.8773
16648TIP3    H271360   5.977   0.001  16.474 -0.9834 -0.7935 -1.5559
16649TIP3   OH271361   3.964   5.807  15.836 -0.2990  0.7010 -1.0997
16649TIP3    H171362   3.906   5.750  15.785  0.0293 -1.1588  0.5584
16649TIP3    H271363   4.051   5.793  15.799 -0.5836  2.1395 -2.4001
16650TIP3   OH271364   6.600   0.978  12.708 -0.0313  0.2667  0.1912
16650TIP3    H171365   6.542   1.025  12.648  1.5556  1.4982 -0.4273
16650TIP3    H271366   6.616   0.894  12.664  0.0861  0.6393 -0.4863
16651TIP3   OH271367   4.789   1.131  14.822  0.2007  0.4343  0.2347
16651TIP3    H171368   4.799   1.204  14.884 -1.8753  0.2065  0.8774
16651TIP3    H271369   4.772   1.173  14.738  0.9485  0.7099  0.2145
16652TIP3   OH271370   3.913   3.283   3.240  0.2769  0.1107  0.2028
16652TIP3    H171371   3.955   3.284   3.154  2.0363  1.6273  1.0420
16652TIP3    H271372   3.981   3.254   3.300 -0.6277  0.0857  1.2309
16653TIP3   OH271373   2.739   5.797  15.418  0.0833  0.0737  0.0835
16653TIP3    H171374   2.763   5.725  15.476  0.3784 -0.0772 -0.2278
16653TIP3    H271375   2.645   5.808  15.432 -0.3203 -1.5544 -1.1831
16654TIP3   OH271376   4.750   1.835  14.720  0.4840 -0.9867  0.3644
16654TIP3    H171377   4.744   1.924  14.754 -0.1861 -0.5270 -0.9095
16654TIP3    H271378   4.674   1.826  14.663  0.7915 -2.2174  0.1380
16655TIP3   OH271379   1.692   4.788   0.164  0.0288 -0.1843 -0.8635
16655TIP3    H171380   1.786   4.776   0.178 -0.0392 -0.3536 -0.5549
16655TIP3    H271381   1.651   4.715   0.211 -0.2626 -0.0177 -0.8583
16656TIP3   OH271382   2.322   4.321   5.412  0.1752 -0.3146 -0.2540
16656TIP3    H171383   2.377   4.302   5.336 -1.5339  0.2400 -1.6660
16656TIP3    H271384   2.237   4.282   5.391 -0.6724  0.9053  0.8265
16657TIP3   OH271385   3.760   5.929   2.993 -0.1975  0.1771  0.1447
16657TIP3    H171386   3.767   5.837   3.018 -1.5659  0.7502  2.8511
16657TIP3    H271387   3.814   5.976   3.056 -1.3525  1.4288  0.2254
16658TIP3   OH271388   3.271   4.818  14.996 -0.1546 -0.0740 -0.1420
16658TIP3    H171389   3.207   4.782  14.934  1.9051 -2.6740 -0.7938
16658TIP3    H271390   3.306   4.895  14.951 -2.1622  0.9060 -0.1175
16659TIP3   OH271391   3.576   6.377  14.606  0.2485 -0.2706  0.8251
16659TIP3    H171392   3.545   6.292  14.576  0.2136 -0.0998  0.3617
16659TIP3    H271393   3.521   6.399  14.681 -0.9239  0.1454 -0.1520
16660TIP3   OH271394   3.438   4.532   5.000  0.5565 -0.1261 -0.1464
16660TIP3    H171395   3.420   4.439   5.015 -1.1529  0.5866  2.5620
16660TIP3    H271396   3.385   4.554   4.923 -0.2883 -1.0195  0.1655
16661TIP3   OH271397   6.128   5.174  17.130  0.7406  0.4580 -0.3534
16661TIP3    H171398   6.129   5.184  17.225 -0.1844 -3.6218  0.1588
16661TIP3    H271399   6.209   5.127  17.110 -0.2601 -0.9271 -1.2651
16662TIP3   OH271400   1.415   2.585  11.720  0.1944 -0.1349  0.0639
16662TIP3    H171401   1.336   2.537  11.693 -0.0914  1.1362 -1.4459
16662TIP3    H271402   1.416   2.577  11.815 -2.8928  1.5119  0.3072
16663TIP3   OH271403   2.355   1.492  13.821  0.4145 -0.5069 -0.2323
16663TIP3    H171404   2.369   1.402  13.851  0.1123 -0.9565 -1.4532
16663TIP3    H271405   2.286   1.525  13.878  1.4197 -0.6098  1.0890
16664TIP3   OH271406   4.675   6.473   5.184 -0.8321 -0.1017  0.3986
16664TIP3    H171407   4.627   6.523   5.251  0.6422  0.3535  1.1351
16664TIP3    H271408   4.766   6.501   5.194 -0.8250  1.5162 -3.1203
16665TIP3   OH271409   1.826   6.730   1.339  0.3452 -0.2579 -0.0944
16665TIP3    H171410   1.785   6.814   1.362  1.3169  0.1160  0.2749
16665TIP3    H271411   1.870   6.748   1.256  0.8354 -0.3167  0.1562
16666TIP3   OH271412   1.958   1.373  16.879  0.0691  0.1185 -0.2462
16666TIP3    H171413   1.962   1.389  16.973 -1.1315 -0.2130 -0.1214
16666TIP3    H271414   2.026   1.429  16.842  1.1369 -0.3816  0.8943
16667TIP3   OH271415   5.680   0.551   0.300 -0.3267 -0.0239  0.0722
16667TIP3    H171416   5.772   0.523   0.299  0.3311  1.9112  2.3005
16667TIP3    H271417   5.682   0.641   0.269 -1.9692 -1.0937 -3.3646
16668TIP3   OH271418   1.543   1.827   0.405 -0.2184 -0.0553  0.3029
16668TIP3    H171419   1.621   1.865   0.365 -0.0311 -0.1076  0.6159
16668TIP3    H271420   1.492   1.795   0.332  0.9304 -1.7016  0.1841
16669TIP3   OH271421   3.541   3.775   0.357 -0.5704 -0.3357 -0.1204
16669TIP3    H171422   3.544   3.684   0.388  0.1698 -0.6870 -1.1885
16669TIP3    H271423   3.552   3.768   0.262 -1.8763  0.7824 -0.3717
16670TIP3   OH271424   6.398   1.223  17.105  0.3063  0.1527 -0.4904
16670TIP3    H171425   6.304   1.232  17.119  0.2453 -1.0058 -0.1639
16670TIP3    H271426   6.405   1.191  17.015  0.3485 -0.5895 -0.2255
16671TIP3   OH271427   5.521   0.796  14.244 -0.9594 -0.1704 -0.0100
16671TIP3    H171428   5.526   0.823  14.336  2.0915 -1.5923  0.3087
16671TIP3    H271429   5.529   0.877  14.194 -2.4601  0.5953  0.9663
16672TIP3   OH271430   2.161   4.669  14.641 -0.0944  0.2197  0.1916
16672TIP3    H171431   2.097   4.600  14.660 -0.7272  0.7921  0.1540
16672TIP3    H271432   2.112   4.750  14.650  0.0160  0.5852 -2.2054
16673TIP3   OH271433   0.558   0.370   4.787  0.0501 -1.0552 -0.2282
16673TIP3    H171434   0.541   0.443   4.727  1.3898 -0.9288 -0.4558
16673TIP3    H271435   0.653   0.367   4.795 -0.0632 -1.8893  0.8912
16674TIP3   OH271436   3.374   5.786   1.745 -0.1072 -0.3458 -0.6736
16674TIP3    H171437   3.463   5.794   1.711  0.2553 -0.3628  0.2516
16674TIP3    H271438   3.325   5.855   1.700  0.3720 -0.3178 -1.1653
16675TIP3   OH271439   1.083   1.654   2.217  0.1105 -0.1062  0.0417
16675TIP3    H171440   1.034   1.572   2.223 -2.6142  1.4751  0.0900
16675TIP3    H271441   1.060   1.701   2.296  1.1496  0.9820 -0.2966
16676TIP3   OH271442   3.460   0.985   0.397  0.4775  0.1813 -0.0228
16676TIP3    H171443   3.502   1.027   0.321  0.5620 -0.2188 -0.1987
16676TIP3    H271444   3.525   0.991   0.467  0.6594 -0.0463 -0.1718
16677TIP3   OH271445   6.427   0.898  15.491  0.4113  0.3586  0.2574
16677TIP3    H171446   6.415   0.803  15.498 -0.9106  0.6053  1.8309
16677TIP3    H271447   6.436   0.914  15.397  0.7276 -1.3225 -0.0275
16678TIP3   OH271448   1.491   3.239   5.272  0.0569  0.2094 -0.0826
16678TIP3    H171449   1.399   3.263   5.283  0.5261  1.0805  1.9853
16678TIP3    H271450   1.514   3.274   5.186 -0.9848  1.7691  0.2523
16679TIP3   OH271451   0.181   0.857   3.002 -0.4665  0.1586  0.2875
16679TIP3    H171452   0.199   0.841   3.095  0.0296  4.7701  1.1508
16679TIP3    H271453   0.088   0.876   2.998 -0.3591  0.6629  0.0076
16680TIP3   OH271454   3.420   0.253   2.019  0.1042  0.2636 -0.1172
16680TIP3    H171455   3.476   0.285   2.090 -1.5618 -0.7211  1.7087
16680TIP3    H271456   3.367   0.329   1.995  0.7198  0.6204 -0.3658
16681TIP3   OH271457   0.934   5.020   0.805 -0.0209  0.2533 -0.0455
16681TIP3    H171458   0.895   4.952   0.750 -1.3184 -0.8027  2.1292
16681TIP3    H271459   1.026   5.021   0.780 -0.4227 -0.7881 -1.6293
16682TIP3   OH271460   5.298   1.087   5.797 -0.6533  0.4938 -0.0620
16682TIP3    H171461   5.362   1.145   5.756 -1.0139  1.1009  0.2264
16682TIP3    H271462   5.218   1.139   5.801 -0.4829  0.6361  1.8891
16683TIP3   OH271463   2.571   4.695  13.968  0.2145  0.5287  0.1056
16683TIP3    H171464   2.493   4.732  13.927 -0.6199 -0.4297  0.8039
16683TIP3    H271465   2.540   4.616  14.013  1.4941  0.3890  0.7787
16684TIP3   OH271466   0.382   2.221   3.222 -0.1577  1.0349 -0.3787
16684TIP3    H171467   0.312   2.163   3.193 -0.6273  1.3431  0.1433
16684TIP3    H271468   0.455   2.162   3.242 -1.0161  0.5046  1.2879
16685TIP3   OH271469   5.552   0.619   1.081 -0.2648 -0.3539 -0.5657
16685TIP3    H171470   5.469   0.665   1.070 -0.1369 -0.2909 -1.2536
16685TIP3    H271471   5.565   0.572   0.999  1.5176  1.4711 -1.3660
16686TIP3   OH271472   0.276   3.925  13.535 -0.1234 -0.0566 -0.3265
16686TIP3    H171473   0.252   4.009  13.495 -2.5552 -0.3976  0.3619
16686TIP3    H271474   0.305   3.949  13.623  1.3933  0.2655 -0.8876
16687TIP3   OH271475   1.486   1.818   1.285  0.0716  1.1202  0.3965
16687TIP3    H171476   1.532   1.889   1.330  1.7514 -0.4716  1.2460
16687TIP3    H271477   1.503   1.741   1.339 -1.9184  0.0976 -0.3881
16688TIP3   OH271478   6.550   5.777   0.762 -0.1027 -0.4234  0.1227
16688TIP3    H171479   6.569   5.871   0.759  0.3393 -0.5237 -0.2360
16688TIP3    H271480   6.619   5.740   0.816 -1.7198 -0.1997  2.4253
16689TIP3   OH271481   0.215   4.963   4.662 -0.4999  0.2056 -0.7169
16689TIP3    H171482   0.169   4.894   4.711  2.0623 -0.6395  0.6183
16689TIP3    H271483   0.164   5.042   4.678 -1.2709 -0.6171  1.0290
16690TIP3   OH271484   4.718   4.703  16.586  0.5493 -0.0481  0.8292
16690TIP3    H171485   4.709   4.783  16.533  0.5041 -0.7581 -0.2483
16690TIP3    H271486   4.681   4.727  16.671  0.5662  1.0962  0.5282
16691TIP3   OH271487   2.295   3.159  11.219 -0.6512  0.2791 -0.1786
16691TIP3    H171488   2.384   3.124  11.215 -0.5192  0.6293 -0.3217
16691TIP3    H271489   2.246   3.096  11.272 -0.6450 -0.6344 -1.2446
16692TIP3   OH271490   1.288   5.140  13.184  0.5670  0.2475 -0.1853
16692TIP3    H171491   1.346   5.151  13.109 -0.5421  1.7174 -0.8741
16692TIP3    H271492   1.203   5.170  13.152 -0.7582 -2.5441  0.5618
16693TIP3   OH271493   3.106   4.675  17.142 -0.0587 -0.4364  0.3437
16693TIP3    H171494   3.167   4.747  17.160  1.9633 -2.1227  0.4657
16693TIP3    H271495   3.081   4.687  17.051  2.0118 -0.8220 -0.3008
16694TIP3   OH271496   6.715   3.226  11.462 -0.3610  0.7895 -0.1408
16694TIP3    H171497   6.786   3.192  11.408 -1.1488 -1.3240  0.0979
16694TIP3    H271498   6.644   3.243  11.400 -0.6826 -0.0354 -0.0130
16695TIP3   OH271499   4.482   3.311   2.325 -0.6401 -0.2879 -0.1324
16695TIP3    H171500   4.531   3.266   2.258 -0.3211 -0.2353  0.0640
16695TIP3    H271501   4.445   3.242   2.380 -4.7150 -0.5224 -2.9935
16696TIP3   OH271502   5.358   6.032  11.939  0.5240  0.3287  0.0811
16696TIP3    H171503   5.305   5.953  11.942  1.5443 -0.4015 -0.6068
16696TIP3    H271504   5.364   6.055  11.846  0.0641  1.3411  0.2906
16697TIP3   OH271505   6.487   0.431   6.541  0.2335  0.4891 -0.2751
16697TIP3    H171506   6.564   0.386   6.504  0.2349 -1.0405  1.5537
16697TIP3    H271507   6.417   0.412   6.479  1.0692  1.0237 -1.4204
16698TIP3   OH271508   0.209   5.761  13.821  0.2653 -0.4131  0.7121
16698TIP3    H171509   0.296   5.722  13.831 -0.4422 -2.0074  0.9045
16698TIP3    H271510   0.188   5.751  13.728  0.1949 -0.2499  0.7094
16699TIP3   OH271511   5.168   6.316   3.769  0.0872 -0.4889  0.4569
16699TIP3    H171512   5.232   6.258   3.728 -0.5924 -1.0574  0.1913
16699TIP3    H271513   5.085   6.295   3.726 -0.7402 -1.4251  2.4355
16700TIP3   OH271514   3.140   2.966  15.838 -0.1114 -0.3595 -0.2812
16700TIP3    H171515   3.107   2.962  15.928 -0.4654 -0.9862 -0.4394
16700TIP3    H271516   3.070   2.929  15.785  0.4146 -0.7236 -0.7311
16701TIP3   OH271517   1.990   3.265  16.862  0.4196 -0.0124 -0.2316
16701TIP3    H171518   1.928   3.307  16.922  0.0376  1.0555 -1.3466
16701TIP3    H271519   1.961   3.175  16.856  1.1223 -0.4215  2.0437
16702TIP3   OH271520   1.418   3.087   3.052  0.0699  0.0426  0.0245
16702TIP3    H171521   1.497   3.138   3.069 -0.7564  1.0370  0.9422
16702TIP3    H271522   1.405   3.094   2.958  0.4353  0.8390  0.0256
16703TIP3   OH271523   3.791   3.503   0.668 -0.1808  0.0845 -0.3884
16703TIP3    H171524   3.821   3.446   0.739 -0.9894 -0.2347 -0.2980
16703TIP3    H271525   3.760   3.582   0.712 -0.6131 -0.0835 -0.3868
16704TIP3   OH271526   4.536   6.139   4.840  0.0153 -0.1009 -0.1142
16704TIP3    H171527   4.596   6.083   4.889 -0.7721 -0.2532  0.6769
16704TIP3    H271528   4.473   6.171   4.905 -0.3999  0.5517 -0.8226
16705TIP3   OH271529   2.798   5.038   0.034 -0.3045 -0.4275 -0.0153
16705TIP3    H171530   2.771   4.946   0.025  0.1082 -0.4205 -1.2880
16705TIP3    H271531   2.884   5.033   0.076  0.6523 -0.7103 -1.9957
16706TIP3   OH271532   3.921   1.834   2.907 -0.6149 -0.5714 -0.3144
16706TIP3    H171533   3.904   1.843   2.813 -0.3451  0.1726 -0.2913
16706TIP3    H271534   3.837   1.852   2.949 -0.2910  0.9938 -0.3151
16707TIP3   OH271535   6.584   6.227   6.569 -0.1524 -0.8244 -0.1099
16707TIP3    H171536   6.656   6.289   6.557  0.5984 -1.2711  1.8294
16707TIP3    H271537   6.622   6.142   6.546  0.0614 -1.1037  1.2184
16708TIP3   OH271538   5.663   3.278  16.213  0.4893 -0.4539  0.9537
16708TIP3    H171539   5.596   3.309  16.274  0.7120 -0.4684  1.2050
16708TIP3    H271540   5.649   3.331  16.134 -0.9608 -1.7016  0.3662
16709TIP3   OH271541   2.261   5.244  16.816  0.1473  0.3553  0.3387
16709TIP3    H171542   2.234   5.320  16.867  0.0161  0.8338 -0.4496
16709TIP3    H271543   2.354   5.234  16.836 -0.6190 -1.4717  3.2886
16710TIP3   OH271544   1.063   5.059   5.784  0.6091 -0.0118  0.0386
16710TIP3    H171545   1.020   5.144   5.787  1.9754  0.7014 -0.2266
16710TIP3    H271546   1.075   5.041   5.691 -1.2085 -1.2896  0.0404
16711TIP3   OH271547   0.881   4.272  12.009  0.0588 -0.1866 -0.0211
16711TIP3    H171548   0.972   4.242  12.014  0.3198  0.6845  0.6076
16711TIP3    H271549   0.888   4.367  12.000 -0.7894 -0.0993  0.2493
16712TIP3   OH271550   6.660   2.783  14.842  0.1618  0.8091 -0.2594
16712TIP3    H171551   6.737   2.774  14.897  1.0769  0.9431 -1.4914
16712TIP3    H271552   6.671   2.867  14.799  0.0278  0.2083 -1.4951
16713TIP3   OH271553   4.271   1.850  13.641 -0.2081 -0.1134  0.1776
16713TIP3    H171554   4.315   1.783  13.692 -2.1172 -0.6232  1.2001
16713TIP3    H271555   4.340   1.912  13.618  1.3217 -1.6995  0.3736
16714TIP3   OH271556   4.476   3.381  12.232 -0.2596  0.1642  0.1220
16714TIP3    H171557   4.532   3.384  12.310  0.8087  1.5703 -0.6666
16714TIP3    H271558   4.406   3.444  12.251  0.0247  0.5393 -0.0664
16715TIP3   OH271559   2.753   4.045   3.402  0.5788  0.0760 -0.1442
16715TIP3    H171560   2.665   4.051   3.440  1.0121 -1.4185  1.1354
16715TIP3    H271561   2.742   4.078   3.313 -1.4197 -0.6794 -0.2179
16716TIP3   OH271562   3.552   0.859   1.764  0.0716  0.5719 -0.1073
16716TIP3    H171563   3.485   0.877   1.699  0.4497 -1.0796 -0.9674
16716TIP3    H271564   3.634   0.853   1.714  0.5022  0.1986  0.6274
16717TIP3   OH271565   5.298   2.506  14.648 -0.2721  0.0148  0.2096
16717TIP3    H171566   5.239   2.441  14.686 -0.9749  1.1492  1.0741
16717TIP3    H271567   5.360   2.454  14.597 -1.4064 -1.2701  0.0923
16718TIP3   OH271568   0.239   4.862  16.046 -0.1055 -0.8180  0.8764
16718TIP3    H171569   0.282   4.776  16.048  0.2179 -0.6382  2.0114
16718TIP3    H271570   0.178   4.856  15.972  1.7825 -1.0978 -0.7105
16719TIP3   OH271571   0.495   4.754   0.098  0.1151 -0.4481 -0.0289
16719TIP3    H171572   0.579   4.730   0.139  0.5963  0.1555 -0.6544
16719TIP3    H271573   0.516   4.765   0.005 -0.3370  1.2552  0.0552
16720TIP3   OH271574   5.716   0.864   1.807  0.2032 -0.1176  0.3431
16720TIP3    H171575   5.711   0.905   1.720 -0.2546 -2.8422 -0.9612
16720TIP3    H271576   5.633   0.885   1.848  0.1457  0.6060 -0.1221
16721TIP3   OH271577   4.888   3.319   6.267 -0.7697  0.1156 -0.3972
16721TIP3    H171578   4.964   3.374   6.250 -0.9087  0.5902  0.4717
16721TIP3    H271579   4.924   3.239   6.306 -0.7278  0.3832  0.1085
16722TIP3   OH271580   3.636   4.337  17.053 -0.1690  0.1535 -0.2543
16722TIP3    H171581   3.591   4.263  17.013  0.8245 -1.3435  1.3064
16722TIP3    H271582   3.590   4.353  17.135  0.3871  0.4529  0.0077
16723TIP3   OH271583   2.013   0.979   1.478  0.2605  0.2410 -0.0347
16723TIP3    H171584   2.083   0.981   1.413  1.0449 -1.0854  0.7481
16723TIP3    H271585   2.057   0.986   1.562 -0.6504  0.7026  0.4151
16724TIP3   OH271586   0.961   5.781  16.529  0.1341 -0.1668 -0.0439
16724TIP3    H171587   0.901   5.850  16.504  1.2671  0.7735 -0.2056
16724TIP3    H271588   0.986   5.802  16.619  1.3122  0.2399 -0.4617
16725TIP3   OH271589   3.445   4.258  14.368  0.2634 -0.3257 -0.0410
16725TIP3    H171590   3.519   4.197  14.371  0.5035 -0.1322 -1.6665
16725TIP3    H271591   3.398   4.234  14.288 -1.6999 -0.7400  1.1991
16726TIP3   OH271592   2.500   4.849  12.573  0.1204 -0.3154  0.4233
16726TIP3    H171593   2.567   4.810  12.629  1.0144  1.1611  0.4158
16726TIP3    H271594   2.549   4.890  12.502 -0.7808  0.7564  0.4010
16727TIP3   OH271595   2.035   6.122   4.213  0.2080  0.2823 -0.0662
16727TIP3    H171596   2.083   6.093   4.136 -0.0194 -2.2186  0.6876
16727TIP3    H271597   2.081   6.083   4.287 -0.2755  1.6751  1.0097
16728TIP3   OH271598   6.684   5.621   3.335  0.2770  0.0653  0.7243
16728TIP3    H171599   6.649   5.681   3.269  0.3787  0.8019  1.3439
16728TIP3    H271600   6.749   5.569   3.287  0.3271  0.5713  0.2396
16729TIP3   OH271601   4.810   5.550   2.643  0.1358 -0.7768  0.2406
16729TIP3    H171602   4.841   5.615   2.580 -0.1870  0.6632  1.5328
16729TIP3    H271603   4.875   5.551   2.713  0.1271 -1.8569  0.2708
16730TIP3   OH271604   1.616   5.350   5.978 -0.0928 -0.2969  0.0516
16730TIP3    H171605   1.524   5.364   5.955  0.3401  0.5137 -1.1948
16730TIP3    H271606   1.619   5.369   6.072 -1.0020  0.6716 -0.1035
16731TIP3   OH271607   5.712   1.832  16.883  1.0869 -0.3896 -0.5175
16731TIP3    H171608   5.802   1.857  16.864  1.4963 -0.9547  0.6200
16731TIP3    H271609   5.660   1.911  16.868  1.8153  0.0104 -0.9054
16732TIP3   OH271610   4.500   5.856  16.420  0.3571 -0.3190 -0.4105
16732TIP3    H171611   4.465   5.925  16.476  1.1040  0.3004 -0.7019
16732TIP3    H271612   4.550   5.800  16.479  1.8037  0.7751 -0.5843
16733TIP3   OH271613   3.026   3.563  13.120 -0.0407  0.1838  0.2903
16733TIP3    H171614   3.052   3.652  13.143 -1.5954  0.7488 -0.1131
16733TIP3    H271615   2.932   3.568  13.106 -0.0150 -1.3526 -0.5320
16734TIP3   OH271616   3.665   6.347  12.347 -0.0259 -0.0676  0.3304
16734TIP3    H171617   3.594   6.368  12.286 -0.3072  0.0339  0.6879
16734TIP3    H271618   3.724   6.423  12.342 -0.7745  0.5842  1.2309
16735TIP3   OH271619   0.729   3.755  11.069  0.3353 -0.0369 -0.2120
16735TIP3    H171620   0.818   3.769  11.101  0.4529 -0.6238 -0.2769
16735TIP3    H271621   0.739   3.733  10.976  0.1625 -0.5506 -0.1146
16736TIP3   OH271622   0.881   6.352  16.528  0.4008  0.3444 -0.1573
16736TIP3    H171623   0.802   6.371  16.579 -0.0273  1.9956 -1.3645
16736TIP3    H271624   0.950   6.404  16.569  1.0374 -1.5551  1.2623
16737TIP3   OH271625   1.408   2.483  16.547  0.4434  0.7299  0.2482
16737TIP3    H171626   1.433   2.482  16.454  0.8696  0.8204  0.3577
16737TIP3    H271627   1.442   2.401  16.581 -1.7439 -0.3811 -0.1867
16738TIP3   OH271628   3.296   1.210   4.471 -0.2434 -0.4148 -0.2082
16738TIP3    H171629   3.203   1.186   4.472 -0.9345  1.9757 -2.9750
16738TIP3    H271630   3.335   1.152   4.406 -0.2258  0.1225 -0.6733
16739TIP3   OH271631   2.722   5.961   2.509 -0.0211  0.0194 -0.4082
16739TIP3    H171632   2.766   5.883   2.475 -0.9329  0.0014 -1.5560
16739TIP3    H271633   2.776   6.034   2.479  0.1897 -0.0959 -0.3132
16740TIP3   OH271634   5.884   0.777  10.354 -0.0103  0.1743 -0.6557
16740TIP3    H171635   5.873   0.763  10.448  2.5920 -1.1310 -0.5138
16740TIP3    H271636   5.796   0.798  10.323 -0.9321  0.4967  2.0400
16741TIP3   OH271637   1.030   2.515  13.978  0.5619 -0.1769 -0.4482
16741TIP3    H171638   1.124   2.515  13.960  0.7042 -2.8473 -0.0521
16741TIP3    H271639   1.021   2.563  14.060  1.4403  1.1378 -1.1189
16742TIP3   OH271640   0.043   3.326   0.165  0.4437  0.5195  0.4623
16742TIP3    H171641  -0.008   3.407   0.176 -0.9483 -0.1586 -0.8522
16742TIP3    H271642   0.106   3.347   0.097  0.7896  0.8225  0.8721
16743TIP3   OH271643   5.816   4.411  15.925  0.2058 -0.4634  0.2990
16743TIP3    H171644   5.750   4.472  15.958  0.0107 -0.6497  0.2557
16743TIP3    H271645   5.849   4.367  16.003  0.2435 -0.4046  0.3172
16744TIP3   OH271646   0.099   3.301  11.715 -0.1286 -0.1184  0.0149
16744TIP3    H171647   0.138   3.364  11.655 -1.1108 -0.4590 -0.9970
16744TIP3    H271648   0.123   3.215  11.680 -1.3681 -0.3245 -0.3515
16745TIP3   OH271649   0.640   5.394  14.455  0.5020  0.1991  0.5781
16745TIP3    H171650   0.585   5.408  14.377  0.8468 -0.4838  0.2055
16745TIP3    H271651   0.653   5.299  14.457  0.2018  0.1785  1.6718
16746TIP3   OH271652   3.391   4.015  12.231  0.1367 -0.5307 -0.3148
16746TIP3    H171653   3.332   3.940  12.242  0.0554 -0.5136 -0.6443
16746TIP3    H271654   3.443   3.994  12.153  0.6912 -0.6264  0.0729
16747TIP3   OH271655   6.443   4.990  13.818 -0.3157 -0.4396 -0.4588
16747TIP3    H171656   6.393   5.065  13.786  2.0112  0.8773 -1.1518
16747TIP3    H271657   6.436   4.925  13.748 -1.4139 -0.4250 -0.3620
16748TIP3   OH271658   4.892   2.081   0.304 -0.1420  0.2843 -0.3616
16748TIP3    H171659   4.812   2.091   0.356 -0.3309 -1.0274 -0.3863
16748TIP3    H271660   4.862   2.048   0.220  0.4332 -0.2323 -0.3637
16749TIP3   OH271661   2.082   6.677   3.992  0.2274  0.1712 -0.3575
16749TIP3    H171662   2.169   6.692   3.955  1.3553 -0.2471  2.0199
16749TIP3    H271663   2.090   6.703   4.084 -1.9265 -0.6951  0.1096
16750TIP3   OH271664   6.414   3.618   2.196  0.1572 -0.1219 -0.8872
16750TIP3    H171665   6.463   3.653   2.270  1.4753 -0.4075 -1.5911
16750TIP3    H271666   6.332   3.667   2.195 -0.7035 -1.3814  1.8585
16751TIP3   OH271667   5.365   1.155  13.532  0.1442 -0.0038  0.3638
16751TIP3    H171668   5.291   1.110  13.571 -1.0563  1.5941 -0.0344
16751TIP3    H271669   5.329   1.201  13.456  1.7723 -0.1764 -0.5505
16752TIP3   OH271670   6.611   2.624   0.160  0.1954 -1.1042  0.2992
16752TIP3    H171671   6.558   2.700   0.135  0.6971 -1.2094 -1.1805
16752TIP3    H271672   6.594   2.612   0.253  0.3204  0.9982  0.6182
16753TIP3   OH271673   0.165   4.936  11.754  0.5304 -0.4547 -0.0116
16753TIP3    H171674   0.180   4.941  11.849  2.1554  0.2909 -0.2855
16753TIP3    H271675   0.236   4.989  11.716  1.3230 -2.7119 -1.7613
16754TIP3   OH271676   4.441   4.777  15.840  0.1994 -0.7947  0.1492
16754TIP3    H171677   4.391   4.832  15.901  0.8421  0.1171 -0.1511
16754TIP3    H271678   4.383   4.703  15.822 -0.9212  0.0979  0.0539
16755TIP3   OH271679   4.807   2.080  12.333  0.0195 -0.1373  0.0853
16755TIP3    H171680   4.725   2.125  12.310 -0.3580 -0.7004  0.3108
16755TIP3    H271681   4.875   2.147  12.324 -0.5405  0.4785  0.4332
16756TIP3   OH271682   2.891   6.505   3.804  0.1774  0.0944  0.3990
16756TIP3    H171683   2.797   6.512   3.823  0.5202 -1.0010  2.7392
16756TIP3    H271684   2.910   6.580   3.748 -1.7702  1.2734  1.2605
16757TIP3   OH271685   5.323   1.753  15.201 -0.5635  0.2895  0.4599
16757TIP3    H171686   5.316   1.698  15.122 -0.7628  1.6366 -0.4895
16757TIP3    H271687   5.234   1.784  15.216 -0.1862  1.5916  0.0613
16758TIP3   OH271688   5.120   3.166  11.523 -0.5240 -0.8673  0.8197
16758TIP3    H171689   5.163   3.138  11.442 -1.0129 -1.0620  0.6255
16758TIP3    H271690   5.055   3.098  11.540 -1.3672 -0.1118  0.6278
16759TIP3   OH271691   0.840   1.398   0.446  0.2485  0.0676  0.1775
16759TIP3    H171692   0.805   1.310   0.429  0.7539  0.0073 -0.5793
16759TIP3    H271693   0.783   1.457   0.397  0.3073  0.1019  0.1504
16760TIP3   OH271694   2.894   3.953  16.293  0.1546  0.4857 -0.0380
16760TIP3    H171695   2.821   3.902  16.257 -0.6661  1.7042 -0.1251
16760TIP3    H271696   2.949   3.888  16.337 -0.5046 -0.5758 -0.7555
16761TIP3   OH271697   6.778   1.157   5.601  0.2727  0.0714  0.4747
16761TIP3    H171698   6.874   1.153   5.607  0.1946 -0.2691  1.6485
16761TIP3    H271699   6.747   1.109   5.678 -0.8539 -0.9688 -0.5977
16762TIP3   OH271700   5.720   4.938  16.720  0.2299 -0.2401  0.5134
16762TIP3    H171701   5.635   4.981  16.714 -0.1453 -1.0568 -0.2152
16762TIP3    H271702   5.700   4.849  16.748  0.4418 -1.6138 -3.4104
16763TIP3   OH271703   3.657   1.147  16.503 -0.4679 -0.4006  0.2909
16763TIP3    H171704   3.669   1.075  16.564  0.4594  0.6840  1.4306
16763TIP3    H271705   3.588   1.200  16.543 -1.0234 -0.5667 -0.4516
16764TIP3   OH271706   0.425   0.390  16.808 -0.5000 -0.4921  0.1303
16764TIP3    H171707   0.498   0.453  16.802  0.3318 -1.4199  0.4171
16764TIP3    H271708   0.373   0.407  16.729 -0.0592  0.2812 -0.0053
16765TIP3   OH271709   0.571   4.982  16.053 -0.3297  0.4632 -0.6186
16765TIP3    H171710   0.477   4.965  16.041 -0.5464 -0.3575  1.8975
16765TIP3    H271711   0.614   4.923  15.991 -1.4254 -1.0239  0.0036
16766TIP3   OH271712   0.431   5.979  12.935 -0.2847 -0.1804 -0.1932
16766TIP3    H171713   0.377   6.054  12.908  2.1427  1.2653 -1.1529
16766TIP3    H271714   0.509   5.985  12.881  2.1713 -0.5649  3.1888
16767TIP3   OH271715   4.466   0.587  14.484  0.4095 -0.0803 -0.1190
16767TIP3    H171716   4.457   0.492  14.491 -2.6411  0.1769  0.0344
16767TIP3    H271717   4.401   0.613  14.420  1.7591  1.8541 -0.7423
16768TIP3   OH271718   4.302   4.553  10.416  0.2090 -0.1413 -0.6095
16768TIP3    H171719   4.286   4.609  10.492 -2.8424  1.5126 -2.3600
16768TIP3    H271720   4.283   4.464  10.447 -0.7053  0.4793  0.6374
16769TIP3   OH271721   4.040   6.645   0.016 -0.2337  0.3754 -0.5946
16769TIP3    H171722   4.091   6.678   0.090 -1.6602 -0.2859  0.7212
16769TIP3    H271723   3.962   6.700   0.014  0.4461  1.3212 -2.5328
16770TIP3   OH271724   2.374   0.292   2.914 -0.0732 -0.5515  0.2467
16770TIP3    H171725   2.284   0.301   2.944 -0.6974  0.8818 -1.9440
16770TIP3    H271726   2.367   0.253   2.827  1.3944 -0.0753 -0.0967
16771TIP3   OH271727   4.651   2.734   2.375  0.2781 -0.8506 -0.3402
16771TIP3    H171728   4.639   2.690   2.460 -0.0669 -1.5142 -0.7274
16771TIP3    H271729   4.572   2.786   2.363  1.7072  1.7784  1.2189
16772TIP3   OH271730   0.348   2.031   3.445 -0.5893 -0.3023  0.3366
16772TIP3    H171731   0.367   2.058   3.535 -0.8997  1.5591 -0.1446
16772TIP3    H271732   0.433   2.003   3.410 -0.1339  0.7268  0.6135
16773TIP3   OH271733   4.575   5.891  15.622 -0.3867  0.3044  0.2489
16773TIP3    H171734   4.636   5.847  15.681 -1.0024  0.8182  1.2917
16773TIP3    H271735   4.616   5.975  15.603  0.6100 -0.5284 -1.4389
16774TIP3   OH271736   0.841   2.468   1.603  0.3477 -0.0478  0.0491
16774TIP3    H171737   0.926   2.498   1.636  0.7270  1.1223 -1.8772
16774TIP3    H271738   0.792   2.444   1.681  2.3749 -0.5390  1.2044
16775TIP3   OH271739   0.335   0.862   4.559 -0.2235 -0.2381 -0.2536
16775TIP3    H171740   0.296   0.912   4.631 -0.5913 -1.0516  0.1238
16775TIP3    H271741   0.274   0.874   4.486 -0.6381 -0.6436  0.0221
16776TIP3   OH271742   4.742   0.554   3.125 -0.2839 -0.1149 -0.3610
16776TIP3    H171743   4.815   0.496   3.148 -0.7016  0.2963  2.1087
16776TIP3    H271744   4.710   0.587   3.209 -2.5023  0.7143 -1.4981
16777TIP3   OH271745   4.008   5.927  16.090  0.5977  0.1865  0.2268
16777TIP3    H171746   3.994   5.908  15.997 -2.8437 -0.3422  0.7959
16777TIP3    H271747   3.995   6.022  16.098 -0.4739  0.0325  0.3773
16778TIP3   OH271748   6.393   0.442   5.272  0.1270  0.3710 -0.3871
16778TIP3    H171749   6.394   0.403   5.360 -0.3131  0.6252 -0.2673
16778TIP3    H271750   6.302   0.437   5.244  0.0688  1.2636 -0.3898
16779TIP3   OH271751   0.364   1.915  17.023 -0.6108 -0.6307  0.3799
16779TIP3    H171752   0.279   1.958  17.011 -1.2984 -2.0222  0.1531
16779TIP3    H271753   0.355   1.831  16.978  0.6803 -1.0519  0.8784
16780TIP3   OH271754   4.707   0.908  11.963  0.2028  0.4078  0.0328
16780TIP3    H171755   4.754   0.986  11.934  1.9468 -0.2629  1.0000
16780TIP3    H271756   4.640   0.941  12.022 -0.7452  1.3956 -1.5345
16781TIP3   OH271757   4.804   3.062   4.926  0.2090 -0.1937 -0.2260
16781TIP3    H171758   4.730   3.114   4.957 -0.1291 -0.4830 -0.5436
16781TIP3    H271759   4.790   3.056   4.831  1.0208  0.3534 -0.3843
16782TIP3   OH271760   5.203   1.663   4.289  0.2403 -0.1657 -0.0047
16782TIP3    H171761   5.154   1.606   4.348 -0.2629  0.6918  0.4240
16782TIP3    H271762   5.207   1.747   4.335  1.2125  0.0602 -0.5032
16783TIP3   OH271763   4.039   4.865   4.344  0.3758 -0.1386 -0.4147
16783TIP3    H171764   3.956   4.851   4.391 -0.3512  0.2012 -1.5571
16783TIP3    H271765   4.094   4.913   4.405 -0.0314 -0.9586  0.6062
16784TIP3   OH271766   0.581   1.445   1.909 -0.2204  0.3790  0.1431
16784TIP3    H171767   0.656   1.496   1.939  0.2552 -0.7615  0.9114
16784TIP3    H271768   0.597   1.431   1.816 -1.1242  2.9390 -0.4340
16785TIP3   OH271769   2.736   5.194   4.475 -0.0611 -0.7678  0.3050
16785TIP3    H171770   2.744   5.176   4.382 -0.0373 -0.3017  0.2157
16785TIP3    H271771   2.815   5.156   4.514  1.6123  1.9826 -0.3041
16786TIP3   OH271772   4.856   4.299  11.333 -0.2377 -0.0962 -0.6367
16786TIP3    H171773   4.872   4.378  11.281 -3.3788  1.3897  0.4808
16786TIP3    H271774   4.873   4.326  11.423 -0.6459 -0.8862 -0.3143
16787TIP3   OH271775   2.319   5.057  14.068  0.0599  0.1214  0.2917
16787TIP3    H171776   2.356   5.032  13.983  1.2745  2.3890  0.0908
16787TIP3    H271777   2.382   5.026  14.132 -0.5312 -1.0144  0.3258
16788TIP3   OH271778   5.260   3.413   0.137 -0.1434  0.2655 -0.6648
16788TIP3    H171779   5.308   3.494   0.120  1.0560 -0.7232 -2.2119
16788TIP3    H271780   5.328   3.346   0.140 -1.0939 -0.6390  0.9324
16789TIP3   OH271781   0.191   6.580  16.242 -0.3249 -0.1685  0.7142
16789TIP3    H171782   0.235   6.661  16.215 -1.6315  0.7375  1.2859
16789TIP3    H271783   0.257   6.511  16.227  0.1565  0.7400 -1.5447
16790TIP3   OH271784   5.209   1.406  17.075 -0.7871  0.2203 -0.1361
16790TIP3    H171785   5.236   1.435  17.162 -0.1669  0.9525 -0.5628
16790TIP3    H271786   5.243   1.317  17.068  0.5254  0.7098 -0.2146
16791TIP3   OH271787   6.329   1.548  13.726  0.0606  0.3259  0.1200
16791TIP3    H171788   6.266   1.567  13.657 -1.0080 -1.1819  0.6648
16791TIP3    H271789   6.401   1.610  13.711 -1.0705  1.3465 -1.1249
16792TIP3   OH271790   2.188   1.746   1.216 -0.0716 -0.4320 -0.3680
16792TIP3    H171791   2.160   1.807   1.283  1.6526  0.9963 -0.9275
16792TIP3    H271792   2.198   1.662   1.262  0.8963  0.4803  1.1058
16793TIP3   OH271793   6.288   1.495  16.362  0.0740 -0.2207  0.0316
16793TIP3    H171794   6.284   1.520  16.454  2.7663  0.6756 -0.0451
16793TIP3    H271795   6.366   1.539  16.329 -0.9090 -0.4542 -2.7115
16794TIP3   OH271796   0.724   5.392   3.292  0.1623 -0.2329  0.5456
16794TIP3    H171797   0.787   5.439   3.238 -0.8693 -0.5563 -0.9891
16794TIP3    H271798   0.751   5.301   3.287  0.4793 -0.1735  1.1619
16795TIP3   OH271799   1.387   4.565   4.341 -0.2960 -0.0839 -0.0099
16795TIP3    H171800   1.393   4.633   4.274  0.9376 -0.7398 -0.6002
16795TIP3    H271801   1.296   4.568   4.370 -0.0247  2.4714  0.7022
16796TIP3   OH271802   3.823   3.544   4.024 -0.0197  0.2749  0.7901
16796TIP3    H171803   3.761   3.588   4.082 -1.3606 -0.4420 -0.0921
16796TIP3    H271804   3.781   3.461   4.002  0.9121  0.1191 -0.4326
16797TIP3   OH271805   1.724   5.959  14.751  0.2304 -0.7108  0.4835
16797TIP3    H171806   1.708   5.982  14.843  0.0073  0.3674  0.1885
16797TIP3    H271807   1.726   6.043  14.706  1.2738 -1.1775 -0.3603
16798TIP3   OH271808   0.561   5.715  15.800 -0.0761 -0.2630 -0.0418
16798TIP3    H171809   0.594   5.637  15.845  0.4213 -0.4574 -0.7248
16798TIP3    H271810   0.565   5.784  15.866 -0.2638 -0.7566  0.4901
16799TIP3   OH271811   1.242   3.886  11.758  0.5056  0.0002  0.4765
16799TIP3    H171812   1.337   3.890  11.749  0.4972  1.5036  0.9461
16799TIP3    H271813   1.225   3.799  11.795  1.6990 -0.2541  0.4490
16800TIP3   OH271814   5.798   2.432  17.012  0.0677 -0.2734 -0.6781
16800TIP3    H171815   5.729   2.419  17.078 -0.3700 -2.8233 -1.6100
16800TIP3    H271816   5.877   2.447  17.063 -0.5949 -0.4722  0.4245
16801TIP3   OH271817   6.540   2.773  17.129  0.1630  0.6084 -0.2938
16801TIP3    H171818   6.589   2.855  17.128  2.5185 -0.7489  0.9246
16801TIP3    H271819   6.582   2.719  17.062 -1.2634  0.2995 -0.9685
16802TIP3   OH271820   5.045   4.132  13.113  0.3022 -0.0552 -0.1552
16802TIP3    H171821   4.953   4.158  13.110  0.6981  1.4636  0.3406
16802TIP3    H271822   5.047   4.060  13.176 -0.5638 -0.2185 -0.3018
16803TIP3   OH271823   1.704   6.276   3.939 -0.1960 -0.2646 -0.3912
16803TIP3    H171824   1.734   6.290   3.849 -1.1169  1.2554 -0.4728
16803TIP3    H271825   1.663   6.359   3.964  0.6002 -0.4642  1.6583
16804TIP3   OH271826   1.440   5.355   5.473  0.0361 -0.3496  0.0152
16804TIP3    H171827   1.367   5.299   5.499 -0.0451 -0.9490 -1.4194
16804TIP3    H271828   1.518   5.302   5.489 -0.0915 -1.2514 -2.1842
16805TIP3   OH271829   5.755   1.167  16.293 -0.3514 -0.3437 -0.0547
16805TIP3    H171830   5.833   1.173  16.349  0.2292  1.1783 -0.9996
16805TIP3    H271831   5.740   1.256  16.263 -1.8780 -0.7981 -0.6976
16806TIP3   OH271832   1.501   5.590   1.572 -0.0018  0.1803 -0.0411
16806TIP3    H171833   1.472   5.672   1.612 -2.4083  0.0124 -1.3408
16806TIP3    H271834   1.426   5.530   1.582  1.3687 -1.5741  0.0524
16807TIP3   OH271835   1.072   4.410  14.269  0.3632  0.0299  1.0714
16807TIP3    H171836   1.149   4.357  14.290 -0.5157 -0.8394  2.2066
16807TIP3    H271837   1.025   4.359  14.204  0.7660  0.5800  0.3466
16808TIP3   OH271838   1.201   6.447   2.614 -0.2427 -0.5432 -0.3072
16808TIP3    H171839   1.273   6.407   2.565 -0.2261  1.7280 -2.2514
16808TIP3    H271840   1.167   6.514   2.555 -1.8356  0.6204  1.8746
16809TIP3   OH271841   3.630   1.601   3.232  0.2307 -0.6448  0.2220
16809TIP3    H171842   3.686   1.679   3.230 -1.2428  0.4925  1.7190
16809TIP3    H271843   3.588   1.600   3.146 -0.8723  1.1078  0.7023
16810TIP3   OH271844   6.095   0.799  16.763 -0.1928  0.3931 -0.5845
16810TIP3    H171845   6.100   0.861  16.690  0.2534  2.0223  0.8025
16810TIP3    H271846   6.158   0.831  16.827 -2.0362  0.1776  1.4124
16811TIP3   OH271847   5.973   1.571  15.557 -0.1685 -0.4895  0.0330
16811TIP3    H171848   6.033   1.605  15.490  0.6597 -0.6573  0.6860
16811TIP3    H271849   6.000   1.480  15.570 -0.9119 -0.7270 -0.0566
16812TIP3   OH271850   6.548   4.420  16.676  0.2899 -0.3569  0.7108
16812TIP3    H171851   6.610   4.347  16.675  0.9503  0.2043 -0.1118
16812TIP3    H271852   6.575   4.475  16.602 -1.2824 -0.1791  0.2497
16813TIP3   OH271853   1.191   2.975  10.587  0.1903 -0.2065  0.2584
16813TIP3    H171854   1.193   2.931  10.672 -2.5510  0.0695  0.4992
16813TIP3    H271855   1.118   2.934  10.540  1.6797 -0.3670 -1.9788
16814TIP3   OH271856   5.990   5.924   2.233 -0.1462  0.0134  0.6768
16814TIP3    H171857   5.902   5.945   2.264 -0.4398 -0.4226  0.1571
16814TIP3    H271858   6.046   5.939   2.308 -0.3130  2.8312  0.2946
16815TIP3   OH271859   1.988   3.052  15.182  0.5125 -0.2905 -0.1249
16815TIP3    H171860   2.042   3.024  15.256 -0.4249 -2.6035 -0.2474
16815TIP3    H271861   2.019   2.998  15.109 -1.8661 -1.5794 -0.2101
16816TIP3   OH271862   3.424   6.302  14.015 -0.3332 -0.2706  0.2519
16816TIP3    H171863   3.385   6.267  14.095  2.0229 -0.9219  1.1798
16816TIP3    H271864   3.488   6.236  13.989  1.1489  1.3714 -0.3850
16817TIP3   OH271865   0.827   6.542   3.502 -0.0130 -0.2427  0.2798
16817TIP3    H171866   0.855   6.569   3.415 -0.8936  0.0200  0.0745
16817TIP3    H271867   0.822   6.446   3.497 -1.2608 -0.1549 -0.3300
16818TIP3   OH271868   6.340   2.288   5.841  0.0620  0.7002  0.9574
16818TIP3    H171869   6.379   2.372   5.867  1.9170  0.1524  0.0358
16818TIP3    H271870   6.287   2.308   5.764  2.0318  0.7145 -0.4174
16819TIP3   OH271871   6.612   6.672  10.859 -0.7381 -0.0014 -0.3770
16819TIP3    H171872   6.534   6.620  10.840  0.6414 -1.9073 -0.8848
16819TIP3    H271873   6.653   6.687  10.773  0.0151  0.1172 -0.0005
16820TIP3   OH271874   3.274   4.689   6.829  0.2424 -0.9703 -1.0627
16820TIP3    H171875   3.355   4.740   6.819 -0.1619 -0.3823 -1.3265
16820TIP3    H271876   3.208   4.739   6.782 -0.1997 -1.6479 -1.1676
16821TIP3   OH271877   4.921   1.849  14.066  0.0103 -0.1591  0.3600
16821TIP3    H171878   4.851   1.901  14.104  0.5646  0.5059  0.4834
16821TIP3    H271879   4.952   1.793  14.138 -0.3029 -0.3603  0.3396
16822TIP3   OH271880   1.904   4.302   5.206  0.3483  0.4556 -0.0906
16822TIP3    H171881   1.916   4.390   5.171 -1.2651 -0.0895 -2.1613
16822TIP3    H271882   1.833   4.311   5.269 -0.5116  0.4871 -1.0441
16823TIP3   OH271883   4.375   1.256  17.089  0.5055 -0.0778 -0.3467
16823TIP3    H171884   4.448   1.229  17.145 -0.2445 -2.4102 -0.4045
16823TIP3    H271885   4.300   1.206  17.123 -0.7340  1.1900 -1.1923
16824TIP3   OH271886   4.758   2.706  16.424  0.0442  0.0984  0.0415
16824TIP3    H171887   4.688   2.642  16.426  1.9826 -2.0853 -0.2724
16824TIP3    H271888   4.726   2.775  16.365 -0.9339 -1.9112 -1.8337
16825TIP3   OH271889   1.383   1.973  11.720  0.9897 -0.0965  0.2648
16825TIP3    H171890   1.378   2.022  11.802  0.0385 -0.3932  0.3979
16825TIP3    H271891   1.469   1.932  11.721  1.7290  1.4326  0.2274
16826TIP3   OH271892   3.998   1.136  15.428  0.4717  0.4097  0.1997
16826TIP3    H171893   3.945   1.181  15.362  0.8249 -0.0815 -0.4183
16826TIP3    H271894   3.961   1.048  15.434 -0.4009  0.8532  1.6213
16827TIP3   OH271895   6.261   0.437  11.017  0.0804 -0.2420  0.9435
16827TIP3    H171896   6.287   0.356  11.062 -0.0796 -1.2874 -0.7978
16827TIP3    H271897   6.333   0.497  11.034  2.0204 -1.9679 -0.8486
16828TIP3   OH271898   5.568   5.380   0.724  0.3424 -0.2202 -0.0476
16828TIP3    H171899   5.619   5.459   0.705 -0.7994  0.7088  0.6061
16828TIP3    H271900   5.575   5.370   0.819 -2.6382  1.3521  0.4075
16829TIP3   OH271901   2.534   0.693   4.696 -0.5154  0.3478 -0.2259
16829TIP3    H171902   2.464   0.753   4.721 -3.4465 -2.3226 -1.6616
16829TIP3    H271903   2.583   0.678   4.778 -1.7921  1.9987  0.8769
16830TIP3   OH271904   6.039   6.658   1.444  0.3494  0.0112 -0.3961
16830TIP3    H171905   6.040   6.753   1.436 -0.6245 -0.1239 -2.5810
16830TIP3    H271906   6.116   6.637   1.497  0.7383  1.9901 -0.1545
16831TIP3   OH271907   4.556   2.536  16.684  0.0023  0.0042 -0.8315
16831TIP3    H171908   4.610   2.467  16.723  0.1845  0.1009 -0.9077
16831TIP3    H271909   4.494   2.490  16.628 -0.2712 -0.1351 -0.4111
16832TIP3   OH271910   1.620   2.735  11.882  0.0097 -1.0174  0.2088
16832TIP3    H171911   1.556   2.792  11.925  0.6291 -0.8148  0.8665
16832TIP3    H271912   1.587   2.726  11.792  0.9526  2.0548 -0.5143
16833TIP3   OH271913   3.936   1.752   6.068 -0.5519  0.5745 -0.1052
16833TIP3    H171914   3.947   1.657   6.065 -1.1752  0.4744  0.5640
16833TIP3    H271915   3.937   1.774   6.162 -2.2003  0.9957 -0.1602
16834TIP3   OH271916   1.811   6.497  10.547 -0.3053  0.1750 -0.2749
16834TIP3    H171917   1.764   6.573  10.582 -0.9139 -0.3501  0.0598
16834TIP3    H271918   1.875   6.477  10.615 -1.7086 -1.0502  0.7279
16835TIP3   OH271919   3.519   5.816  16.133  0.3666 -0.5043 -0.3171
16835TIP3    H171920   3.563   5.796  16.050  0.2202 -1.2841 -0.2115
16835TIP3    H271921   3.567   5.890  16.169  1.0318 -0.7838 -0.6352
16836TIP3   OH271922   5.164   3.575   4.724 -0.2407 -0.0065 -0.3025
16836TIP3    H171923   5.144   3.571   4.817  2.7872 -0.4085  0.3711
16836TIP3    H271924   5.132   3.661   4.696  1.2104  1.1947  1.6890
16837TIP3   OH271925   3.466   4.583  14.859  0.2750 -0.2233 -0.2110
16837TIP3    H171926   3.465   4.670  14.900  0.7395  0.1642 -1.0004
16837TIP3    H271927   3.552   4.547  14.881  0.2262 -0.3333 -0.1997
16838TIP3   OH271928   0.414   3.659   1.834  0.8069  0.2459  0.1469
16838TIP3    H171929   0.338   3.623   1.880  1.2862 -1.4518 -0.3682
16838TIP3    H271930   0.415   3.752   1.859  0.1552 -0.2958  2.3078
16839TIP3   OH271931   1.638   2.958   4.170 -0.0632 -0.3875  0.2012
16839TIP3    H171932   1.723   2.954   4.127  0.6237  2.6453  1.1496
16839TIP3    H271933   1.576   2.975   4.098  0.8440  2.7545  0.0811
16840TIP3   OH271934   3.714   1.195  14.563  0.6923  0.0474 -0.2165
16840TIP3    H171935   3.673   1.280  14.547 -0.0967 -0.4120 -0.6644
16840TIP3    H271936   3.796   1.199  14.514  0.6664  0.5490 -0.2254
16841TIP3   OH271937   6.440   0.283  17.091 -0.0124 -0.0013 -0.4404
16841TIP3    H171938   6.368   0.345  17.087 -0.1467 -0.1823 -0.9015
16841TIP3    H271939   6.505   0.325  17.147  0.6891  1.3930 -2.2565
16842TIP3   OH271940   6.618   2.715  13.607 -0.4471  0.0744 -0.5349
16842TIP3    H171941   6.650   2.700  13.696 -1.6369 -0.7472 -0.2357
16842TIP3    H271942   6.688   2.682  13.550  0.2491  0.4644  0.0833
16843TIP3   OH271943   2.886   6.007  16.494  0.2153 -0.3966  0.2136
16843TIP3    H171944   2.937   5.986  16.416  0.5809  1.1849  0.0201
16843TIP3    H271945   2.802   6.038  16.461  0.3723  0.2794  0.4333
16844TIP3   OH271946   5.394   5.650  14.256  0.4026  0.3253 -0.2015
16844TIP3    H171947   5.482   5.667  14.221  0.2539  1.5000 -0.0485
16844TIP3    H271948   5.363   5.736  14.284 -0.6655 -0.1370  0.0648
16845TIP3   OH271949   2.312   5.448  14.652  0.2701 -0.9059  0.2223
16845TIP3    H171950   2.385   5.493  14.609  0.0900  0.3619  1.2105
16845TIP3    H271951   2.245   5.441  14.584  0.7801 -0.8155 -0.2992
16846TIP3   OH271952   3.193   6.500  12.006 -0.4163  0.1088  0.0806
16846TIP3    H171953   3.154   6.562  11.945 -2.3062 -1.0270  0.0952
16846TIP3    H271954   3.169   6.532  12.093 -1.1453 -0.4618  0.0965
16847TIP3   OH271955   0.045   1.031   6.070  0.2546 -0.7432 -0.5065
16847TIP3    H171956   0.137   1.008   6.085  0.4388  0.1865 -0.2270
16847TIP3    H271957   0.045   1.126   6.064 -0.4551 -0.8269 -2.0881
16848TIP3   OH271958   4.220   1.740   5.029 -0.0449  0.0439  0.1213
16848TIP3    H171959   4.196   1.671   4.967  0.5456  0.5328 -0.6579
16848TIP3    H271960   4.250   1.693   5.107  1.6809 -0.6169 -0.9103
16849TIP3   OH271961   6.599   4.262   0.242 -0.4126  0.4175  0.2591
16849TIP3    H171962   6.691   4.272   0.218 -0.3590  0.3878  0.4522
16849TIP3    H271963   6.585   4.326   0.312 -0.5419  0.4323  0.2213
16850TIP3   OH271964   0.166   1.443  14.198 -0.3650  0.0019 -0.2879
16850TIP3    H171965   0.096   1.508  14.205 -0.8030 -0.4990  0.0890
16850TIP3    H271966   0.121   1.359  14.214  0.1219 -0.4170 -1.1231
16851TIP3   OH271967   5.414   0.054  11.284  0.2854  0.4492 -0.2410
16851TIP3    H171968   5.397   0.068  11.190  2.2840 -0.1185 -0.6982
16851TIP3    H271969   5.492  -0.001  11.287 -0.5940 -0.7574  1.7569
16852TIP3   OH271970   0.929   2.742   4.994  0.2441  0.1292 -0.3779
16852TIP3    H171971   0.897   2.785   5.073 -2.4062  3.7240 -3.2482
16852TIP3    H271972   0.870   2.668   4.982  1.2573 -1.0197  1.4596
16853TIP3   OH271973   0.678   2.687  15.481 -0.3729  0.1476  0.3415
16853TIP3    H171974   0.726   2.621  15.432 -1.8198 -0.8811  0.2654
16853TIP3    H271975   0.734   2.764  15.480  0.6195 -0.5763 -0.9673
16854TIP3   OH271976   0.372   6.457  15.415  0.0227 -0.5677 -0.2190
16854TIP3    H171977   0.286   6.454  15.457  0.4711 -1.2961  0.6638
16854TIP3    H271978   0.357   6.419  15.328 -1.2260  2.2994 -1.3309
16855TIP3   OH271979   0.921   5.684   6.053 -0.1763  0.3776 -0.3579
16855TIP3    H171980   0.907   5.666   6.146 -0.7453  0.5859 -0.3996
16855TIP3    H271981   1.010   5.654   6.036  0.1528  0.9003  0.4000
16856TIP3   OH271982   1.633   5.640  13.264 -0.3734  0.4970  0.1131
16856TIP3    H171983   1.585   5.572  13.312 -0.9675  2.0720  1.7913
16856TIP3    H271984   1.724   5.610  13.267 -0.8260 -1.0199 -0.5451
16857TIP3   OH271985   6.004   5.884   4.050  0.1852 -0.3043  0.1492
16857TIP3    H171986   6.037   5.853   4.134  1.3005  0.0393 -0.1572
16857TIP3    H271987   5.989   5.804   4.000  1.2279 -0.4368  0.0409
16858TIP3   OH271988   4.977   0.620  15.397 -0.1650  0.2933 -0.1261
16858TIP3    H171989   4.962   0.553  15.330 -3.0131  0.5188  0.2398
16858TIP3    H271990   4.913   0.601  15.465  0.4420  2.1035  0.9938
16859TIP3   OH271991   2.429   2.236   2.504  0.2682 -0.1431 -0.1148
16859TIP3    H171992   2.389   2.299   2.444  0.6184 -0.9490 -1.2187
16859TIP3    H271993   2.367   2.228   2.576 -0.7545 -0.0818 -0.9736
16860TIP3   OH271994   1.560   4.445   5.632 -0.2371 -0.2746  0.0824
16860TIP3    H171995   1.485   4.392   5.604 -1.9783  1.3997  1.4821
16860TIP3    H271996   1.528   4.536   5.628  2.7868  0.7851 -2.6210
16861TIP3   OH271997   2.173   3.409   2.228  0.2085  0.1400  0.2980
16861TIP3    H171998   2.189   3.345   2.158 -0.2750  0.4658 -0.1189
16861TIP3    H271999   2.239   3.390   2.294  0.3138 -0.5415  0.0012
16862TIP3   OH272000   4.939   1.297  13.587 -0.5225 -0.5877 -0.1757
16862TIP3    H172001   5.018   1.273  13.538 -0.5066 -2.4584  0.7317
16862TIP3    H272002   4.868   1.288  13.524 -0.4129 -2.2530 -0.0890
16863TIP3   OH272003   2.531   1.426   4.819  0.1057  0.0328 -0.1639
16863TIP3    H172004   2.525   1.434   4.724  0.9402 -0.5414 -0.2710
16863TIP3    H272005   2.623   1.444   4.838 -0.2105  0.8576  0.6134
16864TIP3   OH272006   3.635   1.472  16.231  0.3464  0.2664 -1.0736
16864TIP3    H172007   3.682   1.506  16.154  0.8690  1.6702 -0.1546
16864TIP3    H272008   3.601   1.550  16.275  0.0965 -0.5221  0.1546
16865TIP3   OH272009   1.992   3.796  12.458  0.4184  0.7359 -0.3803
16865TIP3    H172010   2.087   3.801  12.447  0.1662  0.9681 -2.6924
16865TIP3    H272011   1.978   3.716  12.510  1.8683  0.8127  0.1578
16866TIP3   OH272012   1.695   3.666   1.987 -0.1272  0.2304  0.0602
16866TIP3    H172013   1.747   3.718   1.925 -0.1995 -0.9476 -1.0034
16866TIP3    H272014   1.678   3.584   1.941  1.8393 -1.6327  2.5222
16867TIP3   OH272015   4.467   4.418   6.544  0.1934 -0.4749 -0.0247
16867TIP3    H172016   4.526   4.470   6.598 -2.4086  3.2201 -0.5665
16867TIP3    H272017   4.412   4.371   6.607  0.3169  0.0874  0.5050
16868TIP3   OH272018   1.985   4.189  12.757  0.2524 -0.2990 -0.1381
16868TIP3    H172019   1.896   4.154  12.759  0.3641 -0.7198 -2.0549
16868TIP3    H272020   2.000   4.220  12.846 -1.5593 -0.8547  0.3831
16869TIP3   OH272021   1.291   1.724   5.233  0.0547  0.3710 -0.1280
16869TIP3    H172022   1.229   1.790   5.262  0.0914  0.8050 -1.0004
16869TIP3    H272023   1.253   1.690   5.152  0.5149  0.0157 -0.1973
16870TIP3   OH272024   5.653   1.856  14.290  0.2872  0.2105 -0.3189
16870TIP3    H172025   5.558   1.869  14.286 -0.1180 -1.8750  1.1033
16870TIP3    H272026   5.690   1.938  14.258 -1.9899  0.4923 -2.4487
16871TIP3   OH272027   5.747   2.124   4.253  0.1916 -0.5681  0.0972
16871TIP3    H172028   5.819   2.124   4.191 -0.2574  0.1692 -0.4472
16871TIP3    H272029   5.708   2.037   4.245  0.4418 -0.6465 -0.3020
16872TIP3   OH272030   1.646   3.556  16.728 -0.4235  0.3979 -0.3133
16872TIP3    H172031   1.650   3.635  16.781  0.8326 -0.6917  1.2576
16872TIP3    H272032   1.658   3.587  16.638  1.3663  1.8540  0.3969
16873TIP3   OH272033   0.618   0.926   4.048  0.4808  0.1251  0.0886
16873TIP3    H172034   0.586   0.963   3.966 -1.7195  0.0709  0.8928
16873TIP3    H272035   0.693   0.981   4.071 -0.7537  2.0722 -0.4163
16874TIP3   OH272036   1.777   3.647   2.277 -0.1455  0.3887  0.0489
16874TIP3    H172037   1.739   3.573   2.325 -1.1968  0.4330 -0.6941
16874TIP3    H272038   1.745   3.636   2.187 -0.9611  2.1662  0.0918
16875TIP3   OH272039   1.958   5.679   5.435 -0.3682  0.2792  0.0119
16875TIP3    H172040   1.884   5.682   5.496  1.4749 -1.6122  2.4345
16875TIP3    H272041   1.951   5.593   5.394 -0.6213  0.8855 -1.2527
16876TIP3   OH272042   0.220   5.299  16.350  0.0099 -0.0422 -0.2750
16876TIP3    H172043   0.150   5.233  16.356  0.0071  0.1296  2.0987
16876TIP3    H272044   0.295   5.251  16.316 -0.2566 -1.0868  0.5704
16877TIP3   OH272045   6.083   4.506  11.574  0.4702  0.0908 -0.7194
16877TIP3    H172046   6.167   4.527  11.616 -0.4924 -2.9407  2.9535
16877TIP3    H272047   6.020   4.564  11.616 -0.2346 -1.8849  1.0425
16878TIP3   OH272048   6.656   5.828   5.917  0.9956 -0.0527 -0.1177
16878TIP3    H172049   6.604   5.908   5.925  2.4444  0.6793  2.3901
16878TIP3    H272050   6.603   5.761   5.959 -0.0131 -0.3288 -1.8033
16879TIP3   OH272051   3.088   2.166   4.330  0.0000  0.8011  0.5973
16879TIP3    H172052   3.013   2.121   4.290  0.0180 -0.5615  2.0446
16879TIP3    H272053   3.095   2.248   4.281 -0.2141 -0.6357 -1.9508
16880TIP3   OH272054   0.843   4.115  15.418 -0.1749  0.2929  0.1121
16880TIP3    H172055   0.891   4.072  15.489  0.8178 -1.7467 -1.7083
16880TIP3    H272056   0.772   4.054  15.397 -1.1345  1.4033  0.1099
16881TIP3   OH272057   3.969   5.007  17.075  0.7531  0.1415 -0.2145
16881TIP3    H172058   3.891   5.019  17.020 -0.5968  1.0707  1.8248
16881TIP3    H272059   3.975   4.913  17.088  1.1619 -0.1021 -2.0202
16882TIP3   OH272060   2.142   6.007  12.355  0.2877  0.6855 -0.4789
16882TIP3    H172061   2.158   6.095  12.389  1.7245  0.3733 -0.3235
16882TIP3    H272062   2.119   5.955  12.432 -0.9577  1.0077 -0.6250
16883TIP3   OH272063   0.433   4.759   1.665 -0.4167  0.3404  0.3316
16883TIP3    H172064   0.475   4.837   1.628 -0.6465  0.0612 -0.5230
16883TIP3    H272065   0.401   4.710   1.589  1.5959 -1.6677  0.7371
16884TIP3   OH272066   5.260   0.664  13.761  0.0043  0.0187  0.5109
16884TIP3    H172067   5.227   0.713  13.835  0.5612 -0.4038  1.0420
16884TIP3    H272068   5.314   0.595  13.799  3.0197  1.7713 -0.3831
16885TIP3   OH272069   5.110   4.540   0.629  0.4951 -0.2564  0.2733
16885TIP3    H172070   5.120   4.613   0.690 -2.0035  1.0294 -0.7597
16885TIP3    H272071   5.137   4.575   0.544 -0.3625 -0.6309 -0.1616
16886TIP3   OH272072   2.054   0.362  15.045  0.0541  0.1409  0.1774
16886TIP3    H172073   2.075   0.351  15.137 -1.0945  1.1234  0.5809
16886TIP3    H272074   2.137   0.386  15.003  0.6303 -0.5890  0.8984
16887TIP3   OH272075   0.531   1.900  14.964  0.2122 -0.4135 -0.2676
16887TIP3    H172076   0.556   1.971  14.905  2.2839 -0.0261  1.0035
16887TIP3    H272077   0.560   1.820  14.919 -1.7536 -0.4345 -1.5158
16888TIP3   OH272078   5.299   6.745  15.316 -0.4996  0.1997 -0.0999
16888TIP3    H172079   5.224   6.804  15.317  0.3077  1.2586  3.1311
16888TIP3    H272080   5.329   6.743  15.407  3.3741 -0.2382 -1.3113
16889TIP3   OH272081   1.434   0.374   2.785 -0.1832  0.3065 -0.1149
16889TIP3    H172082   1.519   0.375   2.741  1.4072  1.9170  2.8552
16889TIP3    H272083   1.387   0.449   2.748  0.2776  0.3350 -0.6499
16890TIP3   OH272084   4.319   4.592   6.007  0.2634  0.5068 -0.1584
16890TIP3    H172085   4.299   4.515   5.954 -1.3588  0.5504  0.3826
16890TIP3    H272086   4.364   4.651   5.947 -0.3513 -0.0061 -1.1348
16891TIP3   OH272087   5.793   5.826  10.908 -0.1160 -0.5017  0.6076
16891TIP3    H172088   5.749   5.753  10.864  1.4418 -1.1737  0.1152
16891TIP3    H272089   5.778   5.902  10.852  1.9017 -1.3654 -1.1602
16892TIP3   OH272090   1.911   2.520  14.282  0.7737 -0.5556  0.1707
16892TIP3    H172091   1.945   2.443  14.238  0.2672 -0.3339 -0.6279
16892TIP3    H272092   1.820   2.525  14.253  1.2625  1.2892 -1.1116
16893TIP3   OH272093   2.728   5.465   3.244  0.0507 -0.0843  0.6120
16893TIP3    H172094   2.707   5.504   3.160 -1.4264 -1.1157  0.4893
16893TIP3    H272095   2.824   5.465   3.247  0.0952  0.9956 -0.5622
16894TIP3   OH272096   5.282   6.094   0.520  0.2497 -0.5299 -0.2223
16894TIP3    H172097   5.323   6.040   0.452 -2.3350 -0.0710 -2.2489
16894TIP3    H272098   5.256   6.031   0.588  0.5454 -1.3559 -0.8687
16895TIP3   OH272099   3.047   3.693   2.196 -0.1160 -0.3713 -0.0022
16895TIP3    H172100   3.054   3.601   2.171  0.9657 -1.1723  3.0751
16895TIP3    H272101   3.138   3.723   2.201 -0.3832  0.3138  0.9057
16896TIP3   OH272102   3.729   5.917   0.640  0.2461 -0.4597 -0.2764
16896TIP3    H172103   3.772   5.987   0.591 -0.8257  0.5596  0.2220
16896TIP3    H272104   3.638   5.945   0.647 -0.1109 -1.7302  0.2496
16897TIP3   OH272105   3.916   4.758   4.744 -0.1370  0.6984 -0.0481
16897TIP3    H172106   3.823   4.736   4.736 -0.2096  1.1216 -0.3756
16897TIP3    H272107   3.920   4.852   4.729  0.6045  0.3728 -2.1901
16898TIP3   OH272108   0.583   2.338   5.425  0.0986 -0.6634 -0.0658
16898TIP3    H172109   0.531   2.413   5.396  2.4244  1.3332  0.7502
16898TIP3    H272110   0.540   2.262   5.386 -2.7489  1.0081 -0.3021
16899TIP3   OH272111   4.172   0.270  10.547  0.3868 -0.1638  0.1591
16899TIP3    H172112   4.089   0.317  10.551 -0.6678 -1.9367 -0.3727
16899TIP3    H272113   4.199   0.277  10.455 -0.2816 -1.4244 -0.1462
16900TIP3   OH272114   4.638   2.007  13.838  0.3172 -0.1939 -0.1611
16900TIP3    H172115   4.566   1.988  13.897  0.1158 -2.7654 -1.1878
16900TIP3    H272116   4.601   2.066  13.772 -0.8503 -1.5154 -0.6911
16901TIP3   OH272117   5.490   2.782  14.188 -0.6165  0.7452  0.3777
16901TIP3    H172118   5.484   2.695  14.149 -1.5918 -0.0540  2.2419
16901TIP3    H272119   5.584   2.797  14.200 -0.4234  0.1460 -0.3979
16902TIP3   OH272120   3.820   3.029   5.088  0.1839 -0.3567  0.0126
16902TIP3    H172121   3.769   3.010   5.166  0.5351 -1.4675 -0.0261
16902TIP3    H272122   3.909   3.043   5.119  0.3221 -0.7889 -0.1809
16903TIP3   OH272123   5.624   2.607  16.585 -0.0545  0.5773 -0.7619
16903TIP3    H172124   5.552   2.580  16.528  1.5237 -1.6524 -1.7888
16903TIP3    H272125   5.614   2.553  16.664 -1.8291  3.1647  0.8574
16904TIP3   OH272126   4.701   1.198   2.212 -0.0744  0.3540 -0.2225
16904TIP3    H172127   4.631   1.170   2.271 -0.2829 -0.3006 -0.7771
16904TIP3    H272128   4.700   1.293   2.217  0.1926  0.3026  1.1671
16905TIP3   OH272129   0.026   2.039   1.608  0.1116  0.6585 -0.4365
16905TIP3    H172130   0.027   2.104   1.678 -0.9619  0.3813 -0.1557
16905TIP3    H272131   0.017   1.955   1.653  1.5613  0.2862 -0.7905
16906TIP3   OH272132   3.240   0.521   4.014 -0.2259  0.3450 -0.2090
16906TIP3    H172133   3.280   0.466   3.947  0.0436 -0.2049  0.3978
16906TIP3    H272134   3.281   0.493   4.096 -0.7153  0.8535  0.2147
16907TIP3   OH272135   0.984   6.731   0.136  0.1196 -0.2600 -0.1406
16907TIP3    H172136   0.904   6.777   0.113 -1.0297 -1.8580  0.5662
16907TIP3    H272137   1.045   6.800   0.162 -1.6904  0.8460  1.2827
16908TIP3   OH272138   5.434   6.289   1.182  0.0128 -0.3793  0.9389
16908TIP3    H172139   5.521   6.294   1.141  0.0567 -0.7377  0.9849
16908TIP3    H272140   5.452   6.262   1.272 -0.1006  0.1779  1.1302
16909TIP3   OH272141   0.529   5.703  14.874  0.0615  0.1570  0.1413
16909TIP3    H172142   0.625   5.712  14.878 -0.0672  0.8215  2.2317
16909TIP3    H272143   0.498   5.788  14.846 -0.0245  0.5205  1.3294
16910TIP3   OH272144   4.978   4.509   0.980  0.3601 -0.1403  0.4031
16910TIP3    H172145   5.012   4.430   0.939  0.0492  0.6963 -1.5400
16910TIP3    H272146   4.977   4.574   0.909 -1.6947  0.8927  1.3246
16911TIP3   OH272147   3.130   5.821   5.386  0.4182  0.1961  0.1876
16911TIP3    H172148   3.095   5.768   5.314 -1.4372  0.4836  0.8647
16911TIP3    H272149   3.053   5.851   5.433  1.3879  4.0969 -0.5882
16912TIP3   OH272150   0.765   3.748  14.053 -0.2419 -0.0687  0.5704
16912TIP3    H172151   0.683   3.738  14.101  0.1453 -0.6090  1.1120
16912TIP3    H272152   0.757   3.687  13.980 -0.4948  0.1832  0.3850
16913TIP3   OH272153   3.411   1.372   1.213 -0.9017  0.5940  0.5768
16913TIP3    H172154   3.339   1.435   1.220 -0.1680  1.3193  1.8712
16913TIP3    H272155   3.490   1.426   1.209 -0.4625 -0.1643 -1.9360
16914TIP3   OH272156   1.995   2.479  15.277  0.8635 -0.1229  0.3494
16914TIP3    H172157   1.916   2.428  15.259  0.1309  1.1009  0.0458
16914TIP3    H272158   2.064   2.414  15.287  0.6783 -1.0758 -3.7027
16915TIP3   OH272159   5.120   0.922   5.453  0.3418 -0.2900  0.3072
16915TIP3    H172160   5.096   0.972   5.376 -0.8848 -0.9480  0.2615
16915TIP3    H272161   5.180   0.854   5.421  0.5397 -0.0104  0.0851
16916TIP3   OH272162   3.104   0.720  14.196  0.0932 -0.0222 -0.0280
16916TIP3    H172163   3.009   0.730  14.191  0.0905  0.5647  0.9761
16916TIP3    H272164   3.121   0.703  14.289  0.8508 -1.4221 -0.4096
16917TIP3   OH272165   2.000   6.617  12.917 -0.2251  0.4537  0.6786
16917TIP3    H172166   1.916   6.614  12.872  0.7608 -0.9531 -1.1569
16917TIP3    H272167   2.029   6.708  12.909  0.5253 -0.0105 -2.7673
16918TIP3   OH272168   2.952   4.287   3.283 -0.1936 -0.2259  0.0134
16918TIP3    H172169   2.996   4.367   3.311  0.2002  0.6182 -2.8402
16918TIP3    H272170   2.877   4.317   3.232 -0.3265 -1.6586 -0.6823
16919TIP3   OH272171   0.161   1.963  13.633  0.4065  0.0157  0.6884
16919TIP3    H172172   0.089   2.016  13.666 -2.9143 -2.9011 -1.5847
16919TIP3    H272173   0.160   1.884  13.688  0.1174 -1.2334 -1.0876
16920TIP3   OH272174   2.536   0.379   2.305 -0.1272  0.8889 -0.3870
16920TIP3    H172175   2.553   0.472   2.288 -1.1321  0.9789 -0.9218
16920TIP3    H272176   2.619   0.346   2.339  0.3991  1.8604 -0.7003
16921TIP3   OH272177   3.113   5.046   5.852 -0.1552  0.2253  0.4008
16921TIP3    H172178   3.196   5.085   5.880  0.2477  0.2916 -0.8862
16921TIP3    H272179   3.127   4.951   5.863 -0.6125  0.3250  2.0688
16922TIP3   OH272180   2.119   0.724   4.836  0.1554 -0.5867  0.5910
16922TIP3    H172181   2.068   0.719   4.917  1.4413 -1.0466  1.4089
16922TIP3    H272182   2.183   0.653   4.845  1.5910  0.6201  0.0945
16923TIP3   OH272183   6.158   5.631   4.920  0.4820  0.0362 -0.5742
16923TIP3    H172184   6.250   5.608   4.936 -0.0086 -1.4298  0.2635
16923TIP3    H272185   6.147   5.620   4.826  1.1450  0.1464 -0.6682
16924TIP3   OH272186   1.954   1.654  15.487  0.1292 -0.0369 -0.2437
16924TIP3    H172187   2.039   1.628  15.522  0.5949 -0.1453 -1.4365
16924TIP3    H272188   1.947   1.607  15.404 -1.5416 -0.8082  0.3104
16925TIP3   OH272189   1.484   0.999  16.562  0.4146 -0.2381  0.5953
16925TIP3    H172190   1.576   1.007  16.587  0.5698 -0.4564  0.1001
16925TIP3    H272191   1.437   1.059  16.621  0.8548 -0.2367  0.9396
16926TIP3   OH272192   4.735   0.988  10.675  0.4226 -0.0415  0.7004
16926TIP3    H172193   4.769   0.932  10.745  1.2265  0.1724  0.4766
16926TIP3    H272194   4.640   0.990  10.691  0.3671 -1.5787  0.6204
16927TIP3   OH272195   3.367   1.372  12.008  0.3329 -0.0131  0.6421
16927TIP3    H172196   3.338   1.463  12.005 -0.1254 -0.1866 -0.3164
16927TIP3    H272197   3.295   1.325  12.050  0.5417  0.0531  1.0778
16928TIP3   OH272198   0.181   2.747   0.744  0.3248  0.5907  0.0554
16928TIP3    H172199   0.216   2.708   0.824 -0.6958 -0.7047 -0.1076
16928TIP3    H272200   0.136   2.674   0.700 -0.4144  1.6450 -0.9459
16929TIP3   OH272201   1.767   2.312  12.837 -0.1884 -0.2979 -0.0302
16929TIP3    H172202   1.820   2.391  12.839  1.7840 -1.5302 -1.8574
16929TIP3    H272203   1.795   2.261  12.913  1.0573 -0.8008 -0.8126
16930TIP3   OH272204   0.249   0.940  14.566  0.8114 -0.8428  0.2202
16930TIP3    H172205   0.158   0.952  14.593  0.6796 -2.9675  0.7778
16930TIP3    H272206   0.244   0.875  14.496  1.8742 -0.6416 -0.0386
16931TIP3   OH272207   1.272   5.536  12.787  0.0268  0.2058 -0.6130
16931TIP3    H172208   1.230   5.498  12.864 -0.3518 -1.3768 -1.5655
16931TIP3    H272209   1.364   5.546  12.812 -0.1596  0.0288  0.1625
16932TIP3   OH272210   0.817   2.439   1.226  0.3098 -0.1091  0.0512
16932TIP3    H172211   0.858   2.384   1.159  1.6594  1.3516 -0.3444
16932TIP3    H272212   0.736   2.393   1.247  1.6946 -2.5787  0.2006
16933TIP3   OH272213   3.139   4.689   1.733  0.7643  0.1850 -0.0134
16933TIP3    H172214   3.145   4.762   1.796  0.4838  0.0024  0.2243
16933TIP3    H272215   3.088   4.725   1.661  0.3141  0.1102  0.2669
16934TIP3   OH272216   1.712   2.075   6.005 -0.0140 -0.5561 -0.6003
16934TIP3    H172217   1.733   2.053   6.096  0.8709  0.9020 -0.4282
16934TIP3    H272218   1.773   2.022   5.953  1.6396  0.9165 -0.2197
16935TIP3   OH272219   3.757   6.705  16.143 -0.1988 -1.0385  0.3329
16935TIP3    H172220   3.845   6.735  16.164 -0.5517 -1.0977  2.0342
16935TIP3    H272221   3.701   6.782  16.157 -0.6174 -1.4404  0.9034
16936TIP3   OH272222   6.402   1.129  11.539  0.4781 -0.4131 -0.1935
16936TIP3    H172223   6.390   1.041  11.503  1.2559 -1.8526  2.9593
16936TIP3    H272224   6.315   1.168  11.538  0.3103 -0.7688 -2.6347
16937TIP3   OH272225   5.921   5.290  13.403  0.1457 -0.2230  0.4124
16937TIP3    H172226   5.829   5.298  13.379 -0.1522  0.5474  1.7653
16937TIP3    H272227   5.925   5.319  13.494  1.2916 -2.8005  1.2177
16938TIP3   OH272228   2.785   3.746   4.271 -0.4909 -0.2746 -0.1883
16938TIP3    H172229   2.706   3.706   4.235 -0.7830 -0.5691  0.7803
16938TIP3    H272230   2.757   3.786   4.353  0.3138 -0.1404  0.0306
16939TIP3   OH272231   4.312   1.844   1.242  0.4389  0.1256 -1.3925
16939TIP3    H172232   4.351   1.797   1.316 -0.8498  0.1639 -0.6731
16939TIP3    H272233   4.338   1.935   1.255  1.2169 -0.0574 -1.6522
16940TIP3   OH272234   0.837   1.119   4.020  0.5810  0.0729 -0.9062
16940TIP3    H172235   0.858   1.171   4.098  1.2207  1.5830 -2.0687
16940TIP3    H272236   0.921   1.108   3.975  0.4415 -1.9083 -0.7436
16941TIP3   OH272237   4.550   5.990   4.104  0.0730  0.1427 -0.1556
16941TIP3    H172238   4.575   5.982   4.012  0.2281 -0.7884 -0.0295
16941TIP3    H272239   4.614   5.936   4.151 -1.5307 -1.4152  0.2783
16942TIP3   OH272240   4.438   6.737  16.270  0.1283 -0.1971  0.1703
16942TIP3    H172241   4.448   6.770  16.360  0.1758  1.5583 -0.4580
16942TIP3    H272242   4.464   6.811  16.215 -1.8145 -0.6077 -1.3197
16943TIP3   OH272243   0.003   3.525  15.604 -0.2954  0.3034  0.1565
16943TIP3    H172244  -0.043   3.454  15.648 -1.1159  1.1502  0.6906
16943TIP3    H272245   0.052   3.568  15.674  1.4673 -0.7067 -0.4441
16944TIP3   OH272246   5.602   3.366  15.404 -0.1687 -0.0498  0.0675
16944TIP3    H172247   5.594   3.457  15.375 -2.0142 -0.4425 -0.7613
16944TIP3    H272248   5.545   3.361  15.480 -0.2120 -0.5579 -0.0006
16945TIP3   OH272249   2.092   6.482   1.141  0.2140 -0.2147  0.0850
16945TIP3    H172250   2.118   6.396   1.175 -0.7005 -0.1787  0.9140
16945TIP3    H272251   2.159   6.542   1.175  1.3654 -0.7104 -1.2447
16946TIP3   OH272252   4.594   6.757  15.432 -0.2435  0.4238  0.4207
16946TIP3    H172253   4.547   6.680  15.464 -1.5667  1.2517  0.4846
16946TIP3    H272254   4.587   6.753  15.337 -1.1588  0.9706  0.4544
16947TIP3   OH272255   6.602   1.250   2.164 -0.2830 -0.0841  0.0601
16947TIP3    H172256   6.657   1.308   2.217  0.9985 -0.6653 -0.5996
16947TIP3    H272257   6.584   1.175   2.221  0.7760 -0.5337 -0.1859
16948TIP3   OH272258   1.541   2.585  15.134  0.5314 -0.2089  0.1034
16948TIP3    H172259   1.633   2.580  15.110  0.4310 -0.7250 -0.1846
16948TIP3    H272260   1.523   2.502  15.178 -0.4344 -1.2215 -2.1342
16949TIP3   OH272261   3.769   3.115  11.137  0.2244 -0.5380 -0.1020
16949TIP3    H172262   3.830   3.131  11.209 -2.2813 -0.4830  2.0889
16949TIP3    H272263   3.704   3.056  11.174 -1.3504 -0.1620 -2.2178
16950TIP3   OH272264   6.674   5.159   2.962 -0.1377 -0.2189 -0.1216
16950TIP3    H172265   6.600   5.201   2.919  1.2905  0.5965 -1.8271
16950TIP3    H272266   6.637   5.119   3.041 -2.3157  0.4461 -0.7958
16951TIP3   OH272267   1.142   5.293   5.098  0.6918 -0.2170  0.2743
16951TIP3    H172268   1.145   5.376   5.146  0.4727 -0.4144  0.6316
16951TIP3    H272269   1.107   5.316   5.012 -0.6536 -0.1565  0.8326
16952TIP3   OH272270   0.515   5.206  16.234 -0.2679  0.4477 -0.1861
16952TIP3    H172271   0.489   5.120  16.200  1.6164 -0.4932  0.6568
16952TIP3    H272272   0.560   5.187  16.317 -2.6656  2.5173  1.6546
16953TIP3   OH272273   4.761   3.967  17.000 -0.2748  0.2436  0.5025
16953TIP3    H172274   4.778   3.966  17.094  0.3176 -0.8743  0.3879
16953TIP3    H272275   4.804   4.047  16.969  0.5795 -0.0253  0.9888
16954TIP3   OH272276   0.383   2.490  17.174  0.0747 -0.0392 -0.5250
16954TIP3    H172277   0.322   2.561  17.195  0.5598  0.0099  0.7212
16954TIP3    H272278   0.395   2.443  17.256  1.6927 -0.0763 -0.7772
16955TIP3   OH272279   0.107   1.695  11.296  0.7521 -0.0596  0.0386
16955TIP3    H172280   0.034   1.738  11.251 -0.3794  0.2133  2.0911
16955TIP3    H272281   0.154   1.648  11.227 -0.1167  1.5072 -1.6439
16956TIP3   OH272282   2.806   2.174  16.490 -0.1233  0.1631  0.2118
16956TIP3    H172283   2.862   2.241  16.529  0.1782  0.6981 -1.1070
16956TIP3    H272284   2.841   2.163  16.401 -0.5329 -1.3226  0.2297
16957TIP3   OH272285   2.072   0.840   5.177 -0.1678  0.4975  0.2299
16957TIP3    H172286   2.032   0.753   5.178  0.4755  0.1883 -0.7798
16957TIP3    H272287   2.138   0.838   5.247 -0.6490  0.4194  0.6863
16958TIP3   OH272288   0.420   4.507   4.852 -0.0290 -0.0546  0.2579
16958TIP3    H172289   0.512   4.509   4.880  0.2380 -0.7302 -0.5630
16958TIP3    H272290   0.379   4.580   4.899  1.0432  0.5602  0.2511
16959TIP3   OH272291   4.171   5.316  11.755 -0.1519 -0.1169 -0.4307
16959TIP3    H172292   4.189   5.300  11.848  0.6019  4.6414  0.3907
16959TIP3    H272293   4.080   5.347  11.754  0.6811  2.3909 -0.8829
16960TIP3   OH272294   0.272   5.461  14.527  0.9881  0.3524  0.3641
16960TIP3    H172295   0.233   5.500  14.448 -1.5075  1.0391  1.8805
16960TIP3    H272296   0.341   5.523  14.552  0.4707  1.1605 -0.1729
16961TIP3   OH272297   5.163   6.376  14.324 -0.5117 -0.1369 -0.3023
16961TIP3    H172298   5.141   6.464  14.356  0.4109  0.8255 -2.2163
16961TIP3    H272299   5.243   6.389  14.274 -0.4954 -2.0512 -0.7866
16962TIP3   OH272300   3.365   4.841   2.053 -0.3299 -0.2799 -0.2563
16962TIP3    H172301   3.305   4.791   2.108  0.9101  0.2582  1.6602
16962TIP3    H272302   3.440   4.860   2.111 -0.3472  2.9210 -1.2074
16963TIP3   OH272303   2.651   0.492  15.440 -0.3341  0.2337 -0.0140
16963TIP3    H172304   2.583   0.554  15.413  0.7537  1.7587  0.6518
16963TIP3    H272305   2.634   0.477  15.533 -0.7626 -0.7016 -0.2392
16964TIP3   OH272306   5.506   5.079  12.443 -0.6054 -0.3569  0.2492
16964TIP3    H172307   5.521   5.169  12.414  0.4120 -1.0607 -1.5064
16964TIP3    H272308   5.457   5.039  12.371  1.3213 -1.9419 -0.2079
16965TIP3   OH272309   3.074   5.805   1.248 -0.1085  0.4990 -0.1488
16965TIP3    H172310   3.047   5.714   1.237  0.5374  0.3064 -0.1320
16965TIP3    H272311   3.054   5.846   1.164  1.2293 -0.0673 -0.7538
16966TIP3   OH272312   6.157   4.966   4.860 -0.2659 -0.4984  0.0622
16966TIP3    H172313   6.125   4.982   4.948 -1.8567  0.1854 -0.6125
16966TIP3    H272314   6.089   5.002   4.803  1.9836  1.5299 -1.4480
16967TIP3   OH272315   4.452   1.375   1.542  0.2039 -0.0182  0.5668
16967TIP3    H172316   4.384   1.428   1.501  0.2376 -0.8351 -0.5521
16967TIP3    H272317   4.422   1.285   1.533  0.8080 -0.2986  1.2453
16968TIP3   OH272318   3.100   4.749  12.758 -0.4886  0.2834 -0.2959
16968TIP3    H172319   3.148   4.825  12.790  2.6358 -1.4278 -0.6193
16968TIP3    H272320   3.028   4.737  12.820  0.6875  1.7921  1.3954
16969TIP3   OH272321   4.512   1.091  13.497 -0.3033 -0.6619 -0.3955
16969TIP3    H172322   4.419   1.111  13.498  0.2824  2.4257 -1.1934
16969TIP3    H272323   4.519   1.007  13.452 -2.5520 -0.1108 -1.8191
16970TIP3   OH272324   0.795   1.319   4.779 -0.1563  0.6306 -0.0117
16970TIP3    H172325   0.798   1.225   4.765  0.8181 -0.1058  4.3090
16970TIP3    H272326   0.723   1.332   4.841 -0.3509  2.7452 -0.6309
16971TIP3   OH272327   5.029   0.456   2.466 -0.9595  0.3699  0.8830
16971TIP3    H172328   4.982   0.436   2.385 -1.5570  1.4953  0.9541
16971TIP3    H272329   4.967   0.435   2.536 -1.1119  1.1984  0.9967
16972TIP3   OH272330   4.781   5.096   5.045  0.0339 -0.5277  0.3783
16972TIP3    H172331   4.746   5.018   5.002  0.3486 -0.4351 -0.0471
16972TIP3    H272332   4.859   5.119   4.994 -0.0708  0.0799  0.4909
16973TIP3   OH272333   2.818   0.952  16.718 -0.6429  0.2809 -0.0287
16973TIP3    H172334   2.827   0.912  16.804 -0.9919 -0.1066 -0.1709
16973TIP3    H272335   2.844   1.044  16.731 -0.6197  0.2024  0.4667
16974TIP3   OH272336   2.418   0.212  12.195 -0.8100  0.2148  0.6448
16974TIP3    H172337   2.453   0.287  12.147  0.2963 -0.1915  0.7847
16974TIP3    H272338   2.372   0.160  12.130  0.7327 -0.3643 -0.0079
16975TIP3   OH272339   5.903   2.361  14.060  0.0556  0.1895  0.1815
16975TIP3    H172340   5.938   2.296  14.122  0.9564  0.8015  0.3257
16975TIP3    H272341   5.900   2.314  13.976 -0.6639 -0.4759  0.5720
16976TIP3   OH272342   0.293   0.444   1.843  0.0440 -0.1902  0.6123
16976TIP3    H172343   0.323   0.496   1.918 -0.2900  2.3774 -1.0210
16976TIP3    H272344   0.374   0.411   1.804  0.2538 -0.9164  1.6096
16977TIP3   OH272345   3.989   2.243  11.205  0.0343 -0.1741  0.7937
16977TIP3    H172346   4.033   2.167  11.242 -1.2093 -1.6053 -0.6202
16977TIP3    H272347   4.009   2.314  11.266  2.1539 -1.3570  1.5231
16978TIP3   OH272348   3.667   0.044   3.671 -0.2768  0.9876  0.3150
16978TIP3    H172349   3.580   0.042   3.631 -0.5836 -0.4401  1.0268
16978TIP3    H272350   3.669   0.126   3.721 -1.9116  0.1358  1.8282
16979TIP3   OH272351   5.223   2.096  11.668 -0.5373  0.4253 -0.7531
16979TIP3    H172352   5.265   2.043  11.736  1.7778  1.8472 -1.0318
16979TIP3    H272353   5.134   2.061  11.663  0.0384 -1.4599  1.1391
16980TIP3   OH272354   4.763   3.505  16.798  0.4045 -0.2478 -0.2812
16980TIP3    H172355   4.766   3.587  16.749 -0.4722 -0.4192 -0.6381
16980TIP3    H272356   4.842   3.458  16.772  0.2623 -0.0648 -1.0502
16981TIP3   OH272357   2.324   4.566   0.554  0.7328  0.3043  0.0342
16981TIP3    H172358   2.395   4.625   0.530 -0.1416  1.4267  0.1546
16981TIP3    H272359   2.267   4.618   0.610 -0.9562 -0.1007 -1.2348
16982TIP3   OH272360   1.148   0.422   3.445  0.6194 -0.2864  0.4677
16982TIP3    H172361   1.231   0.377   3.429  1.2013  0.6657  0.7513
16982TIP3    H272362   1.082   0.354   3.438  1.3180 -0.8232 -0.9963
16983TIP3   OH272363   5.216   5.668  16.034 -0.1828 -0.4474 -0.3494
16983TIP3    H172364   5.296   5.624  16.005  0.4602 -0.5684  1.5509
16983TIP3    H272365   5.247   5.749  16.075 -1.0428 -0.4045  0.2290
16984TIP3   OH272366   2.649   3.554  11.104 -0.7646  0.2892  0.0248
16984TIP3    H172367   2.678   3.469  11.135 -2.0021  0.0755  0.6067
16984TIP3    H272368   2.582   3.582  11.166  0.9354  2.5530  0.9444
16985TIP3   OH272369   5.215   1.015  16.070 -0.7275  0.1401  0.2083
16985TIP3    H172370   5.145   0.957  16.039 -0.0236 -1.0353  0.8047
16985TIP3    H272371   5.292   0.989  16.019 -0.0412 -0.4808  1.5530
16986TIP3   OH272372   2.455   2.486  15.662 -0.2056 -0.5327  0.5661
16986TIP3    H172373   2.520   2.546  15.625  0.7773 -2.5588 -1.0613
16986TIP3    H272374   2.373   2.510  15.619  0.4886 -1.3589 -1.2685
16987TIP3   OH272375   0.403   6.500  13.532  0.7080 -0.1412  0.7000
16987TIP3    H172376   0.353   6.559  13.477  1.3040 -0.9803 -0.7838
16987TIP3    H272377   0.455   6.557  13.589 -0.2638  0.7320  0.7051
16988TIP3   OH272378   1.682   5.865  11.262 -0.3333  0.0989  0.2800
16988TIP3    H172379   1.588   5.884  11.256  0.1075  1.8393 -1.9984
16988TIP3    H272380   1.694   5.787  11.208 -0.1305  1.4281 -1.6869
16989TIP3   OH272381   6.088   3.643  15.053 -0.7167  0.8378 -0.8192
16989TIP3    H172382   6.130   3.570  15.006  0.1404 -1.1078  2.7324
16989TIP3    H272383   5.999   3.612  15.071 -0.7515  1.1761 -0.3937
16990TIP3   OH272384   4.350   3.237  16.887  0.1155  0.6193 -0.3691
16990TIP3    H172385   4.434   3.243  16.841 -0.1813 -2.0884 -1.3395
16990TIP3    H272386   4.363   3.171  16.954 -0.6537  1.6738  0.8460
16991TIP3   OH272387   5.109   1.643  16.941 -0.1966 -1.0225 -0.6469
16991TIP3    H172388   5.144   1.593  16.867  0.6047 -2.2970  0.5695
16991TIP3    H272389   5.123   1.586  17.017  0.1024  0.7801  0.6703
16992TIP3   OH272390   5.044   0.217   3.538  0.3065  0.5000  0.1663
16992TIP3    H172391   5.122   0.272   3.534  0.8077 -0.1131  1.2254
16992TIP3    H272392   4.974   0.271   3.502  1.0720  1.3145 -0.1147
16993TIP3   OH272393   5.610   0.731  13.648 -0.8903 -0.3833  0.3997
16993TIP3    H172394   5.670   0.714  13.575 -0.8008  2.2404 -0.1754
16993TIP3    H272395   5.621   0.655  13.705  0.7167 -1.4121 -1.2024
16994TIP3   OH272396   4.970   6.062  14.007 -0.0774 -0.0987 -0.0050
16994TIP3    H172397   4.983   5.969  13.989  1.2145  0.1322 -0.3274
16994TIP3    H272398   5.038   6.084  14.071 -0.6257  0.5389  0.3766
16995TIP3   OH272399   2.393   6.150   0.963  0.7383  0.8730 -0.5200
16995TIP3    H172400   2.303   6.126   0.988  2.0359 -3.1379  0.6778
16995TIP3    H272401   2.419   6.215   1.029 -0.0880 -0.6064  1.3107
16996TIP3   OH272402   0.763   1.826   3.009  0.2826 -0.0557  0.7772
16996TIP3    H172403   0.785   1.748   3.059 -2.7324 -1.6751 -0.2997
16996TIP3    H272404   0.809   1.897   3.053  4.3914 -2.6343  0.8168
16997TIP3   OH272405   3.603   4.256   6.054  0.3199 -0.3009  0.2934
16997TIP3    H172406   3.569   4.177   6.013  2.0649 -0.9010 -0.0519
16997TIP3    H272407   3.615   4.232   6.146 -0.5675  0.0360  0.4980
16998TIP3   OH272408   2.539   0.960   5.005  0.5746  0.2628 -0.0121
16998TIP3    H172409   2.514   0.972   5.097  2.5450  0.1525  0.5663
16998TIP3    H272410   2.481   1.019   4.957 -0.6691  0.1149  1.2648
16999TIP3   OH272411   2.227   3.008  16.497 -0.3408  0.0886 -0.2188
16999TIP3    H172412   2.205   3.100  16.514 -0.8753 -0.1389  0.3326
16999TIP3    H272413   2.292   3.012  16.427 -0.1414  0.9034  0.0019
17000TIP3   OH272414   2.760   0.392   6.279 -0.7839  0.1047  0.3331
17000TIP3    H172415   2.843   0.370   6.238 -0.7949  0.1666  0.2760
17000TIP3    H272416   2.706   0.313   6.271 -0.8361  0.1634  0.0981
17001TIP3   OH272417   6.655   0.387  16.843 -0.2794  0.5160 -0.6030
17001TIP3    H172418   6.676   0.338  16.923  0.2707  2.0204  0.1930
17001TIP3    H272419   6.708   0.345  16.775  0.2201  0.0284  0.0798
17002TIP3   OH272420   3.034   0.258  16.424 -0.1896 -0.4800 -0.4359
17002TIP3    H172421   3.128   0.243  16.436 -0.2824 -0.1843  0.7305
17002TIP3    H272422   3.025   0.353  16.417 -0.5783 -0.3771  1.2061
17003TIP3   OH272423   3.676   6.045  16.654 -0.3689  0.2940 -0.3631
17003TIP3    H172424   3.721   5.988  16.591  1.7129  1.7550 -0.2526
17003TIP3    H272425   3.685   6.000  16.738  0.3515  0.2640 -0.4508
17004TIP3   OH272426   3.619   3.746  15.396  1.0516 -0.2690 -0.4395
17004TIP3    H172427   3.569   3.687  15.341  2.6627 -1.4532 -0.6716
17004TIP3    H272428   3.670   3.689  15.454 -0.5498  0.9436  2.2529
17005TIP3   OH272429   3.251   1.545  12.308 -0.0902 -0.1079 -0.1867
17005TIP3    H172430   3.305   1.587  12.241 -1.1670  2.5030  0.5184
17005TIP3    H272431   3.248   1.609  12.380 -0.9956 -1.8055  1.3291
17006TIP3   OH272432   5.254   0.302   2.626  0.0089  0.4054 -0.2558
17006TIP3    H172433   5.204   0.277   2.704  0.8508  1.3047  0.5875
17006TIP3    H272434   5.195   0.359   2.577 -0.1876  0.5869  0.1891
17007TIP3   OH272435   0.614   1.098   3.825  0.5122  0.6095  0.3621
17007TIP3    H172436   0.706   1.123   3.819  0.5816  0.7066  1.7612
17007TIP3    H272437   0.608   1.018   3.771  1.6067  0.0712  1.0202
17008TIP3   OH272438   0.623   5.616   6.180 -0.3053  0.2344  0.4944
17008TIP3    H172439   0.701   5.606   6.234 -0.6710  2.6993  1.5500
17008TIP3    H272440   0.550   5.597   6.239 -0.5954  0.4083  0.1931
17009TIP3   OH272441   2.719   6.075   5.600  0.2191  0.2174 -0.4175
17009TIP3    H172442   2.726   6.068   5.695 -0.6817 -0.3161 -0.3831
17009TIP3    H272443   2.628   6.051   5.580  0.1321  1.2639 -1.3282
17010TIP3   OH272444   1.790   3.361  15.542  0.1925 -0.1777  0.4272
17010TIP3    H172445   1.858   3.323  15.596  0.5259  0.7309  0.6660
17010TIP3    H272446   1.807   3.327  15.454  2.3744  1.8161  0.0205
17011TIP3   OH272447   2.917   3.564   2.403 -0.2240 -0.2419 -0.1860
17011TIP3    H172448   2.929   3.597   2.492  1.1089 -0.3445 -0.3212
17011TIP3    H272449   2.936   3.639   2.347 -0.2113 -0.4169 -0.4162
17012TIP3   OH272450   2.991   6.430  14.535  0.1328  0.1430 -0.0853
17012TIP3    H172451   2.910   6.474  14.510  0.7859  0.0051 -2.5153
17012TIP3    H272452   2.990   6.348  14.487  1.4186 -0.1418  0.3492
17013TIP3   OH272453   0.625   2.076  10.583 -0.0155  0.3608 -0.6309
17013TIP3    H172454   0.539   2.062  10.621  0.5849 -0.4691  0.4622
17013TIP3    H272455   0.684   2.081  10.658  1.0970 -0.5676 -1.4205
17014TIP3   OH272456   1.971   4.292  13.349  0.7199 -0.1700 -0.4099
17014TIP3    H172457   2.001   4.231  13.416  2.4117  0.2112 -0.8014
17014TIP3    H272458   1.959   4.375  13.396  1.3205 -0.0563 -0.4506
17015TIP3   OH272459   3.584   5.540   6.234  0.4018  0.0100 -0.1947
17015TIP3    H172460   3.642   5.538   6.310 -0.5012 -0.1989  0.5039
17015TIP3    H272461   3.567   5.448   6.215  0.7987  0.0561 -0.7951
17016TIP3   OH272462   3.408   0.960   1.054  0.1887 -0.2834  0.4596
17016TIP3    H172463   3.410   0.929   0.963 -0.0620 -2.3491  1.1440
17016TIP3    H272464   3.395   0.881   1.106  1.7921  0.6982  2.4029
17017TIP3   OH272465   1.299   3.867  16.288 -0.4084  0.0722  0.3022
17017TIP3    H172466   1.303   3.890  16.195  0.9240  0.9843  0.5714
17017TIP3    H272467   1.227   3.920  16.323  0.3155  1.1635  0.1676
17018TIP3   OH272468   1.693   5.827   0.027 -0.0498  0.0417 -0.5935
17018TIP3    H172469   1.663   5.917   0.036  0.5978  0.3068 -1.0296
17018TIP3    H272470   1.639   5.791  -0.043 -0.4587  0.0220 -0.2726
17019TIP3   OH272471   1.027   3.787  11.119  0.0634  0.2694  0.5318
17019TIP3    H172472   1.094   3.731  11.080 -1.0948 -1.6526  1.2550
17019TIP3    H272473   1.041   3.781  11.213  1.8429  3.6557  0.5622
17020TIP3   OH272474   5.047   3.469  15.990 -0.3747 -0.7592  0.2450
17020TIP3    H172475   5.048   3.563  16.010  1.4372 -0.7799  0.2944
17020TIP3    H272476   4.981   3.433  16.049 -0.1125  0.2738  1.1821
17021TIP3   OH272477   6.582   2.260   3.924 -0.3629 -0.1398 -0.2106
17021TIP3    H172478   6.645   2.189   3.917 -1.4687 -1.0674 -0.7910
17021TIP3    H272479   6.635   2.336   3.951  0.9262 -0.9943 -0.2875
17022TIP3   OH272480   1.001   0.468  15.315 -0.0077 -0.3512  0.0116
17022TIP3    H172481   1.021   0.521  15.392  0.1993 -0.9630  0.3776
17022TIP3    H272482   0.906   0.460  15.315 -0.1683  1.1712 -0.8186
17023TIP3   OH272483   0.499   1.195  13.418  0.3837 -0.2622  0.0193
17023TIP3    H172484   0.488   1.241  13.335  1.2171 -0.5009 -0.2317
17023TIP3    H272485   0.476   1.260  13.484  1.7483  0.6028 -0.3222
17024TIP3   OH272486   1.731   2.349   1.190 -0.2263  0.3432  0.2372
17024TIP3    H172487   1.679   2.398   1.127 -1.6076  0.8685  1.7543
17024TIP3    H272488   1.696   2.260   1.187 -0.2820  0.3645  0.2598
17025TIP3   OH272489   3.237   3.403  10.940 -0.6858 -0.1864 -0.0496
17025TIP3    H172490   3.235   3.499  10.938 -0.9902 -0.0869  3.0554
17025TIP3    H272491   3.148   3.377  10.919 -0.8154  0.2221 -0.0160
17026TIP3   OH272492   4.528   3.678   3.408 -0.2231 -0.2314  0.7503
17026TIP3    H172493   4.597   3.635   3.458 -1.9318 -2.4419  1.3154
17026TIP3    H272494   4.474   3.606   3.375 -1.4286  1.3746 -0.8790
17027TIP3   OH272495   5.926   1.447  13.845 -0.7039 -0.3179  0.1661
17027TIP3    H172496   5.869   1.507  13.892  0.2862  0.5384  0.2981
17027TIP3    H272497   5.891   1.445  13.756 -0.9994  0.1315  0.2698
17028TIP3   OH272498   3.226   1.141   1.214  0.3415 -0.0669 -0.0735
17028TIP3    H172499   3.290   1.212   1.208  0.1679  0.1138  0.1501
17028TIP3    H272500   3.260   1.072   1.158 -0.9105  1.2945 -2.5926
17029TIP3   OH272501   5.507   0.135   0.013  0.2406  0.1280  0.0793
17029TIP3    H172502   5.502   0.065  -0.053 -1.1758  0.3733 -0.0770
17029TIP3    H272503   5.563   0.201  -0.027  1.5651 -0.8747  0.2115
17030TIP3   OH272504   5.643   3.644  13.255  0.3609 -0.1982  0.2471
17030TIP3    H172505   5.612   3.681  13.338  0.7590  0.3149  0.1722
17030TIP3    H272506   5.656   3.551  13.273  2.0520  0.1964  1.2485
17031TIP3   OH272507   0.842   4.306   3.867  0.1594 -0.0764  0.9019
17031TIP3    H172508   0.935   4.323   3.857  0.0270  0.5233  0.6469
17031TIP3    H272509   0.826   4.228   3.816  0.2596  0.6262 -0.2186
17032TIP3   OH272510   6.160   3.880   5.683  0.1975  0.0949 -0.0048
17032TIP3    H172511   6.175   3.955   5.626 -0.7917  1.2446  1.2273
17032TIP3    H272512   6.144   3.918   5.770 -0.5160 -1.5197  0.5908
17033TIP3   OH272513   2.843   0.367   1.694  0.0254 -0.0336  0.3220
17033TIP3    H172514   2.930   0.377   1.732  0.2881 -1.5529  0.1411
17033TIP3    H272515   2.859   0.333   1.606 -0.7795 -0.6529  0.4132
17034TIP3   OH272516   0.253   6.709   3.508 -0.1133  0.1603 -0.1418
17034TIP3    H172517   0.296   6.760   3.439  0.9634 -0.7913 -0.1900
17034TIP3    H272518   0.312   6.714   3.583 -0.5755 -0.0276  0.2411
17035TIP3   OH272519   2.717   3.739  12.617 -0.2787  0.4553 -0.2231
17035TIP3    H172520   2.707   3.800  12.544 -1.5900 -1.2178 -1.4765
17035TIP3    H272521   2.640   3.754  12.672 -1.2204 -0.8376 -1.1471
17036TIP3   OH272522   3.400   6.339  12.265  0.0810 -0.0291  0.1766
17036TIP3    H172523   3.412   6.285  12.187  1.1458 -0.4401  0.6095
17036TIP3    H272524   3.393   6.276  12.337  0.6410  0.3829  0.5981
17037TIP3   OH272525   4.837   0.167  15.767 -0.0822  0.5770 -0.3424
17037TIP3    H172526   4.866   0.197  15.681  0.3904 -2.0335 -1.1386
17037TIP3    H272527   4.745   0.145  15.755  0.2573 -0.8060 -0.4791
17038TIP3   OH272528   1.813   3.250  15.286  0.1839 -0.2125  0.5646
17038TIP3    H172529   1.879   3.188  15.255 -0.2274 -0.3432 -0.0504
17038TIP3    H272530   1.803   3.312  15.214 -1.9093 -1.4079 -0.2050
17039TIP3   OH272531   1.988   1.037  12.828 -0.6181 -0.3182 -0.2140
17039TIP3    H172532   2.013   0.966  12.768 -1.1815 -0.1480 -0.6537
17039TIP3    H272533   2.070   1.080  12.850 -0.3456 -0.7251 -0.4396
17040TIP3   OH272534   4.440   2.099   1.255  0.1991  0.6065  0.5534
17040TIP3    H172535   4.410   2.142   1.175  0.3698 -1.6860 -0.7868
17040TIP3    H272536   4.514   2.151   1.284 -1.5110  3.0163  0.7331
17041TIP3   OH272537   5.060   0.169   0.641 -0.2369 -0.7470  0.0925
17041TIP3    H172538   4.965   0.168   0.631 -0.1901  1.4469 -0.8772
17041TIP3    H272539   5.093   0.205   0.559  1.1980  1.7475  1.6913
17042TIP3   OH272540   2.495   5.947  11.273 -0.3838  0.0989  0.1553
17042TIP3    H172541   2.448   5.903  11.202  1.1127  1.4033 -1.7385
17042TIP3    H272542   2.583   5.909  11.270  0.0823  1.1211  0.3856
17043TIP3   OH272543   2.908   5.412   4.197 -0.1765  0.3635  0.3865
17043TIP3    H172544   2.962   5.461   4.258  1.0246 -1.4737  0.8102
17043TIP3    H272545   2.970   5.370   4.137 -1.2698  0.9331 -1.1941
17044TIP3   OH272546   6.662   3.810   2.123 -0.2223  0.4102  0.5548
17044TIP3    H172547   6.757   3.811   2.112 -0.2891  0.8167  0.0098
17044TIP3    H272548   6.629   3.775   2.039 -0.4394 -1.8071  1.5174
17045TIP3   OH272549   6.571   4.995  14.921 -0.0035 -0.3545  0.6179
17045TIP3    H172550   6.665   4.977  14.918  0.2415  0.6759  1.6397
17045TIP3    H272551   6.547   5.015  14.831  0.3828 -2.4303  0.0350
17046TIP3   OH272552   1.752   6.657   4.580  0.5052  0.3752 -0.1899
17046TIP3    H172553   1.844   6.676   4.564  0.6105 -0.0303 -0.0655
17046TIP3    H272554   1.734   6.692   4.667  0.8837 -0.7178  0.3413
17047TIP3   OH272555   3.441   4.032  12.506 -0.5811 -0.5424  0.6358
17047TIP3    H172556   3.422   4.027  12.412 -0.4873 -1.9333  0.6765
17047TIP3    H272557   3.507   4.101  12.514 -1.1504  0.1120 -0.2188
17048TIP3   OH272558   0.592   3.491  11.111 -0.4235 -0.5282  0.2754
17048TIP3    H172559   0.655   3.563  11.119 -1.5175  0.3831  1.0215
17048TIP3    H272560   0.587   3.474  11.017 -0.9019  1.0889 -0.0132
17049TIP3   OH272561   6.429   5.530   5.668  0.6714 -0.0832  1.1855
17049TIP3    H172562   6.478   5.451   5.644 -0.5198 -1.0477  1.8333
17049TIP3    H272563   6.349   5.496   5.709 -0.0309  1.4664  1.1143
17050TIP3   OH272564   6.000   1.388  12.611  0.1545 -0.2717  0.1666
17050TIP3    H172565   6.007   1.330  12.536 -0.2691  0.1296 -0.1898
17050TIP3    H272566   5.913   1.427  12.603  0.2259  0.0056  0.6920
17051TIP3   OH272567   4.050   5.001  13.632 -0.5583  0.1446 -0.3901
17051TIP3    H172568   4.039   4.985  13.726 -0.8939  1.3044 -0.2242
17051TIP3    H272569   4.123   5.063  13.626  0.0224 -0.5863 -0.9499
17052TIP3   OH272570   5.034   6.359  11.287  0.1071  0.3172  0.2533
17052TIP3    H172571   5.099   6.430  11.278 -0.8901  1.1374 -0.5096
17052TIP3    H272572   5.025   6.324  11.199  0.0952 -0.3321  0.5108
17053TIP3   OH272573   0.167   1.808  13.384  0.1246 -0.3748 -0.1954
17053TIP3    H172574   0.147   1.716  13.397  1.9750 -0.9011 -0.8339
17053TIP3    H272575   0.164   1.846  13.472 -0.3106 -1.1110  0.1090
17054TIP3   OH272576   5.861   6.493   0.472  0.3097 -0.7439  0.1978
17054TIP3    H172577   5.822   6.428   0.414 -3.1828 -1.3409  3.0089
17054TIP3    H272578   5.915   6.443   0.532  1.4871 -0.4695 -0.6186
17055TIP3   OH272579   4.786   1.660  10.351  0.1927 -0.0771  0.1631
17055TIP3    H172580   4.712   1.719  10.365  1.5355  2.0130 -1.3507
17055TIP3    H272581   4.845   1.679  10.423  1.1500  1.3105 -0.9551
17056TIP3   OH272582   0.561   3.622   4.725  0.0208 -0.4427 -0.3532
17056TIP3    H172583   0.475   3.664   4.728 -0.4011 -1.3537  1.0708
17056TIP3    H272584   0.589   3.631   4.634 -0.5396  1.9285 -0.3325
17057TIP3   OH272585   4.334   2.973   1.582  0.1283 -0.0320  0.3080
17057TIP3    H172586   4.370   2.920   1.511  0.6070 -0.2041  0.6806
17057TIP3    H272587   4.391   3.050   1.585 -0.4132  0.3887 -0.0646
17058TIP3   OH272588   3.919   3.304  14.955 -0.2749  0.6527 -0.1039
17058TIP3    H172589   3.909   3.209  14.951 -0.6039  0.7304 -1.0618
17058TIP3    H272590   3.982   3.325  14.886  0.0853  1.1019  0.3489
17059TIP3   OH272591   5.983   6.711  11.282  0.5225  0.0615  0.1127
17059TIP3    H172592   6.039   6.636  11.265 -0.5009 -0.9407  1.0896
17059TIP3    H272593   5.894   6.675  11.282  0.0190  1.2822  0.5212
17060TIP3   OH272594   1.946   5.232   4.578 -0.2466  0.7090 -0.2390
17060TIP3    H172595   2.040   5.225   4.567 -0.2393  1.0755 -0.3900
17060TIP3    H272596   1.916   5.283   4.502 -0.7582 -0.7607 -1.0583
17061TIP3   OH272597   3.310   0.241   5.434  0.2060 -0.3783  0.1796
17061TIP3    H172598   3.232   0.239   5.379  0.1465 -0.9847  0.2813
17061TIP3    H272599   3.310   0.329   5.473 -1.1213 -0.7947  1.1768
17062TIP3   OH272600   0.590   0.356   6.108  0.2227  0.0884  0.3005
17062TIP3    H172601   0.610   0.296   6.179  1.3311  0.8259  0.6270
17062TIP3    H272602   0.497   0.377   6.120  0.0332 -0.9286  0.6472
17063TIP3   OH272603   0.474   2.378  13.746 -0.2842  0.7070  0.2577
17063TIP3    H172604   0.540   2.364  13.678  0.0405  2.8005  0.1202
17063TIP3    H272605   0.520   2.356  13.828  1.3913  4.3473  0.4010
17064TIP3   OH272606   2.764   5.312  14.553  0.4343  0.0041  0.0031
17064TIP3    H172607   2.823   5.279  14.485 -0.4913 -0.5512 -0.5480
17064TIP3    H272608   2.742   5.235  14.605  0.5597  0.2951  0.4927
17065TIP3   OH272609   6.327   4.241   0.659  0.4559  0.5860 -0.0409
17065TIP3    H172610   6.306   4.203   0.744  3.8323 -0.3394  0.4622
17065TIP3    H272611   6.253   4.298   0.639 -1.9128 -1.6231  2.0124
17066TIP3   OH272612   3.787   2.271  14.903 -0.1630  0.1657  0.0615
17066TIP3    H172613   3.878   2.271  14.873 -0.5608  0.0307 -1.1897
17066TIP3    H272614   3.789   2.226  14.987  1.1787  1.6334  0.8395
17067TIP3   OH272615   4.549   5.198  15.687  0.2023  0.0563 -1.3050
17067TIP3    H172616   4.572   5.111  15.654  1.3928  0.4822 -1.6454
17067TIP3    H272617   4.632   5.233  15.721  0.0906  1.7020 -2.6597
17068TIP3   OH272618   1.315   0.105   5.862 -0.0858 -0.3648  0.4369
17068TIP3    H172619   1.301   0.058   5.780 -0.1199 -0.8631  0.7241
17068TIP3    H272620   1.367   0.045   5.915  2.3630  1.0880 -0.2709
17069TIP3   OH272621   4.436   0.267  13.962  0.0779 -0.3433  0.4441
17069TIP3    H172622   4.490   0.318  13.902  0.7370 -0.5441  0.8604
17069TIP3    H272623   4.471   0.286  14.049  0.6540 -1.8685  0.5643
17070TIP3   OH272624   3.953   3.877  11.790  0.0226 -0.5658 -0.2735
17070TIP3    H172625   3.915   3.938  11.727 -1.3524 -0.7239  0.3842
17070TIP3    H272626   3.879   3.824  11.819  0.7681 -0.9404  0.9742
17071TIP3   OH272627   1.535   2.347   5.256 -0.0332  0.0499 -0.6088
17071TIP3    H172628   1.560   2.336   5.164  1.6746  1.0649 -0.3010
17071TIP3    H272629   1.599   2.295   5.304 -1.7244 -1.5357 -0.0503
17072TIP3   OH272630   0.447   3.735  15.517  0.0199 -0.3226  0.1160
17072TIP3    H172631   0.428   3.817  15.470 -0.1141 -1.3313 -1.6610
17072TIP3    H272632   0.437   3.757  15.609 -1.6191  1.2762 -0.4095
17073TIP3   OH272633   6.487   2.955  16.727 -0.2026  0.4383 -0.1263
17073TIP3    H172634   6.392   2.940  16.725 -0.5034  2.2509 -0.4806
17073TIP3    H272635   6.520   2.915  16.647 -0.6052 -0.5597  0.1977
17074TIP3   OH272636   0.936   1.497  14.169 -0.4017  0.2839  0.3697
17074TIP3    H172637   1.022   1.536  14.184 -0.6552  1.1806 -0.3999
17074TIP3    H272638   0.876   1.572  14.168 -1.2336 -0.3595  1.2084
17075TIP3   OH272639   3.183   2.180  11.809  0.2544  0.0310 -0.3954
17075TIP3    H172640   3.115   2.177  11.876 -0.1862  0.3003 -0.8208
17075TIP3    H272641   3.144   2.233  11.739  1.1112  0.6373 -0.4148
17076TIP3   OH272642   2.571   1.543  17.010 -0.0839 -0.1766 -0.1278
17076TIP3    H172643   2.614   1.597  16.943 -0.2255 -0.4026 -0.3964
17076TIP3    H272644   2.635   1.475  17.031  0.9271  1.2768  1.6979
17077TIP3   OH272645   1.603   4.621  16.361  0.3550 -0.1286  0.2241
17077TIP3    H172646   1.561   4.637  16.445 -0.4199 -1.4912  0.1183
17077TIP3    H272647   1.697   4.628  16.379  0.1335  1.8054  0.6946
17078TIP3   OH272648   2.808   1.122  15.710 -0.5628  0.2106  0.0783
17078TIP3    H172649   2.716   1.100  15.722 -0.1614 -0.4541  2.1402
17078TIP3    H272650   2.854   1.071  15.776  1.3623  0.1081 -1.2983
17079TIP3   OH272651   2.474   2.193  13.648 -0.4290 -0.6185 -0.0561
17079TIP3    H172652   2.512   2.119  13.695 -0.2823 -0.6363 -0.2012
17079TIP3    H272653   2.493   2.269  13.703 -1.7588 -0.8554  0.7698
17080TIP3   OH272654   2.033   6.246  10.929 -0.1147 -0.4837  0.3913
17080TIP3    H172655   2.037   6.151  10.921  1.7748 -0.3935 -0.0152
17080TIP3    H272656   1.999   6.262  11.017 -2.6025 -1.5125 -0.3367
17081TIP3   OH272657   0.229   6.201   2.296  0.3765  0.0496  0.1574
17081TIP3    H172658   0.321   6.224   2.284  0.6409 -1.0661  0.0373
17081TIP3    H272659   0.182   6.283   2.278  1.1892  0.0888 -2.0049
17082TIP3   OH272660   5.862   0.985  12.642  0.2069  0.5699  0.1084
17082TIP3    H172661   5.815   1.037  12.708 -0.4788 -1.8652  1.5866
17082TIP3    H272662   5.800   0.918  12.614  1.4005 -0.0904 -1.0292
17083TIP3   OH272663   0.884   3.192  11.754  0.1582  0.3455 -0.2576
17083TIP3    H172664   0.841   3.278  11.748  0.1212  0.4003  0.6338
17083TIP3    H272665   0.934   3.197  11.835 -3.1512 -1.9515  2.0851
17084TIP3   OH272666   2.798   4.777  15.087  0.1178  0.1822 -0.5631
17084TIP3    H172667   2.725   4.833  15.064 -0.1603  0.6521  1.4083
17084TIP3    H272668   2.872   4.837  15.100 -0.2208  0.1350  1.7122
17085TIP3   OH272669   0.831   2.060   4.443 -0.4779  0.5023 -0.5309
17085TIP3    H172670   0.907   2.054   4.385 -0.5428  0.4657 -0.6114
17085TIP3    H272671   0.758   2.078   4.384 -0.2900  2.1309 -0.3074
17086TIP3   OH272672   1.233   2.388   1.475 -0.3546  1.0162 -0.2244
17086TIP3    H172673   1.261   2.328   1.406 -1.9719  1.1655 -1.0391
17086TIP3    H272674   1.179   2.453   1.430 -0.4821  1.7830  1.0066
17087TIP3   OH272675   0.868   1.321   4.279 -0.4796  0.3940  0.3178
17087TIP3    H172676   0.774   1.331   4.267 -0.3488  0.0445 -1.0719
17087TIP3    H272677   0.904   1.406   4.254 -0.3318  0.1315 -0.3879
17088TIP3   OH272678   1.361   4.797   5.905 -0.7087 -0.1830  0.0936
17088TIP3    H172679   1.332   4.718   5.951 -2.0745  0.1615 -0.1420
17088TIP3    H272680   1.404   4.849   5.972  2.4113 -2.1958 -0.2679
17089TIP3   OH272681   4.461   1.765  14.016  0.0648  0.3238 -0.0150
17089TIP3    H172682   4.413   1.756  14.098 -0.1804  1.1765 -0.0576
17089TIP3    H272683   4.551   1.783  14.042  0.2094 -0.4770  0.0617
17090TIP3   OH272684   4.452   6.100  15.341  0.1859  0.4705  0.1932
17090TIP3    H172685   4.528   6.117  15.397 -2.1593  2.9069  2.7560
17090TIP3    H272686   4.418   6.016  15.370  0.2427  0.7013  0.9214
17091TIP3   OH272687   6.460   0.337   5.520 -0.0206  0.1398 -0.4263
17091TIP3    H172688   6.550   0.320   5.548 -0.2991 -2.1052 -0.8093
17091TIP3    H272689   6.408   0.331   5.600  0.0002  0.1679 -0.4109
17092TIP3   OH272690   2.250   5.620  13.730  0.5538 -0.0717  0.0207
17092TIP3    H172691   2.222   5.562  13.659  1.0432  0.3441 -0.5192
17092TIP3    H272692   2.251   5.707  13.690  1.8960  0.0224  0.2329
17093TIP3   OH272693   1.111   0.584  15.568  0.4769  0.5813  0.2354
17093TIP3    H172694   1.152   0.623  15.645  1.7463 -0.1526 -0.0598
17093TIP3    H272695   1.032   0.542  15.602  2.2696 -1.8602  1.5742
17094TIP3   OH272696   4.408   3.697   5.627  0.4790  0.0925  0.4561
17094TIP3    H172697   4.406   3.748   5.546  0.5873 -0.7900 -0.1070
17094TIP3    H272698   4.361   3.616   5.606  0.7751 -0.2747  1.1809
17095TIP3   OH272699   1.398   3.635   0.325 -0.1414 -0.1492 -0.3818
17095TIP3    H172700   1.453   3.581   0.267  1.1454 -0.1155  0.7919
17095TIP3    H272701   1.375   3.711   0.272  2.7028  0.8719 -0.2357
17096TIP3   OH272702   3.830   2.001   2.320 -0.6944 -0.2090 -0.3190
17096TIP3    H172703   3.766   1.930   2.311  0.4094 -1.2335 -0.1884
17096TIP3    H272704   3.853   2.000   2.412 -1.0647  0.6758 -0.2158
17097TIP3   OH272705   0.027   4.768   3.840 -0.7389 -0.3300  0.1815
17097TIP3    H172706   0.059   4.856   3.860 -1.8938 -0.2353  1.6976
17097TIP3    H272707   0.058   4.751   3.751 -0.0899  1.4131  0.0521
17098TIP3   OH272708   4.176   4.045   4.871  0.2766  0.3613 -0.2030
17098TIP3    H172709   4.175   4.072   4.779  0.0012  1.4236  0.1029
17098TIP3    H272710   4.112   4.103   4.914  0.4413 -0.0900  0.6647
17099TIP3   OH272711   1.665   5.472  15.631 -0.0528  0.4252 -0.1731
17099TIP3    H172712   1.730   5.512  15.572 -0.0246  1.0642  0.2897
17099TIP3    H272713   1.581   5.494  15.592 -0.1141  2.7058  1.1807
17100TIP3   OH272714   1.159   5.450   1.815 -0.4146 -0.5412  0.3778
17100TIP3    H172715   1.235   5.458   1.758  0.6556 -2.7942  1.4381
17100TIP3    H272716   1.180   5.505   1.891 -0.3423 -0.3017  0.1861
17101TIP3   OH272717   2.390   1.008  14.506 -0.5303 -0.0270 -0.2936
17101TIP3    H172718   2.379   0.952  14.428  0.2554 -0.3966 -0.1413
17101TIP3    H272719   2.484   1.003  14.526 -0.7396  0.0457  0.7001
17102TIP3   OH272720   3.661   2.860  12.603 -0.1076 -0.3937 -0.1428
17102TIP3    H172721   3.576   2.822  12.580  0.1083 -0.5327 -0.6924
17102TIP3    H272722   3.649   2.891  12.693 -0.5111 -1.0785  0.0396
17103TIP3   OH272723   2.172   2.996   3.733 -0.5532  0.5331 -0.2510
17103TIP3    H172724   2.140   3.081   3.764 -0.8119  0.6302 -0.7918
17103TIP3    H272725   2.235   2.969   3.801  0.0626  1.4851 -0.4269
17104TIP3   OH272726   0.933   2.127   0.234  0.1301 -0.6095  0.4516
17104TIP3    H172727   0.926   2.058   0.168 -2.2449 -1.5170  1.6214
17104TIP3    H272728   0.847   2.131   0.276  0.1795  3.0869  0.4333
17105TIP3   OH272729   2.551   3.103  13.579  0.1799 -0.0057  0.2812
17105TIP3    H172730   2.619   3.113  13.646 -1.1580  0.4868  1.5810
17105TIP3    H272731   2.542   3.191  13.542  0.3950 -0.1211 -0.0539
17106TIP3   OH272732   3.517   0.247   4.891  0.2297  0.1780 -0.6392
17106TIP3    H172733   3.553   0.164   4.858  0.6881  0.0555  0.1494
17106TIP3    H272734   3.492   0.228   4.982  1.0793  1.1070 -0.1931
17107TIP3   OH272735   4.251   1.975   4.871  0.1485  0.1250 -1.0235
17107TIP3    H172736   4.241   1.902   4.932  0.5984 -0.2699 -1.4123
17107TIP3    H272737   4.175   1.968   4.812  1.3140 -1.3366 -2.3973
17108TIP3   OH272738   4.062   3.976   3.224 -0.1608  0.4469 -0.4055
17108TIP3    H172739   4.099   4.059   3.252 -1.4343  0.2436  2.0399
17108TIP3    H272740   4.136   3.916   3.217  0.6011  1.4482 -1.0108
17109TIP3   OH272741   5.894   0.128  13.702 -0.2404  0.2299 -0.1601
17109TIP3    H172742   5.895   0.034  13.716  1.8002  0.2519  0.0615
17109TIP3    H272743   5.829   0.162  13.763 -0.2534 -0.9296  0.4691
17110TIP3   OH272744   6.697   2.513  11.897  0.1929  0.0686 -0.3084
17110TIP3    H172745   6.753   2.453  11.947  0.9762  0.2328 -0.9736
17110TIP3    H272746   6.612   2.510  11.941  0.3378 -1.2434 -0.1106
17111TIP3   OH272747   3.314   2.542  15.400 -0.4739  0.1272 -0.3724
17111TIP3    H172748   3.405   2.571  15.405 -0.9787  2.3044 -2.7961
17111TIP3    H272749   3.305   2.479  15.472  2.4472  1.2067  1.0268
17112TIP3   OH272750   6.097   4.903   0.068 -0.5546  0.2427  0.0184
17112TIP3    H172751   6.023   4.862   0.113  1.8879 -2.1024  2.0844
17112TIP3    H272752   6.089   4.996   0.088 -1.8545 -0.2472  1.8885
17113TIP3   OH272753   5.167   4.821  13.129  0.3906 -0.0789 -0.0480
17113TIP3    H172754   5.075   4.804  13.150  0.4715  0.9957  1.2072
17113TIP3    H272755   5.216   4.782  13.202  0.7886  1.6313  0.6189
17114TIP3   OH272756   4.479   4.215   0.513 -0.3716 -0.0108 -0.8247
17114TIP3    H172757   4.560   4.166   0.497  0.3722  0.1349  2.2414
17114TIP3    H272758   4.416   4.148   0.541 -0.1836  0.3637  0.5293
17115TIP3   OH272759   5.932   3.076  12.826 -0.4853  0.5954  0.0346
17115TIP3    H172760   5.952   3.030  12.745  0.0732  1.6848 -0.4532
17115TIP3    H272761   5.923   3.006  12.892  1.1090 -0.1558 -0.5251
17116TIP3   OH272762   3.976   6.165  13.173 -0.7773  0.3037  0.5250
17116TIP3    H172763   4.016   6.078  13.179  0.1920  0.4763 -2.7766
17116TIP3    H272764   4.050   6.224  13.158 -1.8608  1.1224 -1.7532
17117TIP3   OH272765   2.920   2.862   3.722 -0.3294  0.5496 -0.6299
17117TIP3    H172766   2.929   2.790   3.784 -1.1592  0.8339 -0.1652
17117TIP3    H272767   2.955   2.938   3.768  3.0941 -0.0348 -2.1105
17118TIP3   OH272768   2.948   3.999   5.249 -0.2637 -0.0884 -0.2553
17118TIP3    H172769   2.997   3.917   5.239  1.2169  0.7602 -0.0753
17118TIP3    H272770   3.015   4.067   5.246 -1.5637  1.1705 -1.1379
17119TIP3   OH272771   0.616   3.444  12.942 -0.5015 -0.2299  0.7533
17119TIP3    H172772   0.668   3.401  12.874 -1.8739 -0.4532 -0.1709
17119TIP3    H272773   0.621   3.385  13.017  1.3609  0.2151  1.0132
17120TIP3   OH272774   3.045   5.743  16.278  0.9430  0.1461 -0.1169
17120TIP3    H172775   3.040   5.756  16.183  1.3472 -1.2744 -0.3575
17120TIP3    H272776   3.137   5.758  16.299  1.0594 -0.5158 -0.1250
17121TIP3   OH272777   1.912   1.823  12.350 -0.7542 -0.3262  0.0416
17121TIP3    H172778   1.904   1.747  12.293  0.4777  0.2123 -0.8760
17121TIP3    H272779   1.908   1.898  12.291  3.2744  0.1718  0.2634
17122TIP3   OH272780   1.636   0.421  16.729 -0.3663 -0.0545  0.1360
17122TIP3    H172781   1.610   0.474  16.805  2.4937  1.7911 -0.0989
17122TIP3    H272782   1.677   0.343  16.767 -1.9063 -0.7367  0.4608
17123TIP3   OH272783   1.593   5.022   0.851  0.2376 -0.0420 -0.2628
17123TIP3    H172784   1.563   5.097   0.799 -2.8114 -0.9308  0.1181
17123TIP3    H272785   1.647   5.062   0.919 -0.5820  1.7635 -0.6173
17124TIP3   OH272786   4.096   5.935   4.804 -0.5533  0.1162  0.3118
17124TIP3    H172787   4.039   5.962   4.875 -1.0560  2.2898 -0.8469
17124TIP3    H272788   4.181   5.973   4.826 -0.9149  1.5024 -0.6370
17125TIP3   OH272789   2.549   0.301  11.528  0.0229  0.2884 -0.1707
17125TIP3    H172790   2.521   0.372  11.586  0.4233  0.9934 -0.8369
17125TIP3    H272791   2.621   0.259  11.575  1.3885  1.8361 -0.8182
17126TIP3   OH272792   4.282   4.552   2.289  0.2249  0.2799 -0.0212
17126TIP3    H172793   4.224   4.627   2.305  0.6061  0.7798 -0.9309
17126TIP3    H272794   4.273   4.498   2.367 -2.1296 -0.0887 -0.4837
17127TIP3   OH272795   1.821   5.295  12.476 -0.8479 -0.0892  0.2177
17127TIP3    H172796   1.856   5.373  12.434 -0.3873  0.1530  1.0331
17127TIP3    H272797   1.848   5.222  12.420  0.4668  0.1542  0.5249
17128TIP3   OH272798   4.012   2.280  16.819  0.3079 -0.5852 -0.1372
17128TIP3    H172799   3.949   2.329  16.873  0.7423 -0.5425  0.3288
17128TIP3    H272800   4.036   2.341  16.750 -0.4480 -0.7284 -0.5298
17129TIP3   OH272801   3.090   6.263  13.495 -0.5429  0.0357 -0.0756
17129TIP3    H172802   3.101   6.175  13.460 -3.8977 -0.6354  0.3523
17129TIP3    H272803   3.127   6.259  13.583  0.2640 -0.6284 -0.4351
17130TIP3   OH272804   1.358   2.351  13.811 -0.0832  0.2842  0.8317
17130TIP3    H172805   1.303   2.359  13.889  0.1214 -0.6685  1.0777
17130TIP3    H272806   1.401   2.436  13.803 -1.3018  0.9104  0.8541
17131TIP3   OH272807   1.717   4.157  14.569 -0.2649 -0.2461 -0.0745
17131TIP3    H172808   1.743   4.108  14.491 -0.2454 -1.5837  0.7562
17131TIP3    H272809   1.786   4.138  14.633 -0.8718 -0.0839  0.6320
17132TIP3   OH272810   3.768   6.628   3.028  0.1170 -0.1286 -0.2226
17132TIP3    H172811   3.733   6.710   2.993  0.4589  0.7591  1.4745
17132TIP3    H272812   3.710   6.561   2.992 -0.0241  0.8074 -1.8284
17133TIP3   OH272813   0.742   3.276   2.634  0.3035 -0.5537 -0.1816
17133TIP3    H172814   0.708   3.285   2.545 -2.0414 -2.8651  0.4233
17133TIP3    H272815   0.755   3.182   2.645  0.3355 -0.3155  1.9993
17134TIP3   OH272816   3.463   0.576   5.623 -0.0522  0.0726 -0.6653
17134TIP3    H172817   3.485   0.483   5.622 -0.3733 -0.0003 -1.4374
17134TIP3    H272818   3.520   0.614   5.690 -0.0559 -0.7115 -0.2203
17135TIP3   OH272819   1.594   5.505   2.963 -0.1375 -0.1940  0.3803
17135TIP3    H172820   1.613   5.509   3.057  0.9892  0.7676  0.1299
17135TIP3    H272821   1.580   5.412   2.946 -0.6729 -0.3391  1.5623
17136TIP3   OH272822   4.338   5.665   3.474 -0.1624  0.0848 -0.1619
17136TIP3    H172823   4.263   5.667   3.533 -0.0145 -1.1259  0.0713
17136TIP3    H272824   4.330   5.581   3.428  0.0462  0.7547 -1.4374
17137TIP3   OH272825   1.584   3.187   5.624  0.0865 -0.2484  0.9557
17137TIP3    H172826   1.651   3.212   5.687  0.0139 -1.0270  1.3529
17137TIP3    H272827   1.587   3.091   5.623 -0.7294 -0.2745  0.6651
17138TIP3   OH272828   2.220   1.103   0.147  0.3396 -0.0889  0.2373
17138TIP3    H172829   2.227   1.026   0.204 -1.1896  0.1079  0.7177
17138TIP3    H272830   2.198   1.174   0.207  0.4985  0.4725 -0.3772
17139TIP3   OH272831   3.735   5.511  11.503  0.1926 -0.5985 -0.0887
17139TIP3    H172832   3.739   5.595  11.456  1.6956 -0.3778  0.4016
17139TIP3    H272833   3.787   5.451  11.449 -0.3053 -1.0379 -0.0793
17140TIP3   OH272834   1.604   5.663  14.119 -0.9658 -0.1341  0.4097
17140TIP3    H172835   1.648   5.647  14.035  0.8970  2.0353  0.9161
17140TIP3    H272836   1.533   5.724  14.097  0.2737  1.4068  0.5456
17141TIP3   OH272837   2.598   0.596   5.855  0.6760  1.0359 -0.4091
17141TIP3    H172838   2.684   0.555   5.846  1.0468  1.8650 -0.7316
17141TIP3    H272839   2.582   0.598   5.949  0.4770 -0.2013 -0.4094
17142TIP3   OH272840   3.155   6.221  12.774 -0.3135 -0.4657  0.6758
17142TIP3    H172841   3.173   6.221  12.680 -0.8286 -2.9659  0.5303
17142TIP3    H272842   3.218   6.159  12.811 -1.4477 -1.0578  1.6662
17143TIP3   OH272843   6.692   2.284  11.279 -0.1533  0.5053  0.9353
17143TIP3    H172844   6.608   2.288  11.233 -1.8904  1.9009  4.0205
17143TIP3    H272845   6.694   2.196  11.317 -1.4807  1.2837  2.9334
17144TIP3   OH272846   2.647   1.842  14.541  0.1941  0.3670  0.0072
17144TIP3    H172847   2.607   1.927  14.522  0.1743  0.8128  1.8971
17144TIP3    H272848   2.573   1.782  14.545 -0.2032  0.9706  2.3185
17145TIP3   OH272849   1.503   0.324   4.128  0.2570 -0.1963 -0.2992
17145TIP3    H172850   1.425   0.327   4.183 -1.8877 -1.0610 -3.1668
17145TIP3    H272851   1.520   0.415   4.104  1.4476  0.2315  2.0287
17146TIP3   OH272852   2.506   6.135  12.469  0.2029  0.1287  0.0796
17146TIP3    H172853   2.529   6.117  12.377  0.4560  0.5625  0.0571
17146TIP3    H272854   2.571   6.086  12.519  1.1567  1.3061  0.0148
17147TIP3   OH272855   3.792   1.478  15.847  0.5963  0.2971  0.3073
17147TIP3    H172856   3.804   1.501  15.755  1.3166  3.4874  1.1453
17147TIP3    H272857   3.701   1.502  15.866  0.4332 -0.4037  0.4229
17148TIP3   OH272858   3.039   5.368   1.675 -0.5379 -0.6043 -0.4235
17148TIP3    H172859   2.944   5.373   1.680 -0.4158  0.8155  0.5506
17148TIP3    H272860   3.068   5.367   1.766  0.3724 -1.3465 -0.7078
17149TIP3   OH272861   0.260   2.889   4.246  0.0909  0.4565  0.5082
17149TIP3    H172862   0.285   2.978   4.273  0.1843  0.4279  0.5160
17149TIP3    H272863   0.249   2.841   4.327 -1.3252  0.8291  0.5379
17150TIP3   OH272864   1.463   1.513   5.278 -0.0346  0.0385  0.2092
17150TIP3    H172865   1.450   1.428   5.322 -0.7006 -0.8234 -1.6122
17150TIP3    H272866   1.374   1.540   5.254  0.3266  0.5180 -0.5708
17151TIP3   OH272867   2.197   5.312   1.993 -0.0658  0.0840  0.1384
17151TIP3    H172868   2.208   5.404   1.968  0.1622  0.1221  0.3827
17151TIP3    H272869   2.281   5.287   2.031  0.4632 -0.7139 -1.4770
17152TIP3   OH272870   4.925   5.848  12.771  0.0640  0.7728  0.9299
17152TIP3    H172871   4.865   5.780  12.804 -0.6825  1.6621  1.4374
17152TIP3    H272872   4.988   5.861  12.842  0.2246  0.5922  0.8213
17153TIP3   OH272873   5.000   3.146  15.436 -0.1060  0.6250 -0.9133
17153TIP3    H172874   4.915   3.111  15.408 -0.0243  0.1062 -0.5121
17153TIP3    H272875   4.979   3.196  15.516  0.2448 -1.0756  0.2785
17154TIP3   OH272876   0.096   4.694   5.122  0.3164  0.1385 -0.1227
17154TIP3    H172877   0.020   4.751   5.109  0.4701  0.4034  0.1490
17154TIP3    H272878   0.075   4.645   5.202  1.0618  1.2301  0.7571
17155TIP3   OH272879   5.933   3.623  11.230  0.5114  0.4345  0.1054
17155TIP3    H172880   5.900   3.707  11.198 -0.2730 -0.2008 -0.7597
17155TIP3    H272881   5.859   3.584  11.277  1.1255  0.5917  1.2119
17156TIP3   OH272882   3.193   6.122   0.555 -0.2083 -0.7605  0.5869
17156TIP3    H172883   3.177   6.052   0.618 -0.0138 -1.2198  0.1273
17156TIP3    H272884   3.126   6.188   0.575  0.7019 -0.2830  2.1603
17157TIP3   OH272885   5.483   2.964  12.828 -0.7746  0.4562 -0.2225
17157TIP3    H172886   5.445   2.995  12.746 -2.0844 -0.3670  0.0611
17157TIP3    H272887   5.489   3.042  12.883 -0.9869  0.7955 -0.6839
17158TIP3   OH272888   4.834   2.733  15.857 -0.0293 -0.3018 -0.0219
17158TIP3    H172889   4.909   2.719  15.799 -0.6677  1.1445 -1.2314
17158TIP3    H272890   4.836   2.658  15.916  1.7881 -0.8036 -0.6630
17159TIP3   OH272891   6.045   5.026   1.296 -0.9920 -0.0120  0.1249
17159TIP3    H172892   6.065   5.009   1.388 -1.3865  1.0440  0.4170
17159TIP3    H272893   6.007   4.945   1.264 -1.0341 -0.3211  0.9465
17160TIP3   OH272894   1.153   6.686  10.899  0.5103 -0.5717  0.0093
17160TIP3    H172895   1.218   6.698  10.969 -0.2360 -0.6746  0.7196
17160TIP3    H272896   1.084   6.749  10.920  0.9167  0.3988 -1.4045
17161TIP3   OH272897   0.512   5.430   0.682  0.2102  0.2585  0.2863
17161TIP3    H172898   0.582   5.374   0.715 -0.6183 -1.0717 -0.2073
17161TIP3    H272899   0.455   5.372   0.632  1.5167  2.1974 -3.7078
17162TIP3   OH272900   3.360   2.362  11.861 -0.0790 -0.2564 -0.0040
17162TIP3    H172901   3.368   2.398  11.773  3.7086 -0.8442  0.0093
17162TIP3    H272902   3.298   2.289  11.852 -1.0105  0.7440 -1.8121
17163TIP3   OH272903   0.766   1.954   3.859 -0.2240 -0.0895 -0.0978
17163TIP3    H172904   0.678   1.938   3.894 -0.1211  0.7211  0.5766
17163TIP3    H272905   0.809   1.869   3.863 -0.7994 -0.3785  0.1013
17164TIP3   OH272906   2.706   1.724   5.690 -0.2729  0.0975  0.3399
17164TIP3    H172907   2.726   1.638   5.654 -1.7841 -0.3248  0.4645
17164TIP3    H272908   2.726   1.785   5.620 -0.9230 -0.5229 -0.3965
17165TIP3   OH272909   5.782   4.309   5.067  0.5878  1.4344  0.7341
17165TIP3    H172910   5.747   4.380   5.013  0.4095  0.7322 -0.1035
17165TIP3    H272911   5.764   4.335   5.157 -3.9086  0.2228  0.3227
17166TIP3   OH272912   2.437   1.733   2.073 -0.2989 -0.1623  0.1190
17166TIP3    H172913   2.431   1.637   2.070 -0.7496 -0.1317 -0.0425
17166TIP3    H272914   2.519   1.753   2.029  0.4984 -0.5524  1.4050
17167TIP3   OH272915   6.455   0.721   0.170  0.0624 -0.9728  0.1018
17167TIP3    H172916   6.396   0.676   0.231 -0.5958 -0.0153  0.1932
17167TIP3    H272917   6.522   0.760   0.226 -1.5362  1.4276  0.4441
17168TIP3   OH272918   3.137   6.623   5.854  0.2977 -0.4399  0.2111
17168TIP3    H172919   3.206   6.689   5.864  0.4814 -0.7571  1.1411
17168TIP3    H272920   3.117   6.622   5.760 -0.1180  1.3456  0.2652
17169TIP3   OH272921   3.925   5.880   3.943 -0.1611 -0.1143  0.1294
17169TIP3    H172922   3.946   5.893   3.851 -1.2598  0.9674  0.0192
17169TIP3    H272923   4.006   5.899   3.990  0.0105  0.7616 -0.5180
17170TIP3   OH272924   2.740   4.338   1.848  0.0865 -0.5881 -0.2562
17170TIP3    H172925   2.725   4.266   1.909 -2.4128 -0.3103 -0.5032
17170TIP3    H272926   2.819   4.312   1.799  2.2586 -0.7025  3.1699
17171TIP3   OH272927   3.920   2.364  13.434 -0.4945 -0.4989 -0.1818
17171TIP3    H172928   3.975   2.441  13.427 -1.3959  0.0078 -1.9019
17171TIP3    H272929   3.981   2.290  13.439  0.3276  0.0810 -1.6470
17172TIP3   OH272930   5.687   1.628   2.684  0.2268 -0.5602  0.2081
17172TIP3    H172931   5.772   1.611   2.643  1.2671  3.2767  0.5356
17172TIP3    H272932   5.704   1.701   2.743 -3.3411  0.3609  0.2030
17173TIP3   OH272933   5.502   5.611   0.997  0.3309  0.0013  0.1153
17173TIP3    H172934   5.547   5.579   1.076  0.0896 -0.1587  0.1857
17173TIP3    H272935   5.410   5.593   1.013  0.0188  2.1125  0.8137
17174TIP3   OH272936   4.207   0.976  10.805  0.2608 -0.0112 -0.6756
17174TIP3    H172937   4.208   0.988  10.900  3.1353 -3.5830 -0.1316
17174TIP3    H272938   4.122   0.936  10.786  0.6416 -1.5459  0.7556
17175TIP3   OH272939   1.568   4.045   3.198  0.3847  0.5007  0.6350
17175TIP3    H172940   1.580   4.096   3.279  0.4477  0.9439  0.3460
17175TIP3    H272941   1.648   3.994   3.191  0.9889  1.5064  0.1107
17176TIP3   OH272942   3.201   2.014   3.694 -0.7440 -0.4013  0.2011
17176TIP3    H172943   3.284   2.028   3.649 -0.7121 -0.6517  0.1820
17176TIP3    H272944   3.201   2.078   3.765 -0.3083 -0.7532  0.5154
17177TIP3   OH272945   6.213   1.691   0.957 -0.0840  0.1078  0.2572
17177TIP3    H172946   6.188   1.633   0.885  0.9534  0.1945 -0.1798
17177TIP3    H272947   6.215   1.779   0.917 -0.4923  0.2938  0.6370
17178TIP3   OH272948   0.680   3.405  14.262  0.5559 -0.6702  0.4608
17178TIP3    H172949   0.632   3.478  14.222  1.1083  0.0504  1.0985
17178TIP3    H272950   0.640   3.396  14.349  0.7680 -0.8640  0.5371
17179TIP3   OH272951   3.731   4.368  15.588  0.1175 -0.5431 -0.5497
17179TIP3    H172952   3.736   4.463  15.594 -0.9791 -0.4848 -0.4412
17179TIP3    H272953   3.641   4.347  15.612  0.9501 -1.7897  1.6369
17180TIP3   OH272954   2.711   3.310   5.796 -0.0517 -0.1459 -0.0792
17180TIP3    H172955   2.759   3.305   5.713 -1.1737 -1.6951 -0.6631
17180TIP3    H272956   2.711   3.221   5.830  0.0320  0.3986  1.3978
17181TIP3   OH272957   6.181   6.258  13.782 -0.1998  0.4161  0.1852
17181TIP3    H172958   6.248   6.190  13.791 -0.4285  0.0083 -1.0902
17181TIP3    H272959   6.133   6.255  13.865  0.4510 -0.2549  0.5452
17182TIP3   OH272960   5.465   2.267   4.373  0.2608  0.1208 -0.0875
17182TIP3    H172961   5.379   2.259   4.332 -0.0141 -1.3699  0.7512
17182TIP3    H272962   5.518   2.198   4.333  1.3033  1.4741 -1.1168
17183TIP3   OH272963   1.044   5.163  13.077 -0.0287 -0.2025 -0.3302
17183TIP3    H172964   0.953   5.179  13.052  0.2263 -1.2132 -1.9801
17183TIP3    H272965   1.088   5.141  12.995  1.9959  1.5413  0.2493
17184TIP3   OH272966   4.354   0.870  15.686 -0.7819  0.1384  0.1973
17184TIP3    H172967   4.445   0.844  15.701 -0.5312  0.9575  0.0960
17184TIP3    H272968   4.344   0.869  15.591 -0.6532  0.8423  0.1812
17185TIP3   OH272969   0.274   0.167   5.351  0.6033  0.0385  0.4460
17185TIP3    H172970   0.268   0.243   5.409  2.4102  1.1102 -0.7351
17185TIP3    H272971   0.329   0.105   5.399  0.9848  0.3737  0.4398
17186TIP3   OH272972   0.042   0.114  11.696  0.2804 -0.3817 -0.3308
17186TIP3    H172973  -0.050   0.134  11.679  0.4435  0.0582 -0.7232
17186TIP3    H272974   0.076   0.085  11.611  0.8033  0.6319 -0.4706
17187TIP3   OH272975   1.572   3.292  16.044  0.0262 -0.2926 -0.0808
17187TIP3    H172976   1.592   3.292  15.950  0.1085 -2.4296 -0.0883
17187TIP3    H272977   1.631   3.357  16.081  0.0423  0.5242 -1.4958
17188TIP3   OH272978   4.132   3.843  14.383  0.5541 -0.2049  0.4560
17188TIP3    H172979   4.195   3.844  14.311  0.3908  0.6989  0.3229
17188TIP3    H272980   4.129   3.933  14.414 -0.4499 -0.3004  0.6647
17189TIP3   OH272981   0.344   3.621  16.235  0.7713  0.1127  0.3655
17189TIP3    H172982   0.372   3.548  16.180  0.8375 -0.0993  0.6775
17189TIP3    H272983   0.413   3.628  16.302  1.8585  1.7936 -0.8718
17190TIP3   OH272984   5.669   3.093   2.196 -0.1398  0.0746 -0.0344
17190TIP3    H172985   5.762   3.077   2.213 -0.2873  0.5466  1.2853
17190TIP3    H272986   5.638   3.013   2.154  0.8481 -0.1138 -0.4185
17191TIP3   OH272987   1.691   5.505  17.072  0.3844  0.0691  0.1926
17191TIP3    H172988   1.661   5.491  16.983  0.6297  0.5664  0.0294
17191TIP3    H272989   1.779   5.543  17.062  0.4152  0.1180  0.6438
17192TIP3   OH272990   0.002   2.921   5.166 -0.1990 -0.9503 -0.1295
17192TIP3    H172991   0.093   2.892   5.163 -0.3237 -1.2668 -0.9573
17192TIP3    H272992  -0.044   2.852   5.214  0.0386 -0.6594  0.5280
17193TIP3   OH272993   1.732   6.031   0.393 -0.1320  0.1749  0.1171
17193TIP3    H172994   1.665   5.973   0.358 -1.8535  3.0576 -1.5505
17193TIP3    H272995   1.814   5.997   0.359 -1.0988 -1.3119 -0.7447
17194TIP3   OH272996   1.859   3.096   3.695 -0.5343 -0.2656 -0.1930
17194TIP3    H172997   1.891   3.185   3.678  2.1740 -0.9635  0.9763
17194TIP3    H272998   1.799   3.106   3.769 -1.2990  0.7610 -0.9370
17195TIP3   OH272999   1.754   1.051   6.399  0.2494 -0.2742 -0.1776
17195TIP3    H173000   1.668   1.057   6.440  0.5568 -0.1547  0.4662
17195TIP3    H273001   1.740   1.082   6.310 -0.4413 -0.5751 -0.1789
17196TIP3   OH273002   6.293   0.044   4.605  0.4592 -0.1349 -0.0665
17196TIP3    H173003   6.343   0.124   4.621  3.2534 -1.5520 -1.2899
17196TIP3    H273004   6.356  -0.016   4.564 -1.6967 -2.7619  0.2852
17197TIP3   OH273005   0.461   2.643  12.012  0.4424  0.3820  0.1643
17197TIP3    H173006   0.434   2.733  12.026 -0.2301  0.2876 -0.4314
17197TIP3    H273007   0.395   2.608  11.952 -0.0084 -0.8701  1.3690
17198TIP3   OH273008   5.658   5.707   6.081  0.0148  0.3943 -0.0028
17198TIP3    H173009   5.687   5.798   6.090 -0.8086  0.7000 -0.3186
17198TIP3    H273010   5.597   5.694   6.154  0.6991 -0.1366  0.4745
17199TIP3   OH273011   0.702   1.981   2.600  0.0715  0.2916  0.1910
17199TIP3    H173012   0.657   2.044   2.657  1.8732  0.4902  1.4167
17199TIP3    H273013   0.795   1.993   2.619  0.7162  0.4056 -2.8770
17200TIP3   OH273014   4.946   0.727  11.945 -0.0211 -0.1749 -0.1912
17200TIP3    H173015   4.909   0.658  11.890 -1.2745 -0.2063  0.6795
17200TIP3    H273016   4.903   0.716  12.030 -0.3976  1.8187 -0.1052
17201TIP3   OH273017   3.509   4.769  13.320 -0.0763  0.0254  0.5567
17201TIP3    H173018   3.426   4.796  13.281  1.6411  1.5966 -2.2643
17201TIP3    H273019   3.575   4.822  13.274  2.4092 -0.4244  3.4118
17202TIP3   OH273020   2.644   5.658   2.711 -0.8050 -0.0685  0.1152
17202TIP3    H173021   2.563   5.709   2.717 -0.6394  0.1266  0.6975
17202TIP3    H273022   2.712   5.717   2.743 -0.2135  0.2655 -1.6955
17203TIP3   OH273023   6.756   5.638   3.592 -0.5531 -0.3662  0.2586
17203TIP3    H173024   6.734   5.626   3.500  0.4007  2.1213 -0.3276
17203TIP3    H273025   6.851   5.634   3.595 -0.5695 -0.2499  1.0969
17204TIP3   OH273026   4.840   4.676   1.560 -0.1424  0.0482 -0.6229
17204TIP3    H173027   4.897   4.736   1.511  0.4882 -1.4393 -1.7503
17204TIP3    H273028   4.754   4.685   1.519 -0.1126  0.3708 -0.6166
17205TIP3   OH273029   6.491   3.927   5.501 -0.3509 -0.2351 -0.6457
17205TIP3    H173030   6.535   3.894   5.422  0.2216 -1.0392  0.0089
17205TIP3    H273031   6.398   3.926   5.479 -0.2951 -1.7090 -0.8453
17206TIP3   OH273032   2.453   1.264  14.316  0.4055 -0.2368  0.2534
17206TIP3    H173033   2.542   1.277  14.283  0.6113 -1.6292  0.2367
17206TIP3    H273034   2.462   1.273  14.411  0.8018 -1.5254  0.3578
17207TIP3   OH273035   3.267   1.329  13.884 -0.2554  0.2596  0.3315
17207TIP3    H173036   3.268   1.398  13.951 -1.3071 -0.0455  0.6532
17207TIP3    H273037   3.354   1.336  13.843  0.1542  0.8800  1.2745
17208TIP3   OH273038   3.993   4.382  11.233 -0.0851  0.4985 -0.1232
17208TIP3    H173039   3.990   4.478  11.230  0.8559  0.4941 -1.4387
17208TIP3    H273040   4.028   4.356  11.148 -2.0388 -1.1050 -0.4767
17209TIP3   OH273041   5.953   4.096   5.458  0.1367  0.2630  0.6528
17209TIP3    H173042   5.950   4.137   5.371 -2.6916 -1.2032  0.0165
17209TIP3    H273043   6.045   4.103   5.484  0.7896  1.9196 -1.8674
17210TIP3   OH273044   4.082   5.488  14.201 -0.3397  0.1950 -0.0036
17210TIP3    H173045   4.036   5.493  14.285 -1.3131 -1.1401 -0.4423
17210TIP3    H273046   4.016   5.513  14.136  0.0515 -0.0246 -0.4856
17211TIP3   OH273047   0.397   4.396  11.870  0.0812  0.1813 -0.1514
17211TIP3    H173048   0.382   4.443  11.953 -0.5924 -1.1625  0.5061
17211TIP3    H273049   0.314   4.351  11.854  0.2243  0.3911 -1.5548
17212TIP3   OH273050   4.101   0.450   0.937  0.1238 -0.2286 -0.7355
17212TIP3    H173051   4.081   0.370   0.888 -0.1508 -0.3530 -0.4197
17212TIP3    H273052   4.186   0.432   0.978 -0.3639 -0.7100  0.0795
17213TIP3   OH273053   2.346   0.919  11.625  0.4026  0.0738 -0.1833
17213TIP3    H173054   2.441   0.907  11.617  0.1176 -2.2535 -0.3611
17213TIP3    H273055   2.311   0.895  11.539 -0.4731 -0.4788  0.3182
17214TIP3   OH273056   3.265   2.277   5.829 -0.2380 -0.2389 -0.1398
17214TIP3    H173057   3.277   2.307   5.919 -0.3183  3.7809 -1.3536
17214TIP3    H273058   3.173   2.253   5.823 -1.1324  2.9459 -0.0107
17215TIP3   OH273059   5.428   2.405  10.674  0.1658 -0.3328 -0.2417
17215TIP3    H173060   5.493   2.376  10.610  0.8826 -0.8482  0.7195
17215TIP3    H273061   5.475   2.468  10.728 -0.4430  0.0937 -0.2038
17216TIP3   OH273062   2.356   0.585   2.154 -0.5652  0.3383 -0.5913
17216TIP3    H173063   2.376   0.588   2.248  0.5174 -0.2354 -0.7865
17216TIP3    H273064   2.308   0.665   2.137  0.5494  1.1922  0.1746
17217TIP3   OH273065   6.007   3.821   4.149 -0.2640 -0.0755 -0.1953
17217TIP3    H173066   5.921   3.829   4.190 -0.9633 -0.5087 -1.5391
17217TIP3    H273067   6.006   3.887   4.080 -0.5282 -1.8499 -1.9072
17218TIP3   OH273068   5.543   6.078  17.035 -0.3365 -1.1272  0.1153
17218TIP3    H173069   5.591   5.998  17.057 -0.5562 -1.2021  0.3202
17218TIP3    H273070   5.454   6.061  17.065 -0.5286 -1.0531 -0.4211
17219TIP3   OH273071   4.203   6.264   4.305 -0.0952  0.5474  1.0686
17219TIP3    H173072   4.255   6.337   4.340  1.9317  0.2200 -1.1165
17219TIP3    H273073   4.266   6.213   4.254 -1.7290 -2.1442  1.6796
17220TIP3   OH273074   0.047   1.572  16.950  0.1004  0.7897  0.0951
17220TIP3    H173075   0.031   1.486  16.988  0.1513  0.7981  0.1335
17220TIP3    H273076  -0.037   1.618  16.958 -0.0584  0.5767 -0.3586
17221TIP3   OH273077   4.738   0.846   3.281  0.1820  0.1397  0.1639
17221TIP3    H173078   4.828   0.878   3.288 -0.0294  0.9580 -0.6705
17221TIP3    H273079   4.748   0.755   3.254  0.7694  0.4986 -0.9092
17222TIP3   OH273080   4.030   2.554  15.866  0.1038 -0.4535 -0.2069
17222TIP3    H173081   4.057   2.638  15.901 -0.9921  0.6731 -2.0022
17222TIP3    H273082   4.112   2.510  15.842  0.5914  1.0062 -1.2869
17223TIP3   OH273083   2.601   2.472   5.069 -0.0121 -0.4575  0.6163
17223TIP3    H173084   2.544   2.416   5.016 -0.5471  1.2460 -0.6565
17223TIP3    H273085   2.565   2.560   5.057  0.7989  0.1544  2.6023
17224TIP3   OH273086   2.021   1.386  16.539 -0.1818 -0.0792  0.0341
17224TIP3    H173087   2.034   1.452  16.607 -0.2888  0.1065 -0.1269
17224TIP3    H273088   1.962   1.427  16.476 -1.4841 -0.8833  0.7176
17225TIP3   OH273089   1.051   1.904  13.522 -0.3897  0.3516 -0.1689
17225TIP3    H173090   1.068   1.983  13.470 -0.9762 -1.0304 -2.5015
17225TIP3    H273091   1.013   1.842  13.461 -1.1436 -1.3321  1.9309
17226TIP3   OH273092   3.231   3.110  14.908 -0.0051 -0.1158  0.0290
17226TIP3    H173093   3.185   3.044  14.856 -0.7850  0.9195 -0.6107
17226TIP3    H273094   3.291   3.151  14.846 -2.4344  2.5752 -0.6159
17227TIP3   OH273095   1.643   3.349   6.246 -0.0791 -0.6108 -0.2874
17227TIP3    H173096   1.711   3.294   6.207 -0.9917 -0.8047 -1.6659
17227TIP3    H273097   1.672   3.439   6.228 -0.2782 -0.6955 -1.0559
17228TIP3   OH273098   1.933   6.362  13.887  0.2510 -0.2583 -0.1829
17228TIP3    H173099   1.902   6.280  13.927 -0.2001 -0.3631 -0.7453
17228TIP3    H273100   1.993   6.399  13.952 -0.4360 -0.4533  0.5625
17229TIP3   OH273101   3.930   0.761  16.237 -0.0340 -0.2351 -0.4133
17229TIP3    H173102   3.852   0.720  16.274  0.3688 -1.8722 -1.3556
17229TIP3    H273103   3.993   0.763  16.309 -0.6301  0.2989  0.0994
17230TIP3   OH273104   3.479   3.430   3.062 -0.4720  0.3469  0.1787
17230TIP3    H173105   3.412   3.413   3.129 -2.2092 -0.3738 -1.6786
17230TIP3    H273106   3.509   3.519   3.079 -1.3753  0.4018  1.5077
17231TIP3   OH273107   4.620   2.712   0.232  0.1099  0.1282 -0.3376
17231TIP3    H173108   4.645   2.675   0.148  3.0086  1.1340  0.0507
17231TIP3    H273109   4.611   2.636   0.290  0.2142 -0.3959 -1.0003
17232TIP3   OH273110   3.234   1.367  16.057  0.3143  0.4480  0.6029
17232TIP3    H173111   3.229   1.457  16.088  2.7065  0.3553  1.3538
17232TIP3    H273112   3.219   1.313  16.135  0.6489  0.2063  0.5018
17233TIP3   OH273113   3.062   6.753   5.571  0.6034  0.8224 -0.2165
17233TIP3    H173114   3.132   6.720   5.515  1.5022  1.2962  0.6027
17233TIP3    H273115   3.102   6.827   5.617 -0.4171  1.0492  0.3150
17234TIP3   OH273116   5.519   1.360  10.667  0.4129 -0.6030  0.3445
17234TIP3    H173117   5.456   1.354  10.738  0.9008  1.1071  0.9555
17234TIP3    H273118   5.581   1.289  10.684  1.1930  0.4962  2.3295
17235TIP3   OH273119   4.319   1.590   0.364  0.2275 -0.7210 -0.2974
17235TIP3    H173120   4.315   1.546   0.449  0.6802  1.9448  1.1439
17235TIP3    H273121   4.230   1.621   0.348  0.0470 -1.5849 -1.0200
17236TIP3   OH273122   2.181   6.618  12.296  0.0285 -0.7064  0.2895
17236TIP3    H173123   2.188   6.562  12.220 -0.2889  2.6812 -2.3764
17236TIP3    H273124   2.270   6.653  12.308 -0.8901  2.5813 -1.7197
17237TIP3   OH273125   1.979   6.470   4.465 -0.3268 -0.7069 -0.7295
17237TIP3    H173126   1.965   6.377   4.448  0.3074 -0.7802 -0.8816
17237TIP3    H273127   2.055   6.472   4.523  0.5452 -0.2165 -1.8611
17238TIP3   OH273128   2.297   2.959  13.300 -0.5885  0.1202  0.3691
17238TIP3    H173129   2.228   2.922  13.245 -0.7881  2.8544 -1.3497
17238TIP3    H273130   2.340   3.023  13.243  1.0611  1.0026  2.5471
17239TIP3   OH273131   2.161   0.563  11.236  0.4240  0.0910  0.4124
17239TIP3    H173132   2.236   0.519  11.275 -0.4043 -0.5943  1.2555
17239TIP3    H273133   2.153   0.524  11.149  0.5698 -0.3871  0.6120
17240TIP3   OH273134   3.199   0.158  12.195 -0.2614  0.5141 -0.4409
17240TIP3    H173135   3.241   0.072  12.196  0.7570  1.0155  1.5148
17240TIP3    H273136   3.111   0.141  12.229 -0.7780 -0.0940 -2.0495
17241TIP3   OH273137   6.241   2.408  10.953  0.1435 -0.6134 -0.1851
17241TIP3    H173138   6.153   2.371  10.939 -1.0133  2.5201 -1.8347
17241TIP3    H273139   6.279   2.412  10.865  1.3565 -0.5863  0.3358
17242TIP3   OH273140   3.444   6.326   1.793 -0.3707  0.1832  0.1258
17242TIP3    H173141   3.373   6.389   1.797 -0.7548 -0.3026  1.1787
17242TIP3    H273142   3.406   6.249   1.750 -0.3697  0.0757  0.3139
17243TIP3   OH273143   4.782   6.190  12.936  1.1807  0.3231 -0.0669
17243TIP3    H173144   4.714   6.140  12.891 -1.6285  3.5418  0.4241
17243TIP3    H273145   4.859   6.181  12.879  0.2931 -3.0324 -0.8610
17244TIP3   OH273146   1.000   4.853  14.204 -0.1097 -0.5107  0.2302
17244TIP3    H173147   1.026   4.795  14.275 -1.8671  0.2839  1.5683
17244TIP3    H273148   0.920   4.895  14.235  0.2406  1.4256 -1.3608
17245TIP3   OH273149   3.700   3.497   1.264 -1.2029 -0.5617  0.1958
17245TIP3    H173150   3.777   3.547   1.288 -0.8146 -1.4813  0.9181
17245TIP3    H273151   3.668   3.538   1.184 -1.7909  1.7711  1.6093
17246TIP3   OH273152   3.521   3.395  15.744  0.0023  0.0234  0.4286
17246TIP3    H173153   3.576   3.322  15.715  2.3527  1.2302  1.6917
17246TIP3    H273154   3.442   3.353  15.778  1.2787 -1.9541  1.0813
17247TIP3   OH273155   6.376   5.635   4.460  0.2815  0.0164  0.0732
17247TIP3    H173156   6.283   5.638   4.480  0.1132 -0.0005 -0.6988
17247TIP3    H273157   6.385   5.681   4.377  1.2394  1.6973  1.0954
17248TIP3   OH273158   1.803   5.138  13.185 -0.0890  0.2350  0.1778
17248TIP3    H173159   1.744   5.076  13.230 -1.6990  1.2039 -0.5557
17248TIP3    H273160   1.773   5.138  13.094  1.8491 -0.1648 -0.4883
17249TIP3   OH273161   3.279   4.630   2.530 -0.9153 -0.1945 -0.1634
17249TIP3    H173162   3.321   4.561   2.582 -1.1595  0.3712  0.7849
17249TIP3    H273163   3.185   4.620   2.548 -0.8579  1.2177  1.0155
17250TIP3   OH273164   4.477   0.113   0.677  0.2920  0.5938 -0.6042
17250TIP3    H173165   4.410   0.046   0.689  1.8813 -0.6417  1.8865
17250TIP3    H273166   4.428   0.194   0.665 -1.6535 -0.3100  0.9754
17251TIP3   OH273167   2.866   0.365  14.732 -0.2221 -0.7461  0.6621
17251TIP3    H173168   2.846   0.349  14.640 -2.9508  0.1363  1.0447
17251TIP3    H273169   2.815   0.299  14.779 -0.1098 -0.1816  1.5933
17252TIP3   OH273170   3.540   0.592   2.760  0.5039  0.3699 -0.2040
17252TIP3    H173171   3.526   0.580   2.854 -1.2849 -0.6520 -0.5786
17252TIP3    H273172   3.570   0.507   2.728 -1.6623 -0.1213 -1.0205
17253TIP3   OH273173   3.788   3.883   5.237  0.1166  0.0545 -0.0137
17253TIP3    H173174   3.883   3.896   5.233 -0.4390  4.5405 -1.6972
17253TIP3    H273175   3.767   3.887   5.330  1.4509 -0.0644  0.3081
17254TIP3   OH273176   6.701   2.180  14.588 -0.1270  1.0806  0.0470
17254TIP3    H173177   6.739   2.162  14.674  0.1160  1.0219 -0.0738
17254TIP3    H273178   6.708   2.097  14.541 -0.1219  1.1556 -0.0849
17255TIP3   OH273179   2.532   0.429   4.107 -0.3039 -0.6516  0.0123
17255TIP3    H173180   2.532   0.503   4.168 -1.0813  0.1125 -0.9174
17255TIP3    H273181   2.444   0.392   4.115 -1.9155  2.0962 -3.8252
17256TIP3   OH273182   1.391   2.342   2.806 -0.7540  0.5547 -0.2479
17256TIP3    H173183   1.399   2.379   2.894  0.0481 -0.4410  0.1063
17256TIP3    H273184   1.334   2.266   2.818 -1.4093  0.9567 -0.7640
17257TIP3   OH273185   3.141   0.445   3.584 -0.4966 -0.7402 -0.5165
17257TIP3    H173186   3.084   0.475   3.655  0.7937 -0.5187  0.4505
17257TIP3    H273187   3.111   0.356   3.566 -2.0531 -0.1432 -0.9991
17258TIP3   OH273188   6.131   0.217  16.660  0.0777  0.2056 -0.4141
17258TIP3    H173189   6.088   0.272  16.725 -1.7498  0.8755 -2.1189
17258TIP3    H273190   6.216   0.197  16.698 -1.2636 -0.1641  2.5422
17259TIP3   OH273191   3.713   4.539  12.088  0.1956  0.1946 -0.5480
17259TIP3    H173192   3.752   4.594  12.020 -2.1204 -0.0975 -2.2001
17259TIP3    H273193   3.754   4.454  12.078 -0.1646  0.1450 -1.6227
17260TIP3   OH273194   6.412   1.168  11.811 -0.2944  0.5148 -0.0660
17260TIP3    H173195   6.416   1.139  11.720 -1.2054  0.7796 -0.1909
17260TIP3    H273196   6.400   1.263  11.806 -0.9586  0.4522  0.3285
17261TIP3   OH273197   0.466   3.506   0.604  0.1969 -0.0229  0.5126
17261TIP3    H173198   0.421   3.515   0.520  0.2176 -0.5635  0.4372
17261TIP3    H273199   0.559   3.514   0.582  0.1727  0.3413  0.5551
17262TIP3   OH273200   1.007   4.978  11.494  0.4197 -0.5714 -0.6295
17262TIP3    H173201   1.085   5.014  11.537 -0.5331  1.0589 -0.2339
17262TIP3    H273202   1.032   4.969  11.402  1.3247 -0.7961 -0.3678
17263TIP3   OH273203   3.470   4.607  11.973  0.2211  0.3510  0.0856
17263TIP3    H173204   3.469   4.672  12.043  0.2828  0.9200 -0.4317
17263TIP3    H273205   3.555   4.564  11.981  0.3740  0.6598  0.1497
17264TIP3   OH273206   0.593   1.382  14.046 -0.2786  0.0535 -0.3492
17264TIP3    H173207   0.663   1.446  14.051  0.0179 -0.3291  0.5315
17264TIP3    H273208   0.607   1.336  13.963 -0.1259  0.7014 -0.6814
17265TIP3   OH273209   0.239   2.003  16.231 -0.0616 -0.3414  0.2166
17265TIP3    H173210   0.207   1.964  16.149 -1.2329  1.2142 -0.0713
17265TIP3    H273211   0.330   1.974  16.236  0.3027  0.2421 -2.0955
17266TIP3   OH273212   6.584   5.208   1.792  0.9822  0.1744 -0.1247
17266TIP3    H173213   6.597   5.282   1.852 -1.0654  1.1416 -0.8266
17266TIP3    H273214   6.632   5.136   1.832  3.7474  2.0816  0.1461
17267TIP3   OH273215   3.567   2.192  13.898 -0.3419  0.5674 -0.4487
17267TIP3    H173216   3.660   2.172  13.898 -0.3545  0.5053 -0.7309
17267TIP3    H273217   3.524   2.106  13.907 -0.3746  0.5786 -0.4978
17268TIP3   OH273218   2.456   6.364   3.534  0.0473 -0.3830 -0.3781
17268TIP3    H173219   2.411   6.440   3.570 -0.8036 -0.5603 -1.0506
17268TIP3    H273220   2.531   6.400   3.488 -1.5468  0.2662 -2.5599
17269TIP3   OH273221   4.028   0.794  14.394 -0.5185  0.7276 -0.1937
17269TIP3    H173222   4.081   0.840  14.328 -0.6764  2.0385  0.5806
17269TIP3    H273223   4.016   0.706  14.357 -0.8025  1.5056 -2.0125
17270TIP3   OH273224   2.434   3.587  14.330  0.3173 -0.2065 -0.0107
17270TIP3    H173225   2.409   3.564  14.240  0.1685  1.3162 -0.3885
17270TIP3    H273226   2.486   3.513  14.361  1.9091  0.0159 -2.0079
17271TIP3   OH273227   3.521   0.283  14.572 -0.2391  0.3141 -0.2088
17271TIP3    H173228   3.464   0.242  14.637 -0.9166  1.9894  0.2892
17271TIP3    H273229   3.475   0.270  14.489 -0.6802  0.4669  0.0078
17272TIP3   OH273230   2.839   5.712  11.901 -0.0730  0.6442  0.3793
17272TIP3    H173231   2.755   5.751  11.925 -1.4829 -1.2895 -1.2892
17272TIP3    H273232   2.885   5.700  11.984 -2.5627 -0.7996  1.5720
17273TIP3   OH273233   4.466   1.835  14.711 -0.0162 -0.3662 -0.5453
17273TIP3    H173234   4.410   1.817  14.636 -1.3042 -0.5636  0.4374
17273TIP3    H273235   4.487   1.928  14.705 -0.2478 -0.3484 -1.0641
17274TIP3   OH273236   4.599   6.021  10.831 -0.4557 -0.1114 -0.5270
17274TIP3    H173237   4.694   6.022  10.817 -0.4468  2.4636 -0.5688
17274TIP3    H273238   4.561   6.016  10.744 -0.3668  0.2190 -0.5834
17275TIP3   OH273239   4.451   3.900  16.033  0.5843  0.1901  0.2084
17275TIP3    H173240   4.369   3.880  15.986  0.1071  0.7355  0.8011
17275TIP3    H273241   4.459   3.995  16.027  0.1840  0.3386  1.7745
17276TIP3   OH273242   3.705   2.603  15.030  0.8950 -0.6484 -0.0604
17276TIP3    H173243   3.628   2.557  14.995  0.7031 -0.3936  0.0265
17276TIP3    H273244   3.707   2.581  15.123  0.6312 -0.2396  0.0428
17277TIP3   OH273245   5.229   3.204   3.759  0.5985 -0.3273  0.1940
17277TIP3    H173246   5.137   3.229   3.757 -0.2107 -3.2155 -1.8807
17277TIP3    H273247   5.262   3.223   3.671  1.8803  0.2133  0.7682
17278TIP3   OH273248   6.498   6.282   4.046 -0.0679 -0.2285  0.5612
17278TIP3    H173249   6.490   6.266   4.140  1.2823 -0.8322  0.5738
17278TIP3    H273250   6.556   6.213   4.014  0.6836  0.8697 -0.4680
17279TIP3   OH273251   2.175   2.637  17.073 -0.2674  0.7399 -0.7527
17279TIP3    H173252   2.181   2.624  17.167  0.7851 -1.2428 -1.0596
17279TIP3    H273253   2.082   2.651  17.056 -0.6428 -0.2465  0.4299
17280TIP3   OH273254   0.626   5.635  13.569 -0.5819 -0.2708 -0.3169
17280TIP3    H173255   0.619   5.730  13.571 -0.7848 -0.2967  0.2000
17280TIP3    H273256   0.690   5.617  13.500  1.4939  0.3305  1.4151
17281TIP3   OH273257   0.567   2.724  14.892  0.3106  0.4001  0.0926
17281TIP3    H173258   0.640   2.785  14.885  0.5875  0.1076  0.4050
17281TIP3    H273259   0.585   2.674  14.972  0.3172 -0.3841 -0.3879
17282TIP3   OH273260   1.943   5.894   4.553 -0.1374 -0.5826  0.9380
17282TIP3    H173261   1.918   5.853   4.471 -1.4214 -2.0932  2.0450
17282TIP3    H273262   1.868   5.949   4.577  1.2730  1.9220 -0.1628
17283TIP3   OH273263   6.232   5.344   3.754  0.6481  0.1440 -0.6436
17283TIP3    H173264   6.190   5.351   3.669  0.9332  1.1629 -0.7050
17283TIP3    H273265   6.168   5.300   3.810 -0.1327  0.8774 -0.9685
17284TIP3   OH273266   4.272   6.020  10.380 -0.0772  0.3740 -0.5396
17284TIP3    H173267   4.318   5.995  10.461  0.5313  0.2141 -0.9291
17284TIP3    H273268   4.262   6.115  10.387  0.8064  0.4811 -0.7010
17285TIP3   OH273269   4.927   6.540   0.300 -0.2987  0.4592 -0.7029
17285TIP3    H173270   4.888   6.499   0.223  0.9893 -1.2696 -0.4704
17285TIP3    H273271   4.927   6.471   0.367 -2.1707  2.1796  1.1397
17286TIP3   OH273272   4.101   0.532   3.029  0.3469 -0.0073 -0.1498
17286TIP3    H173273   4.178   0.586   3.010  0.2108 -0.0193 -0.7522
17286TIP3    H273274   4.130   0.442   3.012  0.2766 -0.0358 -0.1204
17287TIP3   OH273275   0.746   3.047   5.537 -0.2007 -0.3901  0.3073
17287TIP3    H173276   0.830   3.039   5.581  0.2020  1.9443  0.0512
17287TIP3    H273277   0.764   3.024   5.446  0.6373  2.0713 -0.1745
17288TIP3   OH273278   0.094   6.134  17.233 -0.0880  0.2277 -0.2894
17288TIP3    H173279   0.156   6.104  17.166  1.6428 -1.7510  2.1202
17288TIP3    H273280   0.011   6.094  17.208  0.6021 -0.7160 -1.0965
17289TIP3   OH273281   3.597   2.171  16.533 -0.2431  0.2053 -0.3380
17289TIP3    H173282   3.515   2.219  16.542  1.0525  2.4124 -0.1416
17289TIP3    H273283   3.573   2.080  16.553 -2.6169  0.8127 -0.2475
17290TIP3   OH273284   6.397   3.466  16.444  0.0979 -0.3662 -0.0456
17290TIP3    H173285   6.379   3.466  16.351 -0.1831 -1.3126  0.0030
17290TIP3    H273286   6.458   3.539  16.457 -0.9112  0.6119 -0.7514
17291TIP3   OH273287   3.078   1.296  11.289  0.5704  0.4734  0.1201
17291TIP3    H173288   3.144   1.237  11.252  0.2947  0.3164 -0.1289
17291TIP3    H273289   3.010   1.300  11.222  0.4810  0.8940  0.2350
17292TIP3   OH273290   2.799   2.014   6.469  0.2667 -0.0200  0.2369
17292TIP3    H173291   2.708   2.042   6.484 -0.0306 -0.2176 -1.1825
17292TIP3    H273292   2.851   2.093   6.488 -0.1386 -0.0477  1.5612
17293TIP3   OH273293   5.761   2.283   4.748 -0.1476  0.3441  0.2642
17293TIP3    H173294   5.752   2.205   4.694 -0.3987  0.5232  0.0491
17293TIP3    H273295   5.673   2.321   4.751  0.0318  0.7719  0.1410
17294TIP3   OH273296   3.983   1.381  15.092 -0.2881  0.1745 -0.0198
17294TIP3    H173297   3.907   1.431  15.064  1.1457  2.0074 -0.8054
17294TIP3    H273298   4.048   1.448  15.116  1.2607 -1.3168  0.0685
17295TIP3   OH273299   0.541   2.545   6.020 -0.3277 -0.3501  0.6157
17295TIP3    H173300   0.498   2.459   6.018  2.8253 -1.9643  0.2701
17295TIP3    H273301   0.538   2.572   6.111 -1.1762 -0.8795  0.7520
17296TIP3   OH273302   5.320   4.804  13.869  0.5490  0.0186  0.4656
17296TIP3    H173303   5.415   4.794  13.880  0.4340 -0.7019  0.8643
17296TIP3    H273304   5.301   4.892  13.900  1.0640  0.0993  0.5568
17297TIP3   OH273305   1.667   0.721   3.319  0.8427  0.6123  0.3345
17297TIP3    H173306   1.742   0.661   3.324  0.7730  0.6169  1.5357
17297TIP3    H273307   1.669   0.770   3.401 -1.1630 -0.2075  0.9102
17298TIP3   OH273308   3.770   0.701   4.881  0.1507  0.4033  0.3561
17298TIP3    H173309   3.726   0.677   4.963 -0.9163  0.6859 -0.1180
17298TIP3    H273310   3.735   0.788   4.860  1.0009  0.6618  0.0044
17299TIP3   OH273311   5.532   4.241  16.563  0.3520  0.3225  0.2128
17299TIP3    H173312   5.527   4.179  16.636 -0.4027  1.6390  1.2841
17299TIP3    H273313   5.584   4.314  16.597 -1.7008  1.8592  0.1148
17300TIP3   OH273314   0.093   4.868  12.167 -0.1298  0.8690  0.5178
17300TIP3    H173315   0.096   4.961  12.148  0.8187  0.7424  0.0517
17300TIP3    H273316   0.166   4.830  12.118  1.5531  0.3591  3.3008
17301TIP3   OH273317   0.846   0.073   2.974 -0.4414  0.3689 -0.3984
17301TIP3    H173318   0.876   0.028   3.053 -0.3611  1.6245  0.2946
17301TIP3    H273319   0.925   0.107   2.933 -0.5972  0.7680 -0.3710
17302TIP3   OH273320   0.495   5.517   3.338  0.5848 -0.2619  0.4751
17302TIP3    H173321   0.579   5.471   3.330  1.3099  1.4870 -3.4869
17302TIP3    H273322   0.514   5.592   3.395  0.7288 -1.8320  2.5584
17303TIP3   OH273323   6.230   0.133   2.875  0.1237  0.1635 -0.0533
17303TIP3    H173324   6.145   0.144   2.832 -0.4507 -0.9963  0.7536
17303TIP3    H273325   6.282   0.083   2.811 -0.1609 -0.0592 -0.1144
17304TIP3   OH273326   4.245   6.441  14.948 -0.1298  0.6537 -0.6171
17304TIP3    H173327   4.214   6.499  14.880  0.6115 -1.0756 -2.4878
17304TIP3    H273328   4.332   6.412  14.918 -1.8469 -4.0786 -1.5105
17305TIP3   OH273329   5.023   4.827  11.224  0.2254  0.3879 -0.2422
17305TIP3    H173330   5.088   4.896  11.215  1.0221 -0.2150  0.8924
17305TIP3    H273331   5.024   4.782  11.139  2.2593 -0.4782  0.2330
17306TIP3   OH273332   4.064   0.982  14.902  0.5460  0.0819  0.4916
17306TIP3    H173333   4.066   0.957  14.809  1.4735 -0.8944  0.7628
17306TIP3    H273334   4.137   0.935  14.941  0.8545  1.3793  1.5111
17307TIP3   OH273335   2.831   6.498  14.944  0.0753  0.1299  0.0993
17307TIP3    H173336   2.915   6.451  14.943 -0.0910 -0.1520 -0.6225
17307TIP3    H273337   2.779   6.452  15.010  0.6384  0.5704  0.8590
17308TIP3   OH273338   2.357   6.150  17.166  0.1789  0.8368 -0.1084
17308TIP3    H173339   2.304   6.094  17.223 -0.4914  1.5396 -0.0363
17308TIP3    H273340   2.407   6.206  17.225  1.8646 -0.5705 -0.1421
17309TIP3   OH273341   3.489   2.991   6.670  0.0857 -0.1708  0.7235
17309TIP3    H173342   3.531   3.060   6.619  1.5735 -1.3034  0.3682
17309TIP3    H273343   3.430   3.037   6.729  0.3099  1.3328 -0.1994
17310TIP3   OH273344   4.055   2.769  16.486  0.5621 -0.2086 -0.2530
17310TIP3    H173345   3.974   2.817  16.499  1.2839  1.5345 -1.9430
17310TIP3    H273346   4.094   2.764  16.573  0.4467  2.2617 -0.0388
17311TIP3   OH273347   6.460   1.669   5.931 -0.4075  0.1792  0.0485
17311TIP3    H173348   6.422   1.689   6.017 -0.2642  1.9987 -0.2989
17311TIP3    H273349   6.429   1.580   5.912 -2.6019  0.7373  0.8141
17312TIP3   OH273350   4.976   6.059  16.349 -0.1517  0.5022 -0.1748
17312TIP3    H173351   5.039   5.988  16.356 -0.4247  0.1169 -1.5189
17312TIP3    H273352   4.958   6.084  16.440  0.7099 -0.4550  0.2724
17313TIP3   OH273353   5.976   0.313   2.502 -0.3933 -0.0605 -0.1959
17313TIP3    H173354   5.883   0.292   2.498  0.0132 -1.9231 -0.3003
17313TIP3    H273355   6.012   0.248   2.563  1.2827 -1.1175 -2.2557
17314TIP3   OH273356   0.275   1.297   6.263  0.5889  0.2255 -0.4619
17314TIP3    H173357   0.291   1.249   6.182 -3.0693 -1.4637 -0.2746
17314TIP3    H273358   0.309   1.241   6.332 -1.8695 -1.2633 -0.4044
17315TIP3   OH273359   1.702   6.784   2.370 -0.2234  0.3758  0.2340
17315TIP3    H173360   1.749   6.745   2.444  1.8625 -1.3107 -1.9011
17315TIP3    H273361   1.664   6.709   2.324 -1.5238  1.4138 -0.3999
17316TIP3   OH273362   4.701   3.054   4.658 -0.4144 -0.1475  0.3185
17316TIP3    H173363   4.606   3.066   4.654 -0.4030 -0.1474  0.0448
17316TIP3    H273364   4.713   2.960   4.647 -0.2888  0.0481 -1.3794
17317TIP3   OH273365   0.156   0.978  16.416 -0.8099  0.3657 -0.7078
17317TIP3    H173366   0.116   0.931  16.490 -1.5526  0.6647 -0.9089
17317TIP3    H273367   0.204   0.911  16.368 -1.7273 -0.1656 -0.8981
17318TIP3   OH273368   4.074   5.069  16.755  0.0040 -0.1195 -0.9735
17318TIP3    H173369   4.041   5.153  16.723  0.0876  0.5710  0.7018
17318TIP3    H273370   3.997   5.025  16.790  0.1281 -0.3459 -0.9857
17319TIP3   OH273371   0.380   2.399   5.670 -0.5112 -0.5757  0.2393
17319TIP3    H173372   0.386   2.442   5.585  3.1085  1.5362  1.4754
17319TIP3    H273373   0.344   2.466   5.728  0.9180 -0.6618  1.2299
17320TIP3   OH273374   2.605   1.438   3.140 -0.1213 -0.5376  0.0685
17320TIP3    H173375   2.656   1.364   3.174 -0.4476 -2.0852 -2.6672
17320TIP3    H273376   2.525   1.398   3.104 -1.6770  1.4804  1.1557
17321TIP3   OH273377   4.380   1.821  14.427 -0.6307 -0.5733  0.4853
17321TIP3    H173378   4.445   1.891  14.418 -0.5981 -0.6634  0.0221
17321TIP3    H273379   4.425   1.742  14.398 -0.8507 -0.6852  0.4435
17322TIP3   OH273380   5.953   5.661  17.068  0.0006  0.4728 -0.1264
17322TIP3    H173381   5.948   5.607  16.989 -1.4484  0.4459 -0.0408
17322TIP3    H273382   6.046   5.665  17.089  0.4092  0.4748 -1.8345
17323TIP3   OH273383   2.875   1.760   5.004  0.2985 -0.4647  0.4039
17323TIP3    H173384   2.907   1.697   4.939 -1.1589 -0.7633 -0.0537
17323TIP3    H273385   2.892   1.846   4.964 -0.8470 -0.6494 -0.5245
17324TIP3   OH273386   4.284   4.746   1.343  0.2918  0.9389 -0.1416
17324TIP3    H173387   4.266   4.812   1.276  1.1719 -0.0568 -1.3782
17324TIP3    H273388   4.366   4.705   1.315  0.4017  0.1698  1.2798
17325TIP3   OH273389   0.402   2.395  12.643 -0.8032 -0.4213  0.3361
17325TIP3    H173390   0.465   2.388  12.714 -0.5017 -1.3738 -0.0205
17325TIP3    H273391   0.325   2.346  12.675 -0.7276 -0.7099  0.0732
17326TIP3   OH273392   1.049   6.655  13.766  0.1001  0.0980 -0.4498
17326TIP3    H173393   0.962   6.617  13.775  0.5711 -0.9154 -0.0878
17326TIP3    H273394   1.089   6.606  13.693  0.3303  0.6142 -0.6707
17327TIP3   OH273395   3.369   5.623  11.552 -0.4692  0.1594  0.1254
17327TIP3    H173396   3.289   5.570  11.548  0.3404 -1.0483 -0.6598
17327TIP3    H273397   3.414   5.593  11.630  0.2089 -0.6541 -0.5649
17328TIP3   OH273398   2.533   2.606   1.355 -0.1484  0.1208 -0.6604
17328TIP3    H173399   2.484   2.688   1.347 -0.7175 -0.2906 -1.4612
17328TIP3    H273400   2.513   2.558   1.275  1.6245 -0.0401 -1.0279
17329TIP3   OH273401   3.496   4.281  13.178  0.5865  0.1717 -0.1800
17329TIP3    H173402   3.504   4.348  13.247 -1.1824  0.8146 -0.5575
17329TIP3    H273403   3.534   4.322  13.100  2.3686 -0.4641  0.3420
17330TIP3   OH273404   1.783   3.894   0.564 -0.2587 -0.0614 -0.0275
17330TIP3    H173405   1.772   3.895   0.469 -0.2064 -0.2099 -0.0352
17330TIP3    H273406   1.799   3.802   0.586 -0.4196 -0.0505  0.1419
17331TIP3   OH273407   5.488   5.720  11.381  0.2997  0.2039  0.1344
17331TIP3    H173408   5.566   5.723  11.325 -0.3966  2.3948 -0.7809
17331TIP3    H273409   5.440   5.644  11.351  0.7264  0.4350 -1.1816
17332TIP3   OH273410   0.039   3.160  15.855 -0.0500  0.0569 -0.0644
17332TIP3    H173411   0.080   3.161  15.769 -1.5443  2.2645 -0.8033
17332TIP3    H273412   0.045   3.069  15.884  2.0949 -0.3501 -1.6900
17333TIP3   OH273413   3.135   4.732  15.893  0.3554 -0.4166  0.3920
17333TIP3    H173414   3.159   4.738  15.801  0.3003 -1.4424  0.3106
17333TIP3    H273415   3.056   4.678  15.894  1.3501 -1.8844  1.2095
17334TIP3   OH273416   5.465   5.456   3.546  0.4072 -0.0637 -0.5237
17334TIP3    H173417   5.477   5.410   3.630 -1.8459  0.2708  0.0217
17334TIP3    H273418   5.470   5.387   3.480  0.2900 -0.6215  0.0434
17335TIP3   OH273419   4.463   2.287   1.526  0.7869  0.2376  0.6105
17335TIP3    H173420   4.452   2.380   1.548  1.1193  0.2702  0.6359
17335TIP3    H273421   4.524   2.288   1.452 -1.7644  0.2684 -1.5782
17336TIP3   OH273422   1.230   5.801   0.575 -0.0830  0.4868 -0.6376
17336TIP3    H173423   1.265   5.827   0.660 -1.2689  2.1826 -0.6508
17336TIP3    H273424   1.149   5.753   0.596 -0.5395  1.1752 -0.8165
17337TIP3   OH273425   1.332   4.919   2.179 -0.1577  0.5514  0.8760
17337TIP3    H173426   1.242   4.936   2.153  0.2332  0.1237 -0.8702
17337TIP3    H273427   1.329   4.911   2.274 -2.4533 -2.1913  0.6590
17338TIP3   OH273428   5.607   2.375   0.482 -0.4447 -0.5893 -0.1561
17338TIP3    H173429   5.555   2.451   0.508 -0.5312 -1.2509  1.7129
17338TIP3    H273430   5.601   2.316   0.557  0.9431 -1.7558 -0.9439
17339TIP3   OH273431   2.116   1.417  15.705  0.1745 -0.5834  0.3151
17339TIP3    H173432   2.128   1.365  15.625  1.2432  0.0682  0.0450
17339TIP3    H273433   2.128   1.355  15.776  0.8964 -0.8318 -0.0151
17340TIP3   OH273434   2.645   1.692   3.575  0.4825 -0.2678  0.7937
17340TIP3    H173435   2.591   1.758   3.618  1.8761  2.5247 -1.5265
17340TIP3    H273436   2.623   1.700   3.482  0.2964 -3.4977  0.5160
17341TIP3   OH273437   2.280   5.269  12.576 -0.7518 -0.1456 -0.3003
17341TIP3    H173438   2.217   5.325  12.621 -0.0538  1.1252 -0.8594
17341TIP3    H273439   2.361   5.280  12.625  0.5022  2.6870 -2.8561
17342TIP3   OH273440   3.179   6.142   4.830  0.3513 -0.0434 -0.1446
17342TIP3    H173441   3.131   6.224   4.819  0.7957  0.1312 -0.7537
17342TIP3    H273442   3.169   6.097   4.747 -0.0977 -0.7188  0.2742
17343TIP3   OH273443   0.873   6.673   4.158 -0.4057  0.1135  0.0826
17343TIP3    H173444   0.926   6.671   4.237  0.2292  0.3015 -0.3315
17343TIP3    H273445   0.883   6.586   4.120 -1.5394 -0.3192  0.7363
17344TIP3   OH273446   2.793   2.187   3.842 -0.3652  0.5038 -0.4092
17344TIP3    H173447   2.849   2.183   3.765 -1.9904 -0.7692 -1.5642
17344TIP3    H273448   2.773   2.280   3.853  0.4191  0.7608 -1.1112
17345TIP3   OH273449   2.477   2.619   3.883  0.1479  0.4979  0.1481
17345TIP3    H173450   2.467   2.526   3.864 -0.2076  0.6450 -0.3786
17345TIP3    H273451   2.564   2.641   3.852  0.8325 -0.0040  1.6542
17346TIP3   OH273452   5.634   3.477  12.950 -0.2120 -0.3653 -0.0278
17346TIP3    H173453   5.715   3.433  12.978  1.1902  1.2785 -1.3497
17346TIP3    H273454   5.595   3.509  13.031  0.6627 -0.8558  0.5971
17347TIP3   OH273455   0.298   6.656   0.772  0.2973 -0.3478 -0.3587
17347TIP3    H173456   0.320   6.748   0.765  1.0449 -0.6109 -1.5898
17347TIP3    H273457   0.272   6.630   0.683  0.2699 -1.3601 -0.0705
17348TIP3   OH273458   0.971   0.467  16.249 -0.2291 -0.8382  0.2664
17348TIP3    H173459   1.001   0.545  16.295  2.7778 -1.1532 -1.0273
17348TIP3    H273460   0.897   0.496  16.196 -0.8381  0.5058  1.8269
17349TIP3   OH273461   4.072   4.665  11.141 -0.0116 -0.1109 -0.0905
17349TIP3    H173462   3.980   4.691  11.139 -0.3029 -1.1801 -1.7897
17349TIP3    H273463   4.121   4.746  11.129 -0.7613  0.3529 -0.0296
17350TIP3   OH273464   5.253   5.086  13.138 -0.0529 -0.2075 -0.4358
17350TIP3    H173465   5.274   5.054  13.050 -0.9366 -0.7649 -0.4420
17350TIP3    H273466   5.222   5.009  13.185 -1.3973  0.4750 -0.1985
17351TIP3   OH273467   3.347   4.499  14.446  0.2247 -0.1423  0.1583
17351TIP3    H173468   3.381   4.420  14.405  0.4718 -0.0697  0.2209
17351TIP3    H273469   3.344   4.479  14.540  0.1399 -0.1319  0.1576
17352TIP3   OH273470   5.471   6.223   5.504  0.2907  0.2199  0.3268
17352TIP3    H173471   5.500   6.273   5.427 -0.1398 -1.2330 -0.8073
17352TIP3    H273472   5.388   6.263   5.528 -0.7741 -0.8490 -1.4760
17353TIP3   OH273473   5.295   5.959   5.569  0.1010  0.4010 -0.3235
17353TIP3    H173474   5.346   6.034   5.597  0.5384 -0.2847  0.7217
17353TIP3    H273475   5.331   5.885   5.618 -0.6638 -0.4049 -0.9537
17354TIP3   OH273476   4.415   2.785   6.017 -0.4611  0.3347  0.1912
17354TIP3    H173477   4.445   2.708   6.067 -1.0532 -0.0230 -0.0058
17354TIP3    H273478   4.454   2.859   6.063  1.7069 -0.1891 -0.7275
17355TIP3   OH273479   4.237   1.149  13.498  0.3318 -0.1579  0.2603
17355TIP3    H173480   4.171   1.085  13.525 -0.1213 -0.0513 -0.5459
17355TIP3    H273481   4.227   1.153  13.402  2.0633 -0.7423  0.0337
17356TIP3   OH273482   0.379   5.918  17.235 -0.2145  0.8562  0.3021
17356TIP3    H173483   0.402   5.855  17.167  1.5440 -0.7617  2.3595
17356TIP3    H273484   0.290   5.893  17.262  0.6140 -1.0125  1.3691
17357TIP3   OH273485   1.203   4.866   1.301 -0.0476  0.4886 -0.3184
17357TIP3    H173486   1.151   4.925   1.247 -0.4673 -0.1750 -0.6426
17357TIP3    H273487   1.270   4.923   1.340 -0.3469  1.1480 -0.7479
17358TIP3   OH273488   4.410   6.252   4.089 -0.4130  0.5078  0.3507
17358TIP3    H173489   4.448   6.168   4.061 -0.3320  0.7320 -0.2292
17358TIP3    H273490   4.339   6.269   4.026  0.9978  1.9436 -0.9279
17359TIP3   OH273491   6.620   2.506   1.975 -0.3372  0.2748  0.1160
17359TIP3    H173492   6.566   2.462   1.909  1.5511  0.0341 -1.3185
17359TIP3    H273493   6.641   2.438   2.038  1.5551 -0.6362 -1.4423
17360TIP3   OH273494   5.134   4.256   2.726  0.2001 -0.1661  0.1761
17360TIP3    H173495   5.165   4.237   2.815 -0.3340 -0.1731  0.3577
17360TIP3    H273496   5.167   4.344   2.708 -1.1746  0.5301  1.0419
17361TIP3   OH273497   1.713   1.759  16.560 -0.3488  0.0498 -0.0172
17361TIP3    H173498   1.630   1.712  16.556 -0.3087 -0.2886  2.3585
17361TIP3    H273499   1.770   1.703  16.612  1.2106  0.5556 -1.1419
17362TIP3   OH273500   3.060   1.818   2.558 -0.3253 -0.0451 -0.0732
17362TIP3    H173501   3.150   1.787   2.568  0.2404  1.6481  0.2378
17362TIP3    H273502   3.062   1.878   2.484 -1.1784  0.0587 -0.0279
17363TIP3   OH273503   0.616   4.008  16.578  0.0585  0.2305  0.2703
17363TIP3    H173504   0.645   4.100  16.577  0.1709  0.1916 -0.2590
17363TIP3    H273505   0.683   3.962  16.526 -0.7808  0.0874 -0.6984
17364TIP3   OH273506   0.195   4.522  10.923  0.3654  0.1517 -0.5951
17364TIP3    H173507   0.120   4.463  10.916 -0.0727  0.6655 -0.3320
17364TIP3    H273508   0.173   4.594  10.864  1.1672 -0.2320 -1.3627
17365TIP3   OH273509   5.972   6.593   3.411 -0.0617  0.2345  0.0347
17365TIP3    H173510   6.044   6.607   3.473 -0.7441  1.0725  0.6642
17365TIP3    H273511   6.013   6.555   3.334  1.0506  0.6370  0.4174
17366TIP3   OH273512   1.533   5.999   6.696 -0.0209  0.0639  0.0432
17366TIP3    H173513   1.471   5.944   6.744  0.9335 -0.7293  0.3871
17366TIP3    H273514   1.479   6.066   6.655 -0.9851  0.0319  1.2363
17367TIP3   OH273515   5.126   3.262   4.636  0.6646  0.1084  0.3574
17367TIP3    H173516   5.209   3.298   4.603  1.1219  0.3257  1.7071
17367TIP3    H273517   5.137   3.167   4.629  0.8865  0.1459  0.1965
17368TIP3   OH273518   2.687   4.417   4.827 -0.6809  0.2143  0.3147
17368TIP3    H173519   2.748   4.375   4.887 -0.6604  0.5356  0.5183
17368TIP3    H273520   2.603   4.375   4.846 -0.1155 -1.7710 -1.4710
17369TIP3   OH273521   4.822   4.373  12.007  0.2867  0.1703 -0.6875
17369TIP3    H173522   4.788   4.286  12.027  0.2688  0.3327  0.0068
17369TIP3    H273523   4.804   4.424  12.086 -1.2277  1.2664 -1.7005
17370TIP3   OH273524   6.524   1.625   4.813  0.5249 -0.1723  0.0663
17370TIP3    H173525   6.492   1.549   4.863  3.4906 -0.1856  2.0771
17370TIP3    H273526   6.504   1.700   4.870  0.4398  0.2355 -0.5013
17371TIP3   OH273527   5.558   6.189   4.523 -0.4915 -0.5625 -0.3756
17371TIP3    H173528   5.593   6.158   4.606  0.1548 -1.7333 -1.0687
17371TIP3    H273529   5.491   6.253   4.547  0.0953 -0.4581  1.0216
17372TIP3   OH273530   5.845   3.703  16.612 -0.6995 -0.4180  0.0349
17372TIP3    H173531   5.897   3.693  16.692 -1.1641  1.7072  0.6116
17372TIP3    H273532   5.909   3.716  16.542 -0.3913  0.8795  0.5480
17373TIP3   OH273533   2.096   5.467   1.081  0.0567 -0.0083 -0.4181
17373TIP3    H173534   2.145   5.491   1.002 -0.6234  1.3508 -0.4463
17373TIP3    H273535   2.108   5.542   1.140  0.0494 -0.7491  0.5374
17374TIP3   OH273536   0.917   5.829  14.664 -0.1028  0.0914  0.3812
17374TIP3    H173537   0.886   5.815  14.575 -0.5565 -0.3240  0.6036
17374TIP3    H273538   1.012   5.837  14.655  0.0275 -1.6179  0.0561
17375TIP3   OH273539   3.484   6.540  14.290 -0.2807  0.4249  0.0694
17375TIP3    H173540   3.480   6.600  14.216  1.2593  0.9460  0.3833
17375TIP3    H273541   3.557   6.572  14.343 -0.3289 -0.8955  0.9648
17376TIP3   OH273542   2.715   1.046  16.162 -0.0516 -0.1433  0.0444
17376TIP3    H173543   2.661   1.078  16.234  1.9395  1.6256  0.8073
17376TIP3    H273544   2.763   1.124  16.132  0.7630 -1.3095 -1.7400
17377TIP3   OH273545   1.457   4.025  13.626  0.6639  0.5890 -0.5956
17377TIP3    H173546   1.383   4.029  13.686  1.0541 -0.7428 -0.0073
17377TIP3    H273547   1.417   4.030  13.539 -0.3772 -2.6597 -0.3654
17378TIP3   OH273548   5.735   1.099   0.046  0.1691 -0.3663 -0.5576
17378TIP3    H173549   5.640   1.100   0.042  0.1923  0.4257 -0.9523
17378TIP3    H273550   5.763   1.084  -0.044  0.4506  2.4911 -0.9999
17379TIP3   OH273551   2.152   4.490   4.093  0.4896  0.1210  0.1700
17379TIP3    H173552   2.104   4.453   4.019  0.0909  0.0888  0.4438
17379TIP3    H273553   2.085   4.511   4.157  0.9545 -1.1225  1.0832
17380TIP3   OH273554   1.055   3.178   2.889 -0.3393  1.4626  0.1343
17380TIP3    H173555   1.101   3.096   2.902  1.4803  2.2145 -1.3939
17380TIP3    H273556   0.989   3.180   2.958  2.1864  0.5493  2.6430
17381TIP3   OH273557   5.627   1.937   3.125  0.5361  0.5036 -0.4509
17381TIP3    H173558   5.699   1.937   3.062  1.4952  0.1134  0.6322
17381TIP3    H273559   5.557   1.986   3.081  0.8521 -0.5573 -2.1796
17382TIP3   OH273560   0.021   5.292   1.079  0.4187  0.3612 -0.6350
17382TIP3    H173561  -0.029   5.365   1.116 -1.2970 -0.5050 -1.1963
17382TIP3    H273562   0.112   5.313   1.100 -0.2174  1.6384  0.9800
17383TIP3   OH273563   6.582   3.448  12.099 -0.2396 -0.0186 -0.0381
17383TIP3    H173564   6.581   3.518  12.164 -1.1976  1.3270 -1.4840
17383TIP3    H273565   6.658   3.468  12.044  0.7942 -1.3679  0.8554
17384TIP3   OH273566   5.752   4.348   5.359  0.0578  0.8498  0.0005
17384TIP3    H173567   5.719   4.260   5.375 -0.2744  1.1453  0.9883
17384TIP3    H273568   5.749   4.391   5.445 -0.5475  2.0716 -0.6181
17385TIP3   OH273569   1.871   6.765  14.708  0.8284  0.0113 -0.3240
17385TIP3    H173570   1.800   6.784  14.770  0.0465 -0.2444 -1.1359
17385TIP3    H273571   1.873   6.669  14.702  1.1148  0.0250 -0.4547
17386TIP3   OH273572   4.924   6.685   3.731  0.5288  0.1052  0.0101
17386TIP3    H173573   5.012   6.650   3.742  0.1882 -0.5969  0.5679
17386TIP3    H273574   4.903   6.724   3.816 -0.6440 -1.9349  0.6918
17387TIP3   OH273575   5.054   6.731   3.989  0.0776 -0.0918 -0.3756
17387TIP3    H173576   5.051   6.806   4.049 -3.0434  0.9900 -1.7663
17387TIP3    H273577   5.107   6.762   3.916  0.1146  0.1830 -0.2347
17388TIP3   OH273578   6.066   5.948  12.812  0.5846  0.0770 -0.1092
17388TIP3    H173579   6.125   6.024  12.817  1.1728 -0.4140  0.6364
17388TIP3    H273580   5.984   5.979  12.850  0.6275  0.5226 -0.3728
17389TIP3   OH273581   0.045   4.518   4.069 -0.2139 -0.4098  0.0841
17389TIP3    H173582   0.077   4.546   4.155  0.8442  0.7158 -0.6738
17389TIP3    H273583  -0.008   4.440   4.088 -1.9354  1.1543  2.0231
17390TIP3   OH273584   4.753   6.376   1.992 -0.3847 -0.0968  0.8910
17390TIP3    H173585   4.787   6.364   2.081 -0.0680 -1.3806  0.6126
17390TIP3    H273586   4.816   6.330   1.936  0.4322  2.2786 -0.1886
17391TIP3   OH273587   3.984   3.018  15.368 -0.0530 -0.1624 -0.2473
17391TIP3    H173588   4.000   3.112  15.383 -0.3302 -0.2291  0.4650
17391TIP3    H273589   3.992   3.008  15.273 -1.1309  0.7908 -0.4603
17392TIP3   OH273590   3.566   1.303  13.826 -0.3439 -0.5848  0.7749
17392TIP3    H173591   3.594   1.226  13.776  0.2952 -0.1150  0.3955
17392TIP3    H273592   3.593   1.377  13.772  0.1346 -0.0777  1.7004
17393TIP3   OH273593   4.939   1.516  10.959  0.2363 -0.3702  0.5711
17393TIP3    H173594   5.033   1.498  10.952  0.3280  0.5030 -0.7562
17393TIP3    H273595   4.933   1.612  10.951 -0.9090 -0.5742 -1.3269
17394TIP3   OH273596   6.281   2.020   5.133  0.5785  0.4395 -0.2670
17394TIP3    H173597   6.352   2.075   5.167 -0.3149  0.4630  1.6337
17394TIP3    H273598   6.309   1.931   5.152  1.2614  0.3013 -1.8477
17395TIP3   OH273599   2.663   0.266   3.015  0.4330 -0.0976 -0.3666
17395TIP3    H173600   2.691   0.312   3.094  1.2020 -3.0830  1.1816
17395TIP3    H273601   2.572   0.293   3.003  0.6371  1.2172  0.9455
17396TIP3   OH273602   0.110   6.336  14.413 -0.8763  0.3264 -0.4205
17396TIP3    H173603   0.055   6.398  14.365  0.0809  0.7307 -1.0038
17396TIP3    H273604   0.108   6.256  14.360 -0.8200  0.3733 -0.4941
17397TIP3   OH273605   4.790   3.130   0.157  0.2268 -0.0802 -0.0310
17397TIP3    H173606   4.774   3.207   0.103  0.4010 -0.7534 -1.0576
17397TIP3    H273607   4.884   3.112   0.146  0.0434 -0.8474 -0.3415
17398TIP3   OH273608   0.631   3.676   1.696  0.0339 -0.0938  0.4857
17398TIP3    H173609   0.544   3.674   1.735  0.2162 -0.5766  0.8615
17398TIP3    H273610   0.640   3.591   1.653  0.1943  0.0785  0.1759
17399TIP3   OH273611   0.653   0.106  13.479  0.2328 -0.0965  0.3426
17399TIP3    H173612   0.572   0.084  13.432  0.4463 -0.0044 -0.0737
17399TIP3    H273613   0.627   0.176  13.539  0.1892  0.5639 -0.4270
17400TIP3   OH273614   2.996   1.683  12.237 -0.0219 -0.1032 -0.2585
17400TIP3    H173615   3.013   1.604  12.186  0.3965 -0.7908  0.9288
17400TIP3    H273616   3.005   1.655  12.328  1.0948  1.5320  0.1414
17401TIP3   OH273617   4.128   0.980  12.280 -0.3960  0.0856  0.3984
17401TIP3    H173618   4.204   0.929  12.306 -1.4312 -1.4964  0.3886
17401TIP3    H273619   4.059   0.954  12.341 -1.5481 -0.1703 -0.9773
17402TIP3   OH273620   1.328   4.771   0.862 -0.0826 -0.2904 -0.4755
17402TIP3    H173621   1.331   4.678   0.883 -1.4533 -0.2180  0.1119
17402TIP3    H273622   1.414   4.805   0.887  0.3962 -1.3762 -0.6330
17403TIP3   OH273623   5.042   3.471  11.739 -0.2085 -0.1792 -0.0822
17403TIP3    H173624   4.987   3.441  11.667 -0.6515  2.4248 -0.8821
17403TIP3    H273625   5.126   3.492  11.697  0.3044 -0.8893  0.5696
17404TIP3   OH273626   1.386   6.045   1.187 -0.2313  0.1210  0.1723
17404TIP3    H173627   1.462   6.052   1.244  0.3590 -2.3622 -0.2768
17404TIP3    H273628   1.414   6.087   1.105  0.9506 -1.4444 -0.2525
17405TIP3   OH273629   0.993   0.588  14.568 -0.4323 -0.0360  0.1008
17405TIP3    H173630   0.965   0.550  14.484 -1.0160 -0.2413  0.3884
17405TIP3    H273631   0.921   0.647  14.592 -0.3093 -0.0514  0.5039
17406TIP3   OH273632   0.783   0.477  12.147  0.1826 -0.2435  0.0365
17406TIP3    H173633   0.814   0.543  12.084 -0.9031  0.8822  0.6432
17406TIP3    H273634   0.737   0.529  12.214 -0.7229 -1.6291  0.5016
17407TIP3   OH273635   3.467   5.399   4.604  0.6864  0.5584 -0.5040
17407TIP3    H173636   3.559   5.395   4.629 -0.0543  0.4538  2.4461
17407TIP3    H273637   3.438   5.486   4.632 -0.2940  0.3019 -0.6920
17408TIP3   OH273638   0.807   2.773  11.631 -0.4720  0.1764 -0.0883
17408TIP3    H173639   0.839   2.863  11.624 -1.3771  0.6022  1.1301
17408TIP3    H273640   0.716   2.782  11.658 -0.5406 -1.1150  0.1502
17409TIP3   OH273641   3.589   1.880  16.024  1.0637 -0.6194 -0.5654
17409TIP3    H173642   3.673   1.892  16.069  0.1328  0.3098  0.9621
17409TIP3    H273643   3.527   1.857  16.093 -0.2641  0.1926 -1.4571
17410TIP3   OH273644   1.691   2.796   5.331  0.0331  0.4303  0.3289
17410TIP3    H173645   1.700   2.891   5.332  1.7190  0.2890  1.7422
17410TIP3    H273646   1.781   2.763   5.328 -0.5621 -1.1269 -1.7247
17411TIP3   OH273647   2.480   2.467   5.627  0.1407 -0.6120  0.8508
17411TIP3    H173648   2.484   2.386   5.577  0.4469 -0.6785  0.9815
17411TIP3    H273649   2.511   2.443   5.714 -2.4178 -0.9893  1.7078
17412TIP3   OH273650   4.056   2.228  14.896 -0.1720  0.0566 -0.3103
17412TIP3    H173651   4.085   2.248  14.985 -0.7725  0.0030 -0.1013
17412TIP3    H273652   4.111   2.283  14.840 -1.1667  1.6093  0.2181
17413TIP3   OH273653   5.203   5.902  16.422 -0.2955 -0.1049 -0.5279
17413TIP3    H173654   5.279   5.896  16.365 -0.4649  0.4867 -0.8252
17413TIP3    H273655   5.219   5.838  16.491  0.0799 -0.5689 -1.0433
17414TIP3   OH273656   0.786   1.893  14.618 -0.5270  0.2769 -0.0651
17414TIP3    H173657   0.819   1.973  14.660  1.1032  0.3652 -1.4541
17414TIP3    H273658   0.785   1.828  14.689  2.7604  0.2654  0.0760
17415TIP3   OH273659   0.157   6.322  16.130 -0.2257  0.0597  0.4887
17415TIP3    H173660   0.062   6.318  16.142 -0.7755 -0.7235 -3.3579
17415TIP3    H273661   0.190   6.251  16.185 -1.9072 -0.0304  1.4330
17416TIP3   OH273662   3.030   2.116  10.846 -0.0438  0.1137  0.8047
17416TIP3    H173663   3.052   2.178  10.915 -0.3801  1.5711 -0.3487
17416TIP3    H273664   2.934   2.116  10.843 -0.0966 -1.6710  1.8333
17417TIP3   OH273665   5.295   1.603   6.217  0.3593  0.5599  0.1992
17417TIP3    H173666   5.334   1.547   6.284  0.5494 -1.7713 -1.7528
17417TIP3    H273667   5.336   1.574   6.135  2.0811  5.1304 -0.6641
17418TIP3   OH273668   0.153   4.626   5.641  0.4517 -0.2760 -0.0205
17418TIP3    H173669   0.217   4.667   5.583 -1.7631  0.8443 -1.7206
17418TIP3    H273670   0.187   4.642   5.729  1.5384  1.9298 -0.8105
17419TIP3   OH273671   4.249   4.969   3.206  0.0265 -0.0329  0.0240
17419TIP3    H173672   4.189   5.040   3.229  1.1795  0.8764  0.3118
17419TIP3    H273673   4.262   4.921   3.287 -1.1334 -0.8780 -0.2802
17420TIP3   OH273674   2.254   1.385  13.297  0.6437  0.0191  0.0297
17420TIP3    H173675   2.309   1.326  13.350  0.0105 -0.0332  0.6271
17420TIP3    H273676   2.317   1.437  13.247  1.2486  0.0676  0.8341
17421TIP3   OH273677   0.448   0.788   5.440  0.2821  0.0996  0.6395
17421TIP3    H173678   0.471   0.700   5.470 -0.5253 -0.3137  0.0437
17421TIP3    H273679   0.448   0.841   5.520  0.3747 -0.5179  1.0527
17422TIP3   OH273680   2.727   3.455   3.831  0.0618 -0.0219 -0.3352
17422TIP3    H173681   2.704   3.368   3.798 -2.3002 -0.4711  2.2259
17422TIP3    H273682   2.777   3.437   3.911 -0.9959  0.9478  0.5578
17423TIP3   OH273683   3.607   0.553   5.088  0.7168  0.3035 -0.4647
17423TIP3    H173684   3.542   0.488   5.060  2.4286 -2.0426  0.8734
17423TIP3    H273685   3.575   0.585   5.172  2.0861 -2.1106  1.0311
17424TIP3   OH273686   2.661   5.167  11.925 -0.1430  0.0718 -0.2622
17424TIP3    H173687   2.588   5.228  11.921  0.9866  1.3783 -2.2334
17424TIP3    H273688   2.667   5.131  11.836  0.1822 -1.7215  0.4731
17425TIP3   OH273689   0.391   1.693  16.541 -0.1331 -0.0028 -0.0228
17425TIP3    H173690   0.305   1.693  16.584  0.4603  0.5072  1.1805
17425TIP3    H273691   0.371   1.689  16.447 -1.4360 -1.7389  0.3089
17426TIP3   OH273692   1.102   0.429   1.765 -0.4314 -0.4798 -0.5431
17426TIP3    H173693   1.011   0.405   1.749 -0.3405 -1.3231  0.1776
17426TIP3    H273694   1.147   0.409   1.683 -0.8168 -0.4585 -0.7607
17427TIP3   OH273695   6.338   3.690  14.540 -0.0094  0.0769  0.0445
17427TIP3    H173696   6.248   3.717  14.523  0.7581  1.6331 -1.7024
17427TIP3    H273697   6.359   3.627  14.471 -0.0035 -0.8897  0.9099
17428TIP3   OH273698   6.292   4.495   5.738 -0.1086 -0.0817  0.3152
17428TIP3    H173699   6.354   4.565   5.715  1.1841 -0.7940  1.6273
17428TIP3    H273700   6.342   4.414   5.731 -0.7675 -0.6391  1.7998
17429TIP3   OH273701   5.322   6.518   1.090 -0.8179  0.2507  0.1297
17429TIP3    H173702   5.367   6.437   1.115 -1.7933  0.3516  2.2665
17429TIP3    H273703   5.318   6.514   0.994  1.1606 -1.1298  0.0690
17430TIP3   OH273704   2.637   3.876  12.925 -0.6053  0.5971  0.4125
17430TIP3    H173705   2.717   3.864  12.977 -1.9636 -0.2504  2.3657
17430TIP3    H273706   2.585   3.939  12.974 -2.6365 -1.4642  1.0203
17431TIP3   OH273707   1.051   6.126   2.013 -1.0644 -0.2381  0.1097
17431TIP3    H173708   0.960   6.100   1.996 -1.1103 -0.8540  1.2462
17431TIP3    H273709   1.052   6.149   2.106  0.3821 -2.1098  0.5839
17432TIP3   OH273710   5.423   2.570   4.359 -0.1911  0.0451 -0.0960
17432TIP3    H173711   5.393   2.623   4.432 -0.4956 -0.4716  0.1600
17432TIP3    H273712   5.467   2.631   4.301  0.7445  0.3302  0.9013
17433TIP3   OH273713   1.232   1.525   3.283  0.5815 -0.0136 -0.0367
17433TIP3    H173714   1.143   1.547   3.310  0.5188  1.3036 -1.2496
17433TIP3    H273715   1.240   1.432   3.300 -0.9041 -0.0676  0.4304
17434TIP3   OH273716   1.126   1.960  12.033 -0.1855  0.4147  0.0145
17434TIP3    H173717   1.082   2.040  12.063 -1.5999 -0.2968 -0.1133
17434TIP3    H273718   1.055   1.903  12.006  0.7980 -1.0467  0.4733
17435TIP3   OH273719   0.702   1.992  13.418 -0.1541 -1.3458 -0.0670
17435TIP3    H173720   0.657   1.918  13.377  0.2870 -0.7822 -1.6319
17435TIP3    H273721   0.793   1.982  13.391 -0.5253  1.1858 -2.5414
17436TIP3   OH273722   1.642   3.851   2.820  0.2759 -0.1988  0.2397
17436TIP3    H173723   1.697   3.774   2.837  0.4402 -0.1474 -0.0788
17436TIP3    H273724   1.608   3.838   2.732 -0.1392 -0.1782  0.3912
17437TIP3   OH273725   0.358   1.624   4.373 -0.1979 -0.0618 -0.1900
17437TIP3    H173726   0.319   1.620   4.286  0.8456 -0.1271 -0.6554
17437TIP3    H273727   0.449   1.649   4.358  0.4900 -1.9325  0.7195
17438TIP3   OH273728   2.876   2.465   2.016  0.0434 -0.0326 -0.1230
17438TIP3    H173729   2.788   2.502   2.022  0.0099 -0.2344  0.7561
17438TIP3    H273730   2.918   2.490   2.099 -0.2769 -2.6821  0.8956
17439TIP3   OH273731   4.579   3.670  16.611  0.3670  0.3668 -0.6284
17439TIP3    H173732   4.577   3.596  16.550  0.9087 -0.2107  0.0551
17439TIP3    H273733   4.502   3.659  16.666  0.1179  0.6493 -0.9153
17440TIP3   OH273734   6.495   6.454   3.546 -0.4802 -0.1527 -0.1108
17440TIP3    H173735   6.550   6.517   3.501 -0.1423  0.8339  1.6518
17440TIP3    H273736   6.418   6.444   3.489 -0.2896  1.4369 -0.6622
17441TIP3   OH273737   0.915   5.155  16.283  0.0240 -0.0298 -0.4405
17441TIP3    H173738   0.930   5.235  16.234 -0.4036 -0.2196 -0.8859
17441TIP3    H273739   0.946   5.085  16.226 -2.3180 -0.4247 -1.3122
17442TIP3   OH273740   5.354   4.308  16.858  0.0350  0.3666 -0.8994
17442TIP3    H173741   5.274   4.299  16.808 -1.6881  0.3736  1.7552
17442TIP3    H273742   5.399   4.224  16.848 -0.6416  0.1134 -1.8092
17443TIP3   OH273743   4.327   4.462   2.054  0.6660 -0.0875  0.1047
17443TIP3    H173744   4.416   4.431   2.075  0.1965 -1.3645  0.2592
17443TIP3    H273745   4.296   4.502   2.134  1.3598  0.9865 -0.1545
17444TIP3   OH273746   5.425   2.593  11.669  0.2651  0.1838  0.2962
17444TIP3    H173747   5.367   2.658  11.630  0.0417  0.0599  0.4238
17444TIP3    H273748   5.368   2.520  11.692  0.5998 -0.3009 -0.3778
17445TIP3   OH273749   5.883   3.030   1.980 -0.1337  0.3179  0.3609
17445TIP3    H173750   5.911   3.021   1.889 -2.3009  2.5905 -0.6020
17445TIP3    H273751   5.873   3.125   1.992 -1.9551 -0.0908  2.3110
17446TIP3   OH273752   5.562   1.258  12.477 -0.5429 -0.0259 -0.0097
17446TIP3    H173753   5.562   1.328  12.542  1.0560  1.4298 -1.5557
17446TIP3    H273754   5.616   1.189  12.517  0.6154  0.9453  0.1438
17447TIP3   OH273755   2.732   3.137  10.489 -0.0993  0.0701  0.0754
17447TIP3    H173756   2.691   3.051  10.503 -1.4790  0.7070 -0.0365
17447TIP3    H273757   2.717   3.155  10.396  0.6273  0.2205 -0.0149
17448TIP3   OH273758   3.870   3.788  11.448  0.1852 -0.1718  0.0023
17448TIP3    H173759   3.895   3.856  11.385 -2.5480  2.0071  1.1384
17448TIP3    H273760   3.775   3.781  11.438 -0.1531 -0.4973  3.1799
17449TIP3   OH273761   3.686   0.667  15.082  0.3038 -0.3750  0.5297
17449TIP3    H173762   3.691   0.601  15.150  0.1735 -0.8396  0.0877
17449TIP3    H273763   3.776   0.676  15.050  0.3197 -0.3439  0.5829
17450TIP3   OH273764   5.849   2.674  16.284  0.6797 -0.0101  0.0355
17450TIP3    H173765   5.782   2.610  16.306  1.3065 -0.5043  0.5565
17450TIP3    H273766   5.930   2.635  16.317  0.7954  1.9600  2.1442
17451TIP3   OH273767   3.089   2.087  14.850 -0.0122 -0.0136  0.2808
17451TIP3    H173768   3.176   2.076  14.889 -0.7577 -0.5681  1.8354
17451TIP3    H273769   3.033   2.111  14.924 -2.1068 -4.2137  0.1857
17452TIP3   OH273770   4.221   1.139   5.151  0.3098  0.4787 -0.2908
17452TIP3    H173771   4.204   1.178   5.065  2.3870  0.6882 -0.6265
17452TIP3    H273772   4.316   1.137   5.158  0.1663  0.0946  1.8493
17453TIP3   OH273773   2.226   1.298  11.116  0.0424  0.3514  0.0108
17453TIP3    H173774   2.189   1.213  11.094  0.8318 -0.2085  0.8044
17453TIP3    H273775   2.178   1.325  11.194  0.4346  0.2008  0.3048
17454TIP3   OH273776   2.204   4.313  15.502 -0.0041  0.0721 -0.0688
17454TIP3    H173777   2.188   4.406  15.487  2.5220  0.6208  0.4566
17454TIP3    H273778   2.250   4.309  15.586  0.2175 -1.6100 -0.2531
17455TIP3   OH273779   2.711   2.150  11.821 -0.8905 -0.0710 -0.5294
17455TIP3    H173780   2.764   2.154  11.741  0.8292  0.5190  0.6356
17455TIP3    H273781   2.672   2.062  11.820 -0.4085 -0.2802 -1.7033
17456TIP3   OH273782   2.019   2.900   2.169  0.0597 -0.8460 -0.5175
17456TIP3    H173783   2.020   2.973   2.231 -2.0325 -2.6449  1.7082
17456TIP3    H273784   2.081   2.926   2.101  1.7785  1.5653  1.8706
17457TIP3   OH273785   5.445   5.179   1.779 -0.6667  0.0398  0.6576
17457TIP3    H173786   5.451   5.260   1.830 -1.3745  0.0695  0.6886
17457TIP3    H273787   5.534   5.143   1.781 -0.1594  1.2202 -0.0229
17458TIP3   OH273788   0.925   0.112   3.976  0.1097  0.7686  0.4310
17458TIP3    H173789   0.949   0.179   4.040  1.1108  1.2533 -0.4425
17458TIP3    H273790   0.916   0.032   4.028  0.6980  1.2019  1.2128
17459TIP3   OH273791   3.473   4.519  15.837  0.1476  0.7958  0.3525
17459TIP3    H173792   3.506   4.592  15.784 -0.1156  0.8768  0.2977
17459TIP3    H273793   3.390   4.496  15.796  0.8153 -0.3497 -0.3807
17460TIP3   OH273794   2.284   2.719  16.584  0.4908  0.1704  0.2605
17460TIP3    H173795   2.207   2.691  16.633 -0.1773 -1.0577 -1.4361
17460TIP3    H273796   2.256   2.799  16.540  1.3005  1.6499  2.3410
17461TIP3   OH273797   0.794   3.847  16.855 -0.5650 -0.1852  0.2099
17461TIP3    H173798   0.728   3.806  16.799  0.0341 -0.0387 -0.6086
17461TIP3    H273799   0.866   3.868  16.796 -1.0335  2.4646  0.5292
17462TIP3   OH273800   0.749   1.591   4.951  0.5942  0.1530 -0.0591
17462TIP3    H173801   0.669   1.541   4.935  1.7854 -1.9297  0.2676
17462TIP3    H273802   0.793   1.592   4.865  1.6113 -1.2811  0.4266
17463TIP3   OH273803   1.881   5.863   2.261 -0.0939  0.0684  1.0601
17463TIP3    H173804   1.943   5.821   2.321  0.3888  0.5849  0.9279
17463TIP3    H273805   1.848   5.939   2.310 -0.3863 -0.0263  1.0118
17464TIP3   OH273806   3.296   0.427  11.373  0.2011 -0.0914 -0.0419
17464TIP3    H173807   3.236   0.497  11.345  1.2994  1.0166  0.3230
17464TIP3    H273808   3.250   0.383  11.445 -0.8888 -0.3383 -0.8707
17465TIP3   OH273809   6.510   5.436  14.662  0.2070 -0.3460 -0.0839
17465TIP3    H173810   6.473   5.524  14.668  1.5893  0.4142 -2.0069
17465TIP3    H273811   6.604   5.449  14.680 -0.0926 -1.9687  2.9767
17466TIP3   OH273812   3.835   5.135  12.428  0.9841  0.6202 -0.2572
17466TIP3    H173813   3.795   5.062  12.381  0.8192  1.8870 -2.1614
17466TIP3    H273814   3.802   5.128  12.518  0.1518 -1.0207 -0.6857
17467TIP3   OH273815   5.540   0.777   6.070 -0.2054  0.0096 -0.0581
17467TIP3    H173816   5.558   0.779   5.976  0.4967  0.8086  0.0914
17467TIP3    H273817   5.624   0.795   6.111 -0.8940  1.7215  0.6754
17468TIP3   OH273818   2.032   0.654   0.476 -0.5939  0.0612  0.2675
17468TIP3    H173819   2.056   0.746   0.482 -0.7431  0.1071  0.1703
17468TIP3    H273820   1.959   0.652   0.413 -1.2148 -0.0104  0.9813
17469TIP3   OH273821   3.108   4.454   0.412  0.2754  0.3596  0.2386
17469TIP3    H173822   3.169   4.466   0.484  2.0388 -0.3899 -1.1093
17469TIP3    H273823   3.039   4.399   0.449  2.5940 -2.4181  0.6030
17470TIP3   OH273824   4.433   5.708   5.254  0.2501  0.6292 -0.5888
17470TIP3    H173825   4.503   5.663   5.302  0.1029  0.6397 -0.3688
17470TIP3    H273826   4.451   5.801   5.267 -0.6830  0.6369  0.7337
17471TIP3   OH273827   3.171   3.321  12.123 -0.0614  0.3773  0.8032
17471TIP3    H173828   3.240   3.255  12.131  1.2723  1.9195  2.3945
17471TIP3    H273829   3.110   3.300  12.194  0.0927  0.5316  0.9829
17472TIP3   OH273830   1.494   0.999   0.020  0.2242  0.2244 -0.2893
17472TIP3    H173831   1.493   0.907  -0.006 -1.1336  0.0406  0.3363
17472TIP3    H273832   1.559   1.040  -0.037  0.8549 -1.1225 -0.5547
17473TIP3   OH273833   1.640   2.697   2.647  0.1641 -0.3874  0.2798
17473TIP3    H173834   1.569   2.761   2.653 -1.3787 -2.2794  2.5805
17473TIP3    H273835   1.611   2.635   2.580  1.1576  0.6460 -1.1398
17474TIP3   OH273836   3.282   2.058   0.555  0.3547  0.0968 -0.2608
17474TIP3    H173837   3.227   2.127   0.518  1.1202 -0.0627 -1.7400
17474TIP3    H273838   3.334   2.102   0.622 -0.7719  0.4737  0.3776
17475TIP3   OH273839   6.287   4.503  10.792  0.2026  0.7514  0.4005
17475TIP3    H173840   6.277   4.578  10.733  1.7332  1.8388  1.4778
17475TIP3    H273841   6.378   4.477  10.782 -0.4479 -1.3220 -0.3399
17476TIP3   OH273842   2.388   5.915   5.151  0.6256  0.1978 -0.2397
17476TIP3    H173843   2.377   5.989   5.091 -0.6112  0.2218  0.0124
17476TIP3    H273844   2.376   5.838   5.095  2.7406  0.1440 -0.6759
17477TIP3   OH273845   3.643   0.075   3.957  0.1913 -0.8748 -0.2271
17477TIP3    H173846   3.669   0.019   3.884 -0.7546 -1.5662 -0.0570
17477TIP3    H273847   3.642   0.016   4.032 -0.0962 -0.4593  0.0945
17478TIP3   OH273848   3.337   4.039   0.858 -0.8787  0.0917 -0.5266
17478TIP3    H173849   3.401   3.981   0.818 -3.0491 -1.2479 -2.1376
17478TIP3    H273850   3.305   3.991   0.935  0.3767  0.9940  0.6039
17479TIP3   OH273851   1.301   3.905  16.923  0.0178  0.1196 -0.2709
17479TIP3    H173852   1.223   3.958  16.905  0.8199  0.8205 -1.7746
17479TIP3    H273853   1.323   3.866  16.838  1.9313  0.8133 -0.1204
17480TIP3   OH273854   5.698   6.461   4.811  0.1533 -0.2904 -0.2350
17480TIP3    H173855   5.710   6.459   4.906 -2.2579  1.2126  0.1485
17480TIP3    H273856   5.634   6.392   4.794  0.6611 -0.6254 -0.7965
17481TIP3   OH273857   3.043   5.981   5.164 -0.1379 -0.2637 -0.0416
17481TIP3    H173858   3.097   5.978   5.242 -0.3617 -1.1491  0.0814
17481TIP3    H273859   3.102   5.953   5.093 -0.5439 -1.6962  0.1639
17482TIP3   OH273860   6.238   6.385   4.719 -0.0195  0.1048  0.2499
17482TIP3    H173861   6.320   6.394   4.670 -1.8092  1.7278 -2.6080
17482TIP3    H273862   6.225   6.290   4.726 -0.1301 -0.2420 -3.3332
17483TIP3   OH273863   0.683   5.425  16.849 -0.5601 -0.0220  0.5964
17483TIP3    H173864   0.609   5.365  16.843 -1.0490  0.7561 -1.6866
17483TIP3    H273865   0.751   5.385  16.794 -0.4629  0.8724  0.0458
17484TIP3   OH273866   5.218   0.974  13.784  0.3942  0.3691 -0.3140
17484TIP3    H173867   5.161   0.929  13.847  1.6222  1.0962  1.3481
17484TIP3    H273868   5.223   0.914  13.709  1.2087 -1.8044  1.4434
17485TIP3   OH273869   5.859   0.136   2.873  0.1685 -0.4201 -0.0046
17485TIP3    H173870   5.850   0.088   2.955 -0.7835  0.2602  0.2944
17485TIP3    H273871   5.914   0.211   2.895  1.0431 -0.9740 -0.3018
17486TIP3   OH273872   5.167   4.696   2.100  0.2447  0.0625 -0.1154
17486TIP3    H173873   5.105   4.642   2.051 -0.6712  1.5451 -0.5967
17486TIP3    H273874   5.113   4.761   2.145  1.1298 -0.7250  2.2100
17487TIP3   OH273875   5.362   5.373  12.976 -0.1294  0.3240 -0.2825
17487TIP3    H173876   5.355   5.384  12.881 -0.5461  0.1040 -0.2764
17487TIP3    H273877   5.430   5.308  12.988  0.5443  0.9962 -0.3976
17488TIP3   OH273878   5.932   3.438   2.954  0.6922 -0.0081  0.5477
17488TIP3    H173879   5.898   3.508   2.898 -0.7958 -0.0494  1.3511
17488TIP3    H273880   5.990   3.482   3.016  1.9619  0.1047 -0.6987
17489TIP3   OH273881   2.351   6.757  12.626 -0.3492 -0.4068  0.3031
17489TIP3    H173882   2.319   6.806  12.550  0.7220  0.3963  0.3605
17489TIP3    H273883   2.391   6.824  12.682  0.5347 -1.2629  0.6909
17490TIP3   OH273884   0.404   3.776  12.713 -0.2474  0.5014 -0.5518
17490TIP3    H173885   0.499   3.778  12.701  0.0161 -1.1549  1.0777
17490TIP3    H273886   0.388   3.696  12.763 -2.4168  1.2615  0.0090
17491TIP3   OH273887   4.332   3.034   1.929 -0.1778 -0.1735 -0.1053
17491TIP3    H173888   4.253   2.985   1.950  0.2879 -1.0236 -0.3099
17491TIP3    H273889   4.357   3.005   1.842 -0.3224  1.0067 -0.5485
17492TIP3   OH273890   2.998   5.928  13.688 -0.3242  0.2130 -0.5233
17492TIP3    H173891   3.027   5.839  13.665 -1.0970 -0.7491  2.0285
17492TIP3    H273892   2.929   5.948  13.625 -0.9848 -1.4936 -0.3609
17493TIP3   OH273893   5.318   0.883   2.498 -0.6155  0.2713 -0.3236
17493TIP3    H173894   5.289   0.964   2.458  1.1582 -0.0720 -2.3823
17493TIP3    H273895   5.249   0.819   2.476 -1.3159  0.8816  0.0975
17494TIP3   OH273896   6.635   2.600  10.657 -0.4076  0.3117 -0.4362
17494TIP3    H173897   6.710   2.599  10.597 -0.3035 -0.1977 -0.3006
17494TIP3    H273898   6.633   2.689  10.692 -0.2425  0.5074 -0.9127
17495TIP3   OH273899   5.108   2.420  14.190 -0.0113  0.1498 -0.3703
17495TIP3    H173900   5.144   2.438  14.277  0.8857  1.2273 -0.9424
17495TIP3    H273901   5.156   2.479  14.132 -0.0812 -1.0738 -1.7084
17496TIP3   OH273902   5.589   6.264   3.205  0.1046 -0.2265 -0.4577
17496TIP3    H173903   5.660   6.235   3.263 -0.3288  1.5052  0.9812
17496TIP3    H273904   5.621   6.344   3.165 -0.9333  0.4585  0.0482
17497TIP3   OH273905   5.881   1.493   1.013 -0.1668  0.9333  0.6278
17497TIP3    H173906   5.826   1.434   0.962 -1.8436  1.7861  1.3910
17497TIP3    H273907   5.966   1.489   0.971 -0.1939 -2.1294  0.7515
17498TIP3   OH273908   3.242   0.813   3.942  0.1926  0.0762 -0.3940
17498TIP3    H173909   3.182   0.826   3.868  0.7566  0.3083 -0.8091
17498TIP3    H273910   3.273   0.723   3.931 -0.6272 -0.2898  0.2256
17499TIP3   OH273911   4.526   3.883  14.319  0.4353  0.3106 -0.3861
17499TIP3    H173912   4.488   3.970  14.308 -1.5854 -0.1976  2.3085
17499TIP3    H273913   4.492   3.833  14.245  0.0016  1.2684 -0.8488
17500TIP3   OH273914   4.594   6.095  14.984 -0.6382 -0.5920 -0.2137
17500TIP3    H173915   4.666   6.123  15.041 -1.8548 -3.9774  3.2295
17500TIP3    H273916   4.631   6.023  14.933  0.0125  1.4609 -2.7201
17501TIP3   OH273917   6.586   4.442  15.548  0.3197 -0.2432  0.6299
17501TIP3    H173918   6.566   4.521  15.599 -0.5570 -0.3819  0.5218
17501TIP3    H273919   6.506   4.389  15.554  0.9419 -1.1754  0.7920
17502TIP3   OH273920   6.774   4.159   0.737 -0.1649 -0.3355  0.0464
17502TIP3    H173921   6.863   4.148   0.703 -0.0796 -0.7704  0.4108
17502TIP3    H273922   6.722   4.184   0.660  0.4756  1.0087  0.0473
17503TIP3   OH273923   0.443   2.428  12.193  0.0748  0.2563  0.1819
17503TIP3    H173924   0.489   2.417  12.276 -0.6254  0.3298  0.5856
17503TIP3    H273925   0.468   2.516  12.163 -1.2986  1.0694  1.3557
17504TIP3   OH273926   4.717   3.204   2.007  0.0374 -0.9416 -0.2826
17504TIP3    H173927   4.710   3.291   1.966  3.2379 -0.1964  0.6501
17504TIP3    H273928   4.629   3.188   2.043 -0.0023  2.9977  1.6835
17505TIP3   OH273929   4.486   5.168   1.646  0.4272 -0.2344  0.5441
17505TIP3    H173930   4.535   5.220   1.582  0.8201 -0.4794  0.6450
17505TIP3    H273931   4.395   5.194   1.632  0.5904  0.2911  0.4148
17506TIP3   OH273932   6.306   1.793  12.731 -0.0848 -0.1940  0.2280
17506TIP3    H173933   6.328   1.726  12.666  1.3528  2.0193 -1.6284
17506TIP3    H273934   6.234   1.842  12.691 -0.0166  0.4036  0.8384
17507TIP3   OH273935   1.345   6.065   6.118  0.0324 -0.6324 -0.1407
17507TIP3    H173936   1.404   5.990   6.133 -0.9627 -1.1409  1.3680
17507TIP3    H273937   1.349   6.114   6.200  0.1132  0.5744 -0.8699
17508TIP3   OH273938   3.541   6.207  13.181  0.5529 -0.4112 -0.6175
17508TIP3    H173939   3.454   6.209  13.141  0.7152 -2.2988 -1.1100
17508TIP3    H273940   3.561   6.299  13.199 -1.4239  0.0673 -0.7317
17509TIP3   OH273941   3.786   1.946  11.758 -0.5322 -0.3185  0.1005
17509TIP3    H173942   3.869   1.977  11.719 -1.1442  0.0597 -0.9154
17509TIP3    H273943   3.723   2.015  11.737 -1.2845 -0.9673  0.2068
17510TIP3   OH273944   4.458   1.936  11.755 -0.0127 -0.5322  0.5093
17510TIP3    H173945   4.535   1.959  11.807 -2.1999  0.8950  3.2715
17510TIP3    H273946   4.412   1.871  11.808 -0.3745 -1.9194 -1.4497
17511TIP3   OH273947   3.154   0.549   3.348  0.4030 -0.4093  0.1606
17511TIP3    H173948   3.141   0.540   3.442  0.1309  1.2026  0.2885
17511TIP3    H273949   3.073   0.587   3.316  1.4517  1.4554 -0.3337
17512TIP3   OH273950   2.154   5.095   1.813 -0.1120  0.0248 -0.3314
17512TIP3    H173951   2.132   5.119   1.723 -2.0151  1.1837  0.4182
17512TIP3    H273952   2.163   5.178   1.859  0.8882 -0.5577  0.5496
17513TIP3   OH273953   1.655   0.763   0.448  0.5655 -0.1116 -0.2123
17513TIP3    H173954   1.564   0.751   0.476 -0.3109  0.1080 -2.8238
17513TIP3    H273955   1.697   0.810   0.520 -0.4078 -3.4435  2.6597
17514TIP3   OH273956   1.654   5.078   6.088  0.0634  0.1118  0.2070
17514TIP3    H173957   1.640   5.156   6.035 -2.4185  0.0525  0.6888
17514TIP3    H273958   1.686   5.111   6.172 -2.7807  0.8572  1.0829
17515TIP3   OH273959   3.197   5.551   5.241 -0.4335  0.5487  0.2594
17515TIP3    H173960   3.113   5.574   5.201 -0.7490 -1.1539 -0.0796
17515TIP3    H273961   3.219   5.466   5.204  1.8093  1.2840 -0.2014
17516TIP3   OH273962   1.487   4.971   1.636  0.1722  0.1918 -0.3007
17516TIP3    H173963   1.541   4.894   1.652 -1.4797 -0.9791 -0.1256
17516TIP3    H273964   1.398   4.943   1.659 -0.3787  2.3419  0.3490
17517TIP3   OH273965   2.348   3.604   2.928 -0.7682  0.1525  0.2333
17517TIP3    H173966   2.411   3.573   2.993 -0.5201  0.0264 -0.0673
17517TIP3    H273967   2.273   3.546   2.937 -0.6184 -0.0442  0.2080
17518TIP3   OH273968   3.718   1.041   1.432 -0.3994 -0.0942 -0.2990
17518TIP3    H173969   3.706   0.963   1.378  0.2050 -0.0585 -0.4914
17518TIP3    H273970   3.752   1.107   1.372 -0.7196  0.2621 -0.0935
17519TIP3   OH273971   6.502   1.241   1.902  0.0438 -0.1285 -0.4689
17519TIP3    H173972   6.562   1.277   1.967 -0.2391  0.4448 -0.5153
17519TIP3    H273973   6.554   1.180   1.851  0.3218 -0.4249  0.1641
17520TIP3   OH273974   6.407   4.078   2.557  0.1752 -0.0261  0.3843
17520TIP3    H173975   6.420   4.063   2.463 -2.6589  1.4120 -0.3059
17520TIP3    H273976   6.403   3.990   2.595 -0.4524 -0.6738 -1.1292
17521TIP3   OH273977   6.007   1.071  11.629 -0.5577 -0.6194  0.2884
17521TIP3    H173978   5.965   1.140  11.681 -0.4641 -0.8920  0.7306
17521TIP3    H273979   6.038   1.115  11.550  0.6300  0.0863  1.1513
17522TIP3   OH273980   6.467   1.434  15.706  0.0669  0.2745 -0.0478
17522TIP3    H173981   6.401   1.417  15.773 -0.7564  0.3237 -0.8269
17522TIP3    H273982   6.452   1.366  15.640 -0.6100  1.5534 -1.2559
17523TIP3   OH273983   3.503   2.021   2.984  0.3708  0.1936 -0.2230
17523TIP3    H173984   3.567   2.002   3.053 -0.7212  1.3270  1.1225
17523TIP3    H273985   3.425   1.971   3.009 -0.4838  1.6663  0.1067
17524TIP3   OH273986   2.080   1.475   3.767 -0.1716  0.1435  0.1281
17524TIP3    H173987   2.149   1.436   3.713  0.5991  0.5225  0.8263
17524TIP3    H273988   2.023   1.401   3.789 -0.1499 -0.1233 -0.6925
17525TIP3   OH273989   2.824   1.492  13.843  0.0433 -0.2724 -0.5878
17525TIP3    H173990   2.746   1.468  13.894  0.5785  0.3417  0.5228
17525TIP3    H273991   2.897   1.459  13.894  0.6454  1.2980 -0.4058
17526TIP3   OH273992   5.490   0.779  11.466 -0.5203 -0.6249 -0.0133
17526TIP3    H173993   5.519   0.688  11.477  0.1037 -0.4318 -0.0578
17526TIP3    H273994   5.397   0.776  11.486 -0.2195 -1.0162  1.3676
17527TIP3   OH273995   6.752   6.559  14.356 -0.1794  0.7092 -0.1745
17527TIP3    H173996   6.680   6.498  14.341  0.0111 -0.0263  1.8035
17527TIP3    H273997   6.714   6.632  14.404  0.0789  1.0684 -0.5064
17528TIP3   OH273998   3.859   2.621  12.882  0.2562  0.2394 -0.2982
17528TIP3    H173999   3.919   2.651  12.813  0.3021 -0.7504 -0.6859
17528TIP3    H274000   3.813   2.701  12.909  0.3676  0.6711 -1.3470
17529TIP3   OH274001   1.694   3.271   0.492 -0.0505 -0.0592 -0.3957
17529TIP3    H174002   1.601   3.256   0.476 -0.9303  2.8760  1.4987
17529TIP3    H274003   1.721   3.335   0.427  0.1488  0.5410  0.2644
17530TIP3   OH274004   1.507   5.054  13.878  0.6175 -0.5868  0.0204
17530TIP3    H174005   1.584   5.004  13.851  1.6616  0.3021  1.2654
17530TIP3    H274006   1.530   5.145  13.859 -0.6573 -0.4268 -0.8025
17531TIP3   OH274007   4.602   0.979  14.551  0.2258  0.2935 -0.3593
17531TIP3    H174008   4.515   1.007  14.521 -0.5599  1.1360  2.6041
17531TIP3    H274009   4.662   1.024  14.491 -1.3081  0.9589 -1.4543
17532TIP3   OH274010   3.222   1.973   0.031 -0.1052  0.2175  0.5597
17532TIP3    H174011   3.307   1.946  -0.005  0.1413  1.0214  0.5287
17532TIP3    H274012   3.237   2.062   0.062 -1.3218  0.8857 -0.7496
17533TIP3   OH274013   2.309   6.145   3.777 -0.0265 -0.5622 -0.4772
17533TIP3    H174014   2.287   6.177   3.690  0.3228 -0.4818 -0.5396
17533TIP3    H274015   2.243   6.183   3.835 -1.0759 -1.7248 -0.8947
17534TIP3   OH274016   3.000   5.788  11.159  0.0111 -0.1870  0.3153
17534TIP3    H174017   2.967   5.716  11.105 -2.3403 -0.0200  1.4379
17534TIP3    H274018   3.040   5.745  11.234  1.9820 -0.3822 -0.8177
17535TIP3   OH274019   2.239   0.649  10.791 -0.1216  0.6264  0.4351
17535TIP3    H174020   2.193   0.733  10.794 -0.8901  0.4289 -3.4077
17535TIP3    H274021   2.303   0.660  10.720 -0.1362 -1.9653  0.0004
17536TIP3   OH274022   0.668   3.638   0.168 -0.2968 -0.3093 -0.5049
17536TIP3    H174023   0.717   3.602   0.093  1.4135  1.8294 -0.4961
17536TIP3    H274024   0.721   3.615   0.244 -0.1924  0.5369 -0.3165
17537TIP3   OH274025   2.834   6.023   2.823  0.0185 -0.3704  0.2685
17537TIP3    H174026   2.866   6.113   2.809  2.3439 -0.9170  1.8606
17537TIP3    H274027   2.739   6.029   2.808  0.2438  2.1958 -0.3734
17538TIP3   OH274028   4.385   0.526   1.236 -0.3987 -0.0952 -0.2403
17538TIP3    H174029   4.428   0.602   1.198  3.2898 -2.0994 -0.2467
17538TIP3    H274030   4.359   0.472   1.161  0.3719 -0.6014 -0.1522
17539TIP3   OH274031   6.591   5.781   4.850  0.0507  0.0283 -0.3688
17539TIP3    H174032   6.544   5.864   4.852 -0.8538 -0.4224 -1.9033
17539TIP3    H274033   6.669   5.798   4.797  0.0827  0.0001 -0.3315
17540TIP3   OH274034   5.780   5.029   0.838 -0.4710  0.0902 -0.1828
17540TIP3    H174035   5.807   5.094   0.774  1.0093 -0.5832 -0.2820
17540TIP3    H274036   5.860   4.978   0.855 -1.4563 -1.3459  0.2841
17541TIP3   OH274037   2.498   1.504  14.733  0.5484 -0.4543  0.2652
17541TIP3    H174038   2.435   1.436  14.712  1.1322 -1.1853  0.8632
17541TIP3    H274039   2.579   1.476  14.689  0.8129 -0.2005  0.5866
17542TIP3   OH274040   0.788   4.750  16.943  0.1049 -0.0819  0.5197
17542TIP3    H174041   0.725   4.776  16.876 -0.4882  0.4664  1.2779
17542TIP3    H274042   0.830   4.671  16.908  1.6529  1.6536 -1.6396
17543TIP3   OH274043   4.589   3.312  16.761 -0.2229 -0.0074 -0.8661
17543TIP3    H174044   4.636   3.390  16.791 -0.7707  0.3106 -0.8318
17543TIP3    H274045   4.624   3.296  16.673  0.4460 -0.1749 -0.5717
17544TIP3   OH274046   1.361   4.373   2.490  0.2003 -0.4630  0.1324
17544TIP3    H174047   1.301   4.414   2.428  1.5274  3.5204  1.3053
17544TIP3    H274048   1.424   4.325   2.436 -0.1179  0.8802 -1.4595
17545TIP3   OH274049   2.597   5.886   1.656 -0.0567 -0.7114  0.3865
17545TIP3    H174050   2.634   5.862   1.571 -0.2313  1.1032 -0.2103
17545TIP3    H274051   2.544   5.964   1.639 -0.5086 -0.6202  2.0671
17546TIP3   OH274052   3.338   3.398   3.601 -0.1872  0.4676 -0.4805
17546TIP3    H174053   3.266   3.460   3.611  1.4814  1.8980  4.1567
17546TIP3    H274054   3.311   3.322   3.653  0.9751  0.4228  0.0763
17547TIP3   OH274055   4.190   2.472   2.259 -0.2893  0.0203  0.1195
17547TIP3    H174056   4.237   2.395   2.290  0.3736  0.7270  0.8968
17547TIP3    H274057   4.121   2.487   2.324 -0.8555 -0.3201 -0.3957
17548TIP3   OH274058   4.570   3.987   1.483 -0.0836 -0.2873 -0.0770
17548TIP3    H174059   4.585   4.081   1.492 -0.6084 -0.1339 -0.8130
17548TIP3    H274060   4.583   3.953   1.571  2.4060  0.1492 -0.2314
17549TIP3   OH274061   3.397   1.811  15.696  0.2390  0.2787 -0.4978
17549TIP3    H174062   3.322   1.810  15.756  2.2247 -1.4027  2.0657
17549TIP3    H274063   3.371   1.754  15.624 -1.4572  0.7872 -0.3001
17550TIP3   OH274064   5.640   3.314   6.559 -0.2508  0.1623 -0.0015
17550TIP3    H174065   5.670   3.342   6.645  0.2349 -2.0660  0.5836
17550TIP3    H274066   5.720   3.303   6.508 -0.4147 -0.2732 -0.1714
17551TIP3   OH274067   3.399   2.938   1.350  0.4594  0.0786 -0.5511
17551TIP3    H174068   3.351   3.020   1.337  0.1157  0.0695  0.5817
17551TIP3    H274069   3.375   2.884   1.275 -0.0651  0.6629 -0.8107
17552TIP3   OH274070   0.700   4.027  13.873 -0.3419 -0.5036  0.0200
17552TIP3    H174071   0.671   3.969  13.943  1.0291 -2.3429 -0.9119
17552TIP3    H274072   0.794   4.036  13.886 -0.0755 -0.8146 -1.5256
17553TIP3   OH274073   6.730   0.713  12.040  0.0165 -0.2873 -0.3099
17553TIP3    H174074   6.712   0.620  12.054  2.4894 -0.5118  1.5596
17553TIP3    H274075   6.825   0.720  12.040 -0.1241  2.1550 -1.1233
17554TIP3   OH274076   6.304   2.232  13.711 -0.0102  0.3442 -0.0479
17554TIP3    H174077   6.254   2.151  13.720  0.8944 -0.1881  0.2774
17554TIP3    H274078   6.366   2.215  13.640  2.1936 -0.3403  1.9373
17555TIP3   OH274079   0.465   6.592  14.564  0.2213 -0.6833  0.9618
17555TIP3    H174080   0.419   6.660  14.516  0.3453 -0.5639  1.0116
17555TIP3    H274081   0.412   6.577  14.642  0.5681 -0.1449  1.2985
17556TIP3   OH274082   2.536   2.635  16.090  0.9074 -0.0073  0.0985
17556TIP3    H174083   2.471   2.646  16.159  2.2022  0.3766  1.3025
17556TIP3    H274084   2.552   2.724  16.058  0.6793 -0.1255 -0.3417
17557TIP3   OH274085   4.977   5.003   0.755  0.0564 -0.1385 -0.2047
17557TIP3    H174086   4.885   4.979   0.763  0.0360  0.3649  1.1290
17557TIP3    H274087   4.987   5.080   0.811  1.1358  0.2417 -0.8912
17558TIP3   OH274088   5.501   5.180   0.552 -0.1168  0.3642  0.0015
17558TIP3    H174089   5.522   5.248   0.616 -0.0616  2.2664 -1.9794
17558TIP3    H274090   5.546   5.102   0.584  0.7125  1.5314  1.7481
17559TIP3   OH274091   0.015   4.746  16.206 -0.0573  0.0764  0.1018
17559TIP3    H174092   0.033   4.659  16.170  1.3106  0.4770 -0.2098
17559TIP3    H274093   0.041   4.807  16.137 -0.4636  0.7683  0.5419
17560TIP3   OH274094   1.225   2.693  16.596 -0.3989 -0.3980 -0.2952
17560TIP3    H174095   1.292   2.630  16.570  1.7160  2.3220 -1.8609
17560TIP3    H274096   1.233   2.699  16.691  1.9290  0.1526 -0.4865
17561TIP3   OH274097   5.319   4.485  10.362 -0.2067 -0.4563  0.3853
17561TIP3    H174098   5.336   4.401  10.319 -0.6412 -0.5392  0.3743
17561TIP3    H274099   5.344   4.551  10.297 -0.5165 -0.5805  0.1370
17562TIP3   OH274100   1.879   2.574   3.433 -0.0174 -0.0715  0.2224
17562TIP3    H174101   1.826   2.579   3.353  0.7640  0.5461 -0.2565
17562TIP3    H274102   1.839   2.637   3.492  0.2673  0.5000 -0.1922
17563TIP3   OH274103   0.052   1.921   4.127 -0.6782 -0.6955 -0.7194
17563TIP3    H174104  -0.029   1.871   4.137 -1.4022  0.5606 -0.1487
17563TIP3    H274105   0.056   1.976   4.206  0.7285 -0.7469 -0.7457
17564TIP3   OH274106   4.909   4.097   0.258 -0.1739  0.1398 -0.4017
17564TIP3    H174107   4.865   4.161   0.315 -0.5900 -0.2898 -0.2360
17564TIP3    H274108   4.844   4.029   0.244  1.2217 -1.7572  1.8777
17565TIP3   OH274109   6.743   2.473  13.000  0.4487  0.3039 -0.1839
17565TIP3    H174110   6.749   2.499  12.908 -0.4746  0.7243 -0.1339
17565TIP3    H274111   6.749   2.556  13.048 -0.5286  0.2381  0.0636
17566TIP3   OH274112   1.922   2.795  15.822  0.3287  0.1752  0.2183
17566TIP3    H174113   1.897   2.863  15.885  0.2596  0.8651 -0.5568
17566TIP3    H274114   2.013   2.775  15.843 -0.0013 -0.3354  1.2110
17567TIP3   OH274115   4.405   3.017  14.028  0.1919 -0.5337 -0.6297
17567TIP3    H174116   4.451   3.051  14.105  1.3046  0.4118 -1.6935
17567TIP3    H274117   4.403   2.922  14.041 -0.2009 -0.3245  0.8737
17568TIP3   OH274118   0.486   0.951   4.907 -0.2275  0.0953 -0.1717
17568TIP3    H174119   0.421   0.918   4.969 -1.3743  0.4778 -1.1281
17568TIP3    H274120   0.522   0.873   4.865 -0.0600 -0.1224  0.3865
17569TIP3   OH274121   1.514   2.384  16.308 -0.2575  0.1947  0.2539
17569TIP3    H174122   1.603   2.370  16.339 -0.7505 -0.5139  1.4034
17569TIP3    H274123   1.494   2.306  16.255 -1.2657 -1.1881  2.5767
17570TIP3   OH274124   4.583   4.922  15.644 -0.5554 -0.2840 -0.3472
17570TIP3    H174125   4.649   4.863  15.607 -0.6753  0.1646 -1.2757
17570TIP3    H274126   4.529   4.865  15.699 -0.0448 -0.8506 -0.4275
17571TIP3   OH274127   5.826   4.598   2.746  0.6058 -0.5894 -0.0514
17571TIP3    H174128   5.789   4.681   2.774  1.8702 -0.7050  2.0804
17571TIP3    H274129   5.900   4.622   2.691 -0.2252 -0.3273 -1.0572
17572TIP3   OH274130   4.467   6.422   1.962 -1.0897 -0.3102  0.4754
17572TIP3    H174131   4.562   6.432   1.952 -1.3421  0.8284 -1.0995
17572TIP3    H274132   4.456   6.380   2.047  0.8342 -0.5741  0.6226
17573TIP3   OH274133   3.996   5.904  12.765  0.0036  0.3924  0.2514
17573TIP3    H174134   3.986   5.854  12.684  2.3769  0.5042 -0.1306
17573TIP3    H274135   4.061   5.855  12.816 -0.8392  0.7778  1.7316
17574TIP3   OH274136   6.606   6.716   2.942 -0.0677  0.2745  0.6380
17574TIP3    H174137   6.652   6.642   2.982  0.5874 -0.2628 -1.0723
17574TIP3    H274138   6.571   6.765   3.016  0.2252 -1.2755  1.8238
17575TIP3   OH274139   6.102   5.249   2.054  0.2563 -0.0426  0.0242
17575TIP3    H174140   6.194   5.222   2.058  0.6375  0.9806 -1.5281
17575TIP3    H274141   6.055   5.168   2.030  0.5011 -0.9834  2.5335
17576TIP3   OH274142   1.691   5.662  11.069 -0.4599  0.3468  0.2257
17576TIP3    H174143   1.604   5.623  11.056  0.6365 -1.2918 -2.6649
17576TIP3    H274144   1.697   5.730  11.001  0.4951  0.4472  0.4079
17577TIP3   OH274145   2.313   5.438  16.017 -0.3108 -0.7497 -0.0380
17577TIP3    H174146   2.248   5.429  15.948 -0.1970  1.4664 -0.4699
17577TIP3    H274147   2.263   5.471  16.092  0.3870  1.5686 -0.5595
17578TIP3   OH274148   2.692   5.477   3.773  0.0650 -0.0857  0.2535
17578TIP3    H174149   2.648   5.450   3.692 -1.5282  0.4590  0.9219
17578TIP3    H274150   2.775   5.514   3.743 -0.1269 -0.6937 -1.0684
17579TIP3   OH274151   1.810   5.532  14.735 -0.1006  0.3383 -0.5296
17579TIP3    H174152   1.724   5.549  14.773 -0.3785  1.4581 -1.6201
17579TIP3    H274153   1.808   5.577  14.651  1.0731 -0.7673 -1.1597
17580TIP3   OH274154   1.648   5.280   5.267  0.1704  0.8898  0.0538
17580TIP3    H174155   1.697   5.265   5.347 -0.2562  1.8276  0.4977
17580TIP3    H274156   1.569   5.327   5.295 -0.0688  1.0676 -0.8878
17581TIP3   OH274157   3.026   2.192   3.978  0.0065 -0.0905  0.5556
17581TIP3    H174158   2.939   2.168   3.945 -0.6912  0.5172  1.9398
17581TIP3    H274159   3.017   2.283   4.007  0.7782 -0.4135  1.8417
17582TIP3   OH274160   2.613   2.511  17.207  0.0912 -0.1917 -0.0690
17582TIP3    H174161   2.591   2.423  17.177 -1.5350 -0.9217  3.0835
17582TIP3    H274162   2.563   2.569  17.148 -0.3097 -1.4342 -0.9716
17583TIP3   OH274163   2.058   1.737   4.042  0.2391  0.3829  0.3160
17583TIP3    H174164   1.997   1.772   4.106  0.7410  2.4607 -0.2916
17583TIP3    H274165   2.125   1.692   4.093 -2.0108 -2.3899  0.9709
17584TIP3   OH274166   4.998   1.083   2.967 -0.1331 -0.2623  0.3524
17584TIP3    H174167   5.089   1.096   2.941 -0.7489  0.4215 -1.5241
17584TIP3    H274168   5.003   1.049   3.057  2.0833 -3.2663 -0.8285
17585TIP3   OH274169   2.254   0.048   1.319 -0.5452  0.5292  0.3394
17585TIP3    H174170   2.160   0.044   1.301 -0.7893 -2.3505  2.1417
17585TIP3    H274171   2.262   0.103   1.397 -0.4012  3.3415 -1.5507
17586TIP3   OH274172   1.161   1.292  16.049 -0.2464 -0.1343  0.4692
17586TIP3    H174173   1.213   1.263  15.975 -0.6388  0.1278  0.0878
17586TIP3    H274174   1.200   1.374  16.076 -0.1553 -0.1879  0.5012
17587TIP3   OH274175   0.741   4.597  11.404 -0.2194 -0.3830 -0.1890
17587TIP3    H174176   0.823   4.640  11.381  0.2339 -2.3144 -2.3015
17587TIP3    H274177   0.767   4.511  11.437 -1.3624 -0.7973 -0.3424
17588TIP3   OH274178   0.285   4.284  16.492 -0.1024 -0.1248 -0.3421
17588TIP3    H174179   0.344   4.212  16.471  0.5137  0.0811  0.6385
17588TIP3    H274180   0.253   4.264  16.580 -0.9462  0.1343 -0.5831
17589TIP3   OH274181   1.138   1.845  16.456 -0.4241 -0.3714  0.1349
17589TIP3    H174182   1.080   1.920  16.444 -0.1053 -0.0788  0.4297
17589TIP3    H274183   1.083   1.779  16.499 -0.5294 -0.0888  0.4307
17590TIP3   OH274184   4.773   4.833   4.702 -0.4932 -0.6544  0.3900
17590TIP3    H174185   4.737   4.910   4.658  0.7068  0.5007  1.4245
17590TIP3    H274186   4.863   4.856   4.721 -0.1974 -2.2281  0.9481
17591TIP3   OH274187   0.893   0.128  13.997  0.2762  0.0967 -0.1342
17591TIP3    H174188   0.976   0.139  14.044  0.2136 -2.6838  0.6776
17591TIP3    H274189   0.919   0.099  13.910  0.1583 -1.0190  0.1985
17592TIP3   OH274190   5.515   4.410  15.983  0.4029 -0.0729 -0.2037
17592TIP3    H174191   5.422   4.430  15.977  0.1840 -1.4116 -1.5779
17592TIP3    H274192   5.519   4.315  15.993  1.6929 -0.4163 -3.3936
17593TIP3   OH274193   5.073   6.380  14.986 -0.0625 -0.1619 -0.5585
17593TIP3    H174194   5.087   6.317  15.057  0.2564  0.9280  0.3652
17593TIP3    H274195   4.978   6.382  14.975 -0.2161  0.6969  0.8039
17594TIP3   OH274196   1.675   3.189   5.024  0.3924 -0.6907  0.1247
17594TIP3    H174197   1.697   3.234   5.106 -1.6770  1.3042 -0.3730
17594TIP3    H274198   1.704   3.099   5.038  0.0597 -0.3916  3.0553
17595TIP3   OH274199   2.420   6.607   1.191 -0.0258  0.4851 -0.3180
17595TIP3    H174200   2.425   6.676   1.125 -3.3054  0.2596 -0.8552
17595TIP3    H274201   2.396   6.653   1.272 -1.0514  0.1150 -0.4142
17596TIP3   OH274202   3.733   4.099   5.075  0.3105 -0.1392  0.3077
17596TIP3    H174203   3.745   4.012   5.113 -1.3686 -0.3917  0.3033
17596TIP3    H274204   3.655   4.090   5.020  0.1262  1.3753  0.3063
17597TIP3   OH274205   1.022   2.866  13.502  0.4058  0.2270 -0.9309
17597TIP3    H174206   1.052   2.859  13.593 -0.4741  1.6465 -0.5138
17597TIP3    H274207   1.088   2.921  13.459  0.0751  0.7376 -0.7919
17598TIP3   OH274208   1.137   0.895  12.438 -0.3764 -0.3491 -0.0881
17598TIP3    H174209   1.183   0.815  12.461  0.4185  0.0424 -0.2854
17598TIP3    H274210   1.104   0.928  12.521  1.6194  0.5274  0.3864
17599TIP3   OH274211   3.062   0.056   1.652  0.1935 -0.1846  0.3760
17599TIP3    H174212   3.050   0.024   1.741  0.1534  2.0340  1.1899
17599TIP3    H274213   3.078   0.150   1.662  0.6093  0.0182 -1.9236
17600TIP3   OH274214   6.224   6.220  11.872 -0.3174  0.2668  0.0267
17600TIP3    H174215   6.156   6.229  11.805  1.1720 -1.4690 -1.7864
17600TIP3    H274216   6.212   6.132  11.907  0.6853  0.1210  0.0250
17601TIP3   OH274217   1.275   1.070  11.352  0.0496 -0.3367 -0.0407
17601TIP3    H174218   1.363   1.072  11.312 -0.1273  1.2146 -0.3713
17601TIP3    H274219   1.231   1.148  11.318 -1.3853 -0.9738  0.3171
17602TIP3   OH274220   2.735   4.247  16.625 -0.0971  0.1376  0.0139
17602TIP3    H174221   2.702   4.178  16.682  0.0623 -0.0541 -0.1280
17602TIP3    H274222   2.764   4.202  16.546 -1.9613  0.5918 -0.9506
17603TIP3   OH274223   1.339   2.934   5.382 -0.2010 -0.4187  0.3895
17603TIP3    H174224   1.419   2.893   5.415  0.3391  0.2547 -0.0703
17603TIP3    H274225   1.304   2.980   5.458 -0.4164 -1.1236  0.7190
17604TIP3   OH274226   2.702   6.339  15.117 -0.2022  0.0150 -0.3720
17604TIP3    H174227   2.695   6.384  15.201 -1.6899 -1.0131  0.0836
17604TIP3    H274228   2.728   6.249  15.140 -1.9159 -0.6320 -0.8962
17605TIP3   OH274229   3.505   1.277  13.359  0.6406  0.2068  0.2822
17605TIP3    H174230   3.500   1.361  13.315  0.1564  0.6014  1.0887
17605TIP3    H274231   3.517   1.214  13.288  1.7458  1.0177 -0.2625
17606TIP3   OH274232   1.044   0.961  11.259 -0.2261  0.4805 -0.0377
17606TIP3    H174233   1.128   0.964  11.305 -0.6835  0.3795  0.8071
17606TIP3    H274234   1.068   0.970  11.166  0.5857  2.1064  0.2995
17607TIP3   OH274235   5.879   2.750   0.331 -0.3042  0.6945 -0.5732
17607TIP3    H174236   5.819   2.799   0.274 -0.5090  0.8644 -0.2127
17607TIP3    H274237   5.838   2.665   0.340 -0.7849  0.9990  0.1410
17608TIP3   OH274238   5.924   5.411  13.640  0.3930  0.2142 -0.3685
17608TIP3    H174239   5.845   5.427  13.692  0.1804  0.5726 -0.7966
17608TIP3    H274240   5.970   5.494  13.640 -0.6357  0.8323 -2.4687
17609TIP3   OH274241   0.821   4.880   0.239  0.6602 -0.0533  0.1661
17609TIP3    H174242   0.792   4.797   0.199  0.9579 -0.6592  1.1858
17609TIP3    H274243   0.878   4.919   0.174 -2.0207  0.9093 -1.6864
17610TIP3   OH274244   5.612   6.511   5.086 -0.0288  0.3311 -0.3253
17610TIP3    H174245   5.537   6.561   5.055 -0.1876  0.4041  0.1667
17610TIP3    H274246   5.688   6.564   5.062 -0.0596 -0.3338 -1.9212
17611TIP3   OH274247   5.994   5.691  12.896 -0.4144 -0.1010  0.3811
17611TIP3    H174248   5.997   5.787  12.893 -1.7379 -0.0863 -1.4584
17611TIP3    H274249   6.083   5.664  12.874 -0.2954  0.7078 -0.1832
17612TIP3   OH274250   4.355   3.725   1.750  0.0933 -0.1173  0.0138
17612TIP3    H174251   4.400   3.808   1.757  1.3451 -0.7956  0.1273
17612TIP3    H274252   4.417   3.660   1.783 -0.4238 -1.2457 -1.1563
17613TIP3   OH274253   1.536   2.844   1.954  0.6049  0.1749  0.1857
17613TIP3    H174254   1.463   2.797   1.996  1.0657  1.3399  2.3709
17613TIP3    H274255   1.600   2.775   1.936 -0.1588 -0.5521  0.1844
17614TIP3   OH274256   1.805   2.741   2.156 -0.4516  0.2051 -0.2004
17614TIP3    H174257   1.727   2.791   2.181 -0.9245 -1.1662  1.1539
17614TIP3    H274258   1.878   2.799   2.176 -1.0561  0.9118 -0.0097
17615TIP3   OH274259   5.204   6.411  12.116 -0.1963 -0.0755  0.1340
17615TIP3    H174260   5.260   6.333  12.117  0.2187  0.2232  0.4139
17615TIP3    H274261   5.170   6.415  12.026  0.3194 -0.1987 -0.0671
17616TIP3   OH274262   3.326   6.365   2.153  0.0466  0.1014  0.1763
17616TIP3    H174263   3.365   6.383   2.239 -0.2976  0.1424  0.3255
17616TIP3    H274264   3.361   6.279   2.129  2.8509  1.5951 -1.2168
17617TIP3   OH274265   3.879   4.332   1.735  0.2954  0.5564 -0.2254
17617TIP3    H174266   3.945   4.354   1.801  1.1919 -0.8983 -0.6238
17617TIP3    H274267   3.919   4.264   1.682 -1.3148  0.0355 -0.8211
17618TIP3   OH274268   2.739   0.276  15.809 -0.0065  0.4530 -0.5819
17618TIP3    H174269   2.805   0.223  15.852 -0.0213  0.3123 -0.7327
17618TIP3    H274270   2.789   0.336  15.754  0.0046  0.5024 -0.5175
17619TIP3   OH274271   2.262   0.069   0.224 -0.3287 -0.2328  0.9633
17619TIP3    H174272   2.346   0.023   0.217 -1.3847 -2.0241 -0.4474
17619TIP3    H274273   2.282   0.148   0.274  2.6158  0.3752 -1.0094
17620TIP3   OH274274   0.574   3.378  14.905  0.3272  0.1286 -0.4468
17620TIP3    H174275   0.631   3.347  14.834  0.9823  0.7106 -0.1771
17620TIP3    H274276   0.629   3.436  14.957 -0.7962  1.5451 -0.7788
17621TIP3   OH274277   4.764   4.234  10.988 -0.2748  0.2998 -0.2647
17621TIP3    H174278   4.785   4.253  10.897 -0.3234 -0.0148 -0.3408
17621TIP3    H274279   4.783   4.316  11.034  1.8753 -0.2163 -0.1909
17622TIP3   OH274280   3.609   4.391  15.335  0.2236  0.0498 -0.1330
17622TIP3    H174281   3.682   4.356  15.286  0.6403 -0.7105  0.9983
17622TIP3    H274282   3.638   4.477  15.365  1.2718 -0.8884  1.6241
17623TIP3   OH274283   6.624   3.741   4.044  0.0386  0.2937 -0.2872
17623TIP3    H174284   6.575   3.746   4.126  0.9847  0.7580  0.2597
17623TIP3    H274285   6.708   3.703   4.069  0.5830  1.0725 -0.9199
17624TIP3   OH274286   4.172   5.140  12.003  0.2283 -0.3287 -0.0757
17624TIP3    H174287   4.109   5.201  12.040 -1.2255  0.0647 -3.0370
17624TIP3    H274288   4.198   5.085  12.076 -2.2021  0.6543  1.5941
17625TIP3   OH274289   4.202   4.460   2.549 -0.0431 -0.0420 -0.0766
17625TIP3    H174290   4.140   4.457   2.622  1.9226 -0.6901  1.6026
17625TIP3    H274291   4.275   4.514   2.581 -0.2297  1.7060 -2.4447
17626TIP3   OH274292   6.490   0.704  14.529 -0.0644  0.3245  0.3549
17626TIP3    H174293   6.397   0.686  14.515 -0.1242  0.0291  1.0859
17626TIP3    H274294   6.525   0.722  14.442 -0.4323 -1.3573 -0.1650
17627TIP3   OH274295   3.163   2.901  13.503  0.5066  0.0474 -0.0683
17627TIP3    H174296   3.154   2.961  13.428  2.3429  0.6942  0.2126
17627TIP3    H274297   3.073   2.880  13.527 -0.1374  1.2107 -1.3713
17628TIP3   OH274298   2.046   1.493  12.010  0.0461  0.1412  0.0454
17628TIP3    H174299   2.076   1.413  11.967  0.8086  1.8692 -2.7670
17628TIP3    H274300   2.101   1.563  11.973 -2.6620  2.3968  0.0920
17629TIP3   OH274301   0.109   3.393  12.903 -0.4296 -0.0129 -0.3858
17629TIP3    H174302   0.025   3.351  12.922 -0.5896 -0.4510 -1.9974
17629TIP3    H274303   0.086   3.469  12.850  0.1417  0.1969 -0.3322
17630TIP3   OH274304   2.131   2.674   4.499  0.5519  0.6025  0.1677
17630TIP3    H174305   2.209   2.621   4.516  0.4652  1.3621  3.1253
17630TIP3    H274306   2.154   2.725   4.421  2.3664 -0.3918  0.0060
17631TIP3   OH274307   0.541   3.858   0.697 -0.1619  0.0013 -0.1776
17631TIP3    H174308   0.500   3.817   0.772 -1.2378  3.7662  1.3699
17631TIP3    H274309   0.627   3.885   0.728  0.4690 -0.8177 -1.1395
17632TIP3   OH274310   6.713   5.252  10.485 -0.0138  0.4030  0.2145
17632TIP3    H174311   6.626   5.266  10.447  0.7652  1.2210 -1.3065
17632TIP3    H274312   6.739   5.166  10.452 -1.4887 -1.2759  3.1682
17633TIP3   OH274313   1.372   6.784   5.334 -0.6367 -0.1856  0.5315
17633TIP3    H174314   1.317   6.859   5.313 -0.5817 -0.8106 -2.0300
17633TIP3    H274315   1.310   6.712   5.350 -0.6879  0.3503  2.9293
17634TIP3   OH274316   2.102   4.647   1.882 -0.1899 -0.3703 -0.0889
17634TIP3    H174317   2.132   4.738   1.891  0.7259 -0.6578 -0.1406
17634TIP3    H274318   2.181   4.595   1.898 -0.5423 -1.1333 -0.8278
17635TIP3   OH274319   4.605   3.371  11.352  0.2169  0.0265  0.2375
17635TIP3    H174320   4.558   3.414  11.280  0.8063 -1.2526 -0.9364
17635TIP3    H274321   4.536   3.344  11.412 -0.5015 -1.0986 -1.0655
17636TIP3   OH274322   5.900   3.701   1.087 -0.5128  0.6649 -0.5175
17636TIP3    H174323   5.963   3.662   1.146 -0.4832  1.4216 -0.0438
17636TIP3    H274324   5.857   3.626   1.045  0.2905  0.1447 -0.4233
17637TIP3   OH274325   5.559   0.480  11.903  0.0218 -0.3733  0.2772
17637TIP3    H174326   5.603   0.438  11.829 -0.9575  2.0725 -1.7678
17637TIP3    H274327   5.466   0.467  11.887 -0.2067  0.4344  0.9218
17638TIP3   OH274328   1.611   1.029   3.216  0.2447 -0.0270 -0.0535
17638TIP3    H174329   1.648   1.053   3.301 -0.0856  0.3329 -0.0130
17638TIP3    H274330   1.587   0.937   3.226  0.5970 -0.1036  0.1063
17639TIP3   OH274331   5.776   3.909  16.256 -0.0540  0.0986 -0.7643
17639TIP3    H174332   5.820   3.984  16.295 -0.0217 -0.1966 -0.2359
17639TIP3    H274333   5.839   3.838  16.260 -0.5463 -0.3053 -0.0697
17640TIP3   OH274334   4.562   5.126   0.381  0.7616 -0.0194  0.6171
17640TIP3    H174335   4.620   5.080   0.321  1.1140 -0.9882  1.6866
17640TIP3    H274336   4.572   5.080   0.465  0.3987  1.3987  1.4620
17641TIP3   OH274337   6.093   6.500  12.689  0.3605  0.1628  0.3517
17641TIP3    H174338   6.095   6.588  12.727 -0.0631  0.0988  0.5190
17641TIP3    H274339   6.000   6.478  12.683  0.4035  0.2511 -0.9104
17642TIP3   OH274340   6.541   3.184   4.541  0.3230 -0.1395  0.0033
17642TIP3    H174341   6.604   3.252   4.565 -0.4353  0.7492 -0.4832
17642TIP3    H274342   6.584   3.135   4.471 -0.4194  1.9305 -1.9730
17643TIP3   OH274343   0.093   3.711   6.401  0.1322  0.0008 -0.0445
17643TIP3    H174344   0.131   3.756   6.476  0.6310  3.0092 -2.0298
17643TIP3    H274345   0.166   3.700   6.340 -1.0648  1.2946 -1.7696
17644TIP3   OH274346   0.123   3.146   4.537  0.0721 -0.2324  0.4497
17644TIP3    H174347   0.193   3.137   4.472  1.2673 -0.7452  1.7824
17644TIP3    H274348   0.045   3.113   4.493  0.8328 -0.4163 -0.7854
17645TIP3   OH274349   0.857   1.788  10.689 -0.2972 -0.9500 -0.2656
17645TIP3    H174350   0.861   1.693  10.677 -0.6616 -1.2672  1.8109
17645TIP3    H274351   0.770   1.804  10.727 -0.1745  0.1839 -0.4460
17646TIP3   OH274352   5.620   0.227   1.164  0.3710 -0.4779  0.0192
17646TIP3    H174353   5.665   0.306   1.194 -1.1347  0.2993  0.2950
17646TIP3    H274354   5.533   0.258   1.137  0.1603 -1.8649 -0.9402
17647TIP3   OH274355   4.574   6.592  15.095 -0.4138  0.0695  0.0253
17647TIP3    H174356   4.622   6.671  15.119  0.3395 -0.7509  1.2913
17647TIP3    H274357   4.556   6.602  15.001  1.3677  0.8528 -0.2537
17648TIP3   OH274358   1.438   1.129  14.341 -0.3213 -0.3663 -0.1004
17648TIP3    H174359   1.496   1.175  14.402 -0.2842 -0.8749  0.2513
17648TIP3    H274360   1.403   1.055  14.392 -0.3055 -0.7829 -0.6898
17649TIP3   OH274361   5.817   1.449   2.004 -0.4624 -0.2440 -0.4422
17649TIP3    H174362   5.832   1.355   2.014  0.8948 -0.3060 -2.7535
17649TIP3    H274363   5.882   1.490   2.061 -2.4516 -0.6771  2.2372
17650TIP3   OH274364   2.598   0.028   3.651 -1.0509 -0.1113  0.0419
17650TIP3    H174365   2.612   0.115   3.690  0.0728  0.5886 -1.8345
17650TIP3    H274366   2.591   0.045   3.557  0.5916 -2.2121 -0.4937
17651TIP3   OH274367   6.359   1.364   4.083  0.1347  0.0153  0.9714
17651TIP3    H174368   6.340   1.275   4.113  1.5924 -0.4994  0.4102
17651TIP3    H274369   6.296   1.379   4.013 -0.5180 -0.3405  1.4722
17652TIP3   OH274370   0.428   6.094  13.205 -0.0537 -0.5687  0.8280
17652TIP3    H174371   0.510   6.140  13.189  0.1598 -1.2004  0.0444
17652TIP3    H274372   0.360   6.153  13.172  0.0862 -0.0433  1.4795
17653TIP3   OH274373   5.418   2.773   3.262 -0.1976  0.7503 -0.0524
17653TIP3    H174374   5.377   2.802   3.344 -0.1331  0.3446  0.1218
17653TIP3    H274375   5.385   2.834   3.196 -1.9311 -0.2310 -0.1101
17654TIP3   OH274376   3.949   2.964  13.840 -0.7672  0.8176 -0.3614
17654TIP3    H174377   3.905   2.885  13.870  2.6370 -0.8179  0.6038
17654TIP3    H274378   3.956   2.953  13.745  0.4653 -0.5175 -0.1400
17655TIP3   OH274379   4.795   1.136   5.322  0.4391  0.2621  0.1965
17655TIP3    H174380   4.715   1.144   5.270  0.6542 -0.5208 -0.2564
17655TIP3    H274381   4.813   1.042   5.324  1.8220  0.4962 -0.4377
17656TIP3   OH274382   1.057   3.153  16.926  0.0743 -0.3393 -0.2152
17656TIP3    H174383   1.000   3.224  16.898  1.7896  0.7927 -0.9238
17656TIP3    H274384   1.118   3.141  16.853  2.0006 -0.1585  1.2998
17657TIP3   OH274385   4.295   3.335  13.732  0.1675 -0.2673 -0.1444
17657TIP3    H174386   4.254   3.281  13.800  2.1490  0.1122  1.3950
17657TIP3    H274387   4.380   3.359  13.768  1.0391  0.4239 -2.5424
17658TIP3   OH274388   5.453   4.791  11.519 -0.3076  0.7551 -0.3286
17658TIP3    H174389   5.388   4.836  11.465 -0.3183 -1.0524 -1.8529
17658TIP3    H274390   5.509   4.745  11.457  1.7727  1.3510  1.0254
17659TIP3   OH274391   4.249   3.483   2.685  0.2702  0.1279  0.0027
17659TIP3    H174392   4.308   3.537   2.632  0.3296  0.3503  0.2890
17659TIP3    H274393   4.167   3.482   2.636  0.9847 -1.4986 -1.1791
17660TIP3   OH274394   4.636   4.518   5.661 -0.0663 -0.0178 -0.0532
17660TIP3    H174395   4.691   4.501   5.737  2.0400  1.2698 -1.2252
17660TIP3    H274396   4.664   4.454   5.596 -0.0820  0.4982 -0.5810
17661TIP3   OH274397   1.396   2.945   1.460  0.3975  0.2138 -0.1114
17661TIP3    H174398   1.307   2.920   1.484  0.7437 -0.0455  0.9404
17661TIP3    H274399   1.388   3.037   1.433 -0.2222  0.1267 -0.2357
17662TIP3   OH274400   1.662   5.734  12.203 -0.2301  0.1134 -0.1969
17662TIP3    H174401   1.654   5.824  12.171 -1.3789 -0.6459 -2.1390
17662TIP3    H274402   1.576   5.695  12.187 -0.5339 -0.6375  2.9027
17663TIP3   OH274403   5.781   3.139  14.255  0.0787  0.2778 -0.6546
17663TIP3    H174404   5.839   3.063  14.247 -0.5253 -0.5316  1.9978
17663TIP3    H274405   5.828   3.200  14.311 -0.0248  1.2960 -1.6501
17664TIP3   OH274406   1.963   3.171   0.348 -0.1922  0.0407  0.3008
17664TIP3    H174407   1.882   3.199   0.390 -0.8489 -0.4599 -0.6250
17664TIP3    H274408   1.966   3.219   0.265 -0.5181 -1.3808 -0.5530
17665TIP3   OH274409   3.556   2.093   2.726 -0.1188 -0.1936 -0.0554
17665TIP3    H174410   3.523   2.073   2.813  2.3036 -1.7936  0.5603
17665TIP3    H274411   3.623   2.160   2.740  0.7132 -0.8955 -0.5837
17666TIP3   OH274412   4.647   5.532  16.970 -0.7677 -0.0285  0.3239
17666TIP3    H174413   4.556   5.501  16.967 -0.0306 -2.3957  0.9815
17666TIP3    H274414   4.682   5.513  16.883 -0.6139 -0.0883  0.3971
17667TIP3   OH274415   2.891   3.738  15.226 -0.2854 -0.0369 -0.3464
17667TIP3    H174416   2.848   3.654  15.240 -0.8587  0.3296  0.0812
17667TIP3    H274417   2.820   3.799  15.206  0.1301  0.3432 -0.6767
17668TIP3   OH274418   6.093   1.171  13.181 -0.1708 -0.1629 -0.7018
17668TIP3    H174419   6.128   1.185  13.094 -0.2468 -0.8914 -0.8553
17668TIP3    H274420   6.112   1.079  13.200 -1.6312 -0.4676 -0.6372
17669TIP3   OH274421   5.625   5.591   4.281 -0.4166 -0.0001 -0.0160
17669TIP3    H174422   5.661   5.663   4.230  1.4465 -1.7683 -1.2798
17669TIP3    H274423   5.684   5.583   4.356  0.6787 -1.5796 -1.0150
17670TIP3   OH274424   1.845   6.077   5.523  0.0410  0.3264  0.0347
17670TIP3    H174425   1.793   6.157   5.519  2.0034  1.6458  0.0258
17670TIP3    H274426   1.858   6.053   5.431  1.2459  1.2227 -0.0412
17671TIP3   OH274427   4.394   1.124   2.802  0.0965  0.0815  0.6143
17671TIP3    H174428   4.466   1.127   2.739 -0.0282 -0.1774  0.4565
17671TIP3    H274429   4.432   1.084   2.880 -0.2351 -1.3895  0.0405
17672TIP3   OH274430   5.716   0.893  13.315  0.0353 -0.4295  0.7649
17672TIP3    H174431   5.761   0.911  13.398  1.2969 -1.5195  0.3255
17672TIP3    H274432   5.624   0.884  13.340  0.2682  0.2267  1.9093
17673TIP3   OH274433   2.036   4.999  15.783  0.1313  0.0362 -0.2044
17673TIP3    H174434   1.989   4.998  15.867  1.6088 -2.1056  0.6691
17673TIP3    H274435   2.097   4.925  15.790  1.4810  0.8923 -2.5010
17674TIP3   OH274436   4.485   1.559  12.461  0.0319 -0.4149 -0.3750
17674TIP3    H174437   4.466   1.634  12.405 -1.5574 -1.2085 -0.9298
17674TIP3    H274438   4.410   1.554  12.521  1.4990  0.1653  1.5763
17675TIP3   OH274439   3.650   5.549   5.107  0.4242 -0.4230  0.3173
17675TIP3    H174440   3.577   5.506   5.062  3.1409 -2.6031 -2.2402
17675TIP3    H274441   3.672   5.491   5.179 -1.0787  0.8714  1.8860
17676TIP3   OH274442   1.923   6.350  13.034  0.2187  0.9330 -0.1159
17676TIP3    H174443   1.901   6.291  12.963 -0.8373  0.5528  0.5179
17676TIP3    H274444   1.923   6.437  12.995  0.0423  0.6855 -0.6671
17677TIP3   OH274445   1.154   1.291  12.739  0.4304  0.1968  0.8578
17677TIP3    H174446   1.221   1.341  12.691  1.5198 -1.1349  0.9576
17677TIP3    H274447   1.193   1.272  12.824 -0.5415  0.4213  1.3642
17678TIP3   OH274448   1.655   1.675  15.441  0.1080  0.0150 -0.1426
17678TIP3    H174449   1.650   1.584  15.412  1.1857  0.0525 -0.4854
17678TIP3    H274450   1.680   1.723  15.362 -0.3266  0.5938  0.0681
17679TIP3   OH274451   1.207   2.819   0.563 -0.3849 -0.0971 -0.5345
17679TIP3    H174452   1.169   2.806   0.650  1.5067  0.4357  0.3929
17679TIP3    H274453   1.169   2.900   0.532 -0.1703  0.3371  0.3129
17680TIP3   OH274454   2.062   6.248   4.780 -0.4378  0.2819 -0.2639
17680TIP3    H174455   1.976   6.221   4.813 -0.3832  0.7172  0.2431
17680TIP3    H274456   2.122   6.227   4.852 -0.2247  0.6448 -0.3369
17681TIP3   OH274457   3.700   1.565  11.230  0.3513  0.0978 -0.0901
17681TIP3    H174458   3.629   1.516  11.271 -0.2903  1.2834  0.2263
17681TIP3    H274459   3.779   1.530  11.271 -0.2413  0.7834  1.6732
17682TIP3   OH274460   5.162   0.495  15.964 -0.5438 -0.5241 -0.2850
17682TIP3    H174461   5.116   0.415  15.941 -1.2690 -0.4309  0.7982
17682TIP3    H274462   5.245   0.465  16.002  0.1750 -0.6967 -1.9485
17683TIP3   OH274463   0.292   4.647   0.583  0.5509  0.3854  0.3062
17683TIP3    H174464   0.238   4.589   0.637 -1.2981  1.9122  0.1419
17683TIP3    H274465   0.377   4.603   0.579 -0.2485 -1.3728  1.7400
17684TIP3   OH274466   1.811   5.736   0.392  0.4159  0.6940  0.1039
17684TIP3    H174467   1.863   5.786   0.329 -0.3150 -1.0012 -1.9062
17684TIP3    H274468   1.875   5.680   0.436  1.1058  2.7283  1.7426
17685TIP3   OH274469   0.902   1.328   2.087  0.3501  0.5020  0.0052
17685TIP3    H174470   0.835   1.353   2.150 -0.1919  0.6324 -0.6079
17685TIP3    H274471   0.915   1.234   2.101  1.0600  0.7542  1.0700
17686TIP3   OH274472   6.780   3.849  15.798 -0.2865  0.6671  0.1767
17686TIP3    H174473   6.717   3.779  15.817  0.5699  0.0395  0.7515
17686TIP3    H274474   6.799   3.888  15.884  0.1334  0.8243  0.0144
17687TIP3   OH274475   3.034   0.211   5.738  0.6186 -0.5913  0.5980
17687TIP3    H174476   2.960   0.195   5.679  1.5285  0.5292 -0.8876
17687TIP3    H274477   3.034   0.305   5.751  3.3067 -0.2454 -1.5024
17688TIP3   OH274478   3.690   3.866   2.973 -0.3242 -0.1611  0.5438
17688TIP3    H174479   3.730   3.949   2.998 -0.5583 -0.3728  1.6328
17688TIP3    H274480   3.693   3.866   2.877 -0.5776  1.2230  0.5270
17689TIP3   OH274481   5.055   5.972   1.225  0.7383  0.0900 -0.2358
17689TIP3    H174482   4.977   5.935   1.267  2.3753 -0.8793  2.0875
17689TIP3    H274483   5.060   6.062   1.258 -0.3912  0.7444 -1.8233
17690TIP3   OH274484   3.709   0.367  13.660 -0.3955  0.2409  0.0573
17690TIP3    H174485   3.702   0.308  13.735 -2.5269  0.8463  0.3641
17690TIP3    H274486   3.778   0.328  13.605 -2.7769 -3.4386 -0.5325
17691TIP3   OH274487   1.989   2.006   0.434  0.3924  0.1780  0.2147
17691TIP3    H174488   1.910   2.011   0.487 -0.0412 -0.0564 -0.4130
17691TIP3    H274489   2.042   1.938   0.478  0.2363  0.3079  0.6119
17692TIP3   OH274490   0.925   5.370   2.477 -0.2237 -0.4355 -0.3622
17692TIP3    H174491   0.908   5.387   2.570  1.1442 -2.8755  0.3743
17692TIP3    H274492   0.986   5.439   2.451 -0.0076 -0.1915  0.7619
17693TIP3   OH274493   6.632   5.249  13.206  0.1307 -0.1681 -0.2500
17693TIP3    H174494   6.539   5.226  13.194  0.0166 -2.0257  3.4764
17693TIP3    H274495   6.633   5.301  13.287  2.3126  0.1724 -0.4786
17694TIP3   OH274496   5.278   3.523   3.738  0.3055 -0.2855  0.6241
17694TIP3    H174497   5.222   3.446   3.748  1.1717 -1.1856 -1.2121
17694TIP3    H274498   5.321   3.534   3.822  0.6977 -2.2365  0.6945
17695TIP3   OH274499   4.480   1.330  16.815  0.1735  0.0380  0.2812
17695TIP3    H174500   4.484   1.297  16.905 -1.7581 -0.2273  0.2951
17695TIP3    H274501   4.425   1.268  16.769 -0.0536  0.9671 -0.7348
17696TIP3   OH274502   0.128   3.857   1.828  0.4538  0.6077  0.2757
17696TIP3    H174503   0.149   3.858   1.921  1.7987  0.7776 -0.0271
17696TIP3    H274504   0.039   3.820   1.824  1.1233 -1.1854  1.4510
17697TIP3   OH274505   5.975   2.995  10.964  0.3115  0.2030  0.2011
17697TIP3    H174506   6.031   2.917  10.957 -1.2669 -0.8255 -1.5168
17697TIP3    H274507   5.896   2.963  11.007  1.1033  1.7149  2.8897
17698TIP3   OH274508   5.227   0.718   4.071  0.5002 -0.1422  0.0756
17698TIP3    H174509   5.305   0.677   4.035  0.5412 -0.5027  0.5592
17698TIP3    H274510   5.223   0.687   4.162 -0.2645 -0.2220  0.0237
17699TIP3   OH274511   2.171   4.466   0.247  0.1074 -0.1594  0.5965
17699TIP3    H174512   2.259   4.459   0.283  0.9939 -1.0827 -1.6054
17699TIP3    H274513   2.146   4.375   0.229 -0.6833  0.1984 -0.1469
17700TIP3   OH274514   4.975   1.868  14.547 -0.2981  0.4708  0.1760
17700TIP3    H174515   5.012   1.956  14.543  1.1793 -0.1358  0.1138
17700TIP3    H274516   4.904   1.874  14.611 -0.2665  1.7219  0.0970
17701TIP3   OH274517   1.055   6.685   1.379 -0.4621 -0.7627  0.2230
17701TIP3    H174518   1.056   6.595   1.347  0.2249  0.6386 -3.9199
17701TIP3    H274519   1.146   6.713   1.374 -0.8760  0.5951  0.2020
17702TIP3   OH274520   0.796   4.703   1.539 -0.4345  0.0099  0.2937
17702TIP3    H174521   0.770   4.792   1.516  1.9114  0.4127 -0.9029
17702TIP3    H274522   0.806   4.658   1.455  1.6464 -0.4136  0.7370
17703TIP3   OH274523   1.156   4.201  12.010 -0.4474  0.1851 -0.4148
17703TIP3    H174524   1.250   4.222  12.015 -0.3252 -0.3028 -0.6511
17703TIP3    H274525   1.134   4.172  12.098 -0.4325  0.5321 -0.2953
17704TIP3   OH274526   3.559   4.747  12.639  0.4470 -0.6516 -0.3321
17704TIP3    H174527   3.579   4.799  12.717 -0.3529  0.5076 -0.8706
17704TIP3    H274528   3.528   4.812  12.575 -1.7955 -1.9339 -0.5996
17705TIP3   OH274529   5.934   0.067   1.997  0.2170  0.2568 -0.1682
17705TIP3    H174530   5.846   0.101   2.007  0.6142  1.0764  0.6596
17705TIP3    H274531   5.988   0.125   2.051  1.5682  1.0203 -2.2682
17706TIP3   OH274532   2.974   2.076   0.278 -0.7744 -0.1233 -0.1595
17706TIP3    H174533   2.984   1.983   0.261 -0.5775 -0.0784 -0.2898
17706TIP3    H274534   3.039   2.118   0.222 -1.4406  0.1439 -0.7506
17707TIP3   OH274535   6.298   4.837  13.424 -0.3057  0.4972  0.1983
17707TIP3    H174536   6.235   4.797  13.483 -2.1066  1.5280 -0.9877
17707TIP3    H274537   6.245   4.872  13.353  1.8230 -0.8521 -2.1341
17708TIP3   OH274538   6.036   5.887   1.253 -0.0029  0.5285 -0.1698
17708TIP3    H174539   6.018   5.804   1.209 -1.9002 -0.3075  2.0886
17708TIP3    H274540   6.057   5.863   1.343 -0.2391  2.4611  0.4239
17709TIP3   OH274541   0.874   1.528  11.295 -0.3660 -0.2366 -0.2968
17709TIP3    H174542   0.892   1.490  11.209 -0.2063  0.2637 -0.4833
17709TIP3    H274543   0.778   1.527  11.302 -0.4009  0.2011 -0.6988
17710TIP3   OH274544   5.899   4.689  13.261  0.8732  0.1877 -0.4916
17710TIP3    H174545   5.885   4.614  13.203 -0.9988  0.1758 -0.0352
17710TIP3    H274546   5.832   4.680  13.329 -0.0585  2.8457 -1.0245
17711TIP3   OH274547   4.013   3.770   4.330  0.0131  0.4423  0.8757
17711TIP3    H174548   4.086   3.727   4.375 -0.3258 -0.2236  0.7887
17711TIP3    H274549   4.012   3.732   4.243  1.7035  2.9145 -0.3006
17712TIP3   OH274550   0.052   6.707   1.745 -0.1034  0.3236 -0.1799
17712TIP3    H174551  -0.034   6.702   1.789 -0.0439 -0.9482 -0.1860
17712TIP3    H274552   0.043   6.779   1.684 -0.8059  0.9357  0.6222
17713TIP3   OH274553   0.059   3.562  17.179  0.0775 -0.2049  0.5881
17713TIP3    H174554   0.109   3.620  17.238  0.5975  0.2376 -0.2710
17713TIP3    H274555  -0.032   3.575  17.204  0.1659  1.1968  0.2414
17714TIP3   OH274556   5.799   5.273   1.615 -0.1576  0.2858 -0.4010
17714TIP3    H174557   5.740   5.337   1.657  0.8556  0.8625  0.1636
17714TIP3    H274558   5.797   5.197   1.673 -1.2111 -0.1292 -0.9692
17715TIP3   OH274559   2.255   6.418  13.931 -0.1843 -0.0085 -0.1768
17715TIP3    H174560   2.324   6.426  13.865 -0.2169  0.1423 -0.1924
17715TIP3    H274561   2.210   6.503  13.928 -1.0609 -0.4965 -0.9391
17716TIP3   OH274562   5.036   2.986  13.929 -0.5112 -1.1522  0.6966
17716TIP3    H174563   5.129   3.000  13.948  0.5822 -5.1676 -1.1133
17716TIP3    H274564   5.013   3.054  13.866  1.4764 -0.7172  0.4152
17717TIP3   OH274565   0.719   0.495  15.283 -0.2169  0.4017  0.0269
17717TIP3    H174566   0.678   0.433  15.343  0.8925 -0.3832  0.0054
17717TIP3    H274567   0.657   0.504  15.211  0.2352 -1.8651 -0.6895
17718TIP3   OH274568   1.600   2.345   4.505 -0.4159 -0.0475 -0.1125
17718TIP3    H174569   1.516   2.370   4.543  0.4067  1.9164  0.4792
17718TIP3    H274570   1.644   2.297   4.574 -0.8494 -0.6618 -0.2590
17719TIP3   OH274571   2.974   0.628   0.729 -0.0131  0.0133  0.5702
17719TIP3    H174572   3.002   0.705   0.780  1.3592 -0.0056 -0.1387
17719TIP3    H274573   3.021   0.555   0.770 -0.5637 -0.3111  0.6217
17720TIP3   OH274574   5.003   1.378  14.261  0.1851  0.2677 -0.1355
17720TIP3    H174575   5.079   1.396  14.317 -0.3961  1.7412  0.1942
17720TIP3    H274576   4.928   1.381  14.321 -0.2276 -0.2065 -0.6325
17721TIP3   OH274577   3.067   6.764   1.972  0.2601 -0.3634  0.4731
17721TIP3    H174578   2.971   6.766   1.965  0.1300  2.0176  2.0971
17721TIP3    H274579   3.086   6.683   2.019 -0.9628 -0.8625  0.1210
17722TIP3   OH274580   1.258   5.950   1.916 -0.0945  0.5397 -0.0061
17722TIP3    H174581   1.200   6.020   1.945 -0.6568 -0.2827  0.8868
17722TIP3    H274582   1.326   5.946   1.984 -0.1376  0.1328  0.0150
17723TIP3   OH274583   3.076   5.265   3.476  0.7434 -0.0775  0.6216
17723TIP3    H174584   3.168   5.272   3.449 -0.0274  1.9964 -1.7135
17723TIP3    H274585   3.042   5.355   3.470 -1.7856 -1.0178  0.0262
17724TIP3   OH274586   4.459   1.122   4.151 -0.0821  0.2089 -0.2834
17724TIP3    H174587   4.442   1.062   4.078  0.5407  0.6801 -0.8169
17724TIP3    H274588   4.429   1.074   4.228  0.5190 -0.8379 -0.6949
17725TIP3   OH274589   5.495   4.286   5.152 -0.2061  0.3767  0.3997
17725TIP3    H174590   5.520   4.369   5.192 -0.9792  0.5001  0.6376
17725TIP3    H274591   5.561   4.224   5.183 -1.0315  0.3775  2.2384
17726TIP3   OH274592   2.472   2.524   1.767  0.4583 -0.1898 -0.2111
17726TIP3    H174593   2.456   2.599   1.710  1.9860  0.0675 -0.3286
17726TIP3    H274594   2.457   2.448   1.711  1.8703  0.0586 -0.9558
17727TIP3   OH274595   6.315   3.207  13.422  0.3275 -0.3527 -0.1387
17727TIP3    H174596   6.365   3.198  13.503 -0.6592  0.3279  0.5585
17727TIP3    H274597   6.334   3.296  13.392 -2.3784  0.8565  1.4799
17728TIP3   OH274598   0.977   6.695   5.662  0.2578 -0.1322  0.0762
17728TIP3    H174599   0.958   6.710   5.755  2.0576  1.6419  0.2005
17728TIP3    H274600   0.906   6.739   5.615 -1.0330 -1.6181  0.5988
17729TIP3   OH274601   0.504   4.746   3.007  0.0219 -0.0105 -0.3000
17729TIP3    H174602   0.512   4.823   3.063 -0.8643 -0.3017  0.2284
17729TIP3    H274603   0.583   4.749   2.952  1.0200  0.1576  1.0915
17730TIP3   OH274604   4.728   2.718   5.473  0.2986 -0.3152 -0.2440
17730TIP3    H174605   4.685   2.798   5.442 -0.5318 -1.3560 -1.8449
17730TIP3    H274606   4.680   2.647   5.431  1.4826 -1.6404  0.5976
17731TIP3   OH274607   1.375   5.777  12.922 -0.4920  0.2461 -0.8512
17731TIP3    H174608   1.437   5.832  12.873  0.2373 -1.1482 -1.4997
17731TIP3    H274609   1.421   5.695  12.935 -1.1211  0.2079  1.2130
17732TIP3   OH274610   2.828   0.550   4.479 -0.2077 -0.3670  0.1682
17732TIP3    H174611   2.880   0.614   4.431 -0.8751 -1.3412 -1.8977
17732TIP3    H274612   2.884   0.472   4.483 -0.1737 -0.3095  0.9651
17733TIP3   OH274613   4.296   0.434  12.463  0.4266  0.0356 -0.0522
17733TIP3    H174614   4.322   0.503  12.402 -3.0499  1.3109 -0.2539
17733TIP3    H274615   4.365   0.368  12.458  1.0634  0.9276 -4.0636
17734TIP3   OH274616   1.345   5.466   5.973 -0.4052  0.1294  0.0681
17734TIP3    H174617   1.309   5.384   6.007  0.2240  0.6960  2.2374
17734TIP3    H274618   1.279   5.498   5.912 -1.1397 -1.4684 -0.0068
17735TIP3   OH274619   3.567   6.270   3.217 -0.7542  0.3228 -0.5434
17735TIP3    H174620   3.634   6.227   3.269  0.7387  1.3027 -1.6189
17735TIP3    H274621   3.514   6.199   3.181 -1.1570 -0.3926  1.4268
17736TIP3   OH274622   4.460   5.524   2.094  0.2574 -0.0435 -0.2037
17736TIP3    H174623   4.408   5.443   2.092 -1.7225  1.2164 -0.9520
17736TIP3    H274624   4.440   5.568   2.012  1.7924  0.9506 -0.0772
17737TIP3   OH274625   4.671   1.148   0.652  0.3138  0.2294 -0.3262
17737TIP3    H174626   4.645   1.125   0.563 -1.6263  0.6991  0.1152
17737TIP3    H274627   4.612   1.099   0.709  1.0251  0.5375  0.7054
17738TIP3   OH274628   3.388   3.446  14.719  0.8933 -0.2940 -0.4039
17738TIP3    H174629   3.468   3.471  14.672  1.7328 -0.4602  0.9152
17738TIP3    H274630   3.401   3.355  14.743  0.3350 -0.2997 -0.1088
17739TIP3   OH274631   5.427   2.919   5.590 -0.0771  0.1848  0.0430
17739TIP3    H174632   5.483   2.988   5.626 -0.6770  2.1118 -2.5573
17739TIP3    H274633   5.348   2.921   5.643  0.2434  0.9657  0.4961
17740TIP3   OH274634   2.620   3.575   5.656  0.1014  0.2726  0.0480
17740TIP3    H174635   2.540   3.617   5.685  1.5189  2.3447  1.0934
17740TIP3    H274636   2.623   3.492   5.704 -1.2657  0.3024  0.1852
17741TIP3   OH274637   1.554   0.283   1.507 -0.0668 -0.1013  0.4062
17741TIP3    H174638   1.529   0.265   1.597  2.4679  1.1032  1.3865
17741TIP3    H274639   1.597   0.204   1.477  2.0785  0.6514  1.3950
17742TIP3   OH274640   1.966   5.401  17.056  0.1451 -0.3021 -0.3898
17742TIP3    H174641   1.908   5.389  16.981 -0.0005 -0.0094 -0.3254
17742TIP3    H274642   2.054   5.402  17.018  0.1612 -1.5268 -0.3959
17743TIP3   OH274643   0.042   0.391   1.410 -0.6229  0.3501 -0.7927
17743TIP3    H174644  -0.043   0.376   1.369 -0.3471 -2.0153 -0.6134
17743TIP3    H274645   0.101   0.411   1.338 -1.0952  0.8557 -1.0389
17744TIP3   OH274646   1.133   4.394   5.718  0.6669 -0.1595 -0.3185
17744TIP3    H174647   1.210   4.415   5.770 -0.7281 -1.7517  2.5143
17744TIP3    H274648   1.105   4.308   5.750 -1.3352 -0.3492 -2.4186
17745TIP3   OH274649   6.499   0.839   3.998 -0.1346 -0.3660  0.2844
17745TIP3    H174650   6.573   0.820   3.940  0.8416 -1.8246  1.9859
17745TIP3    H274651   6.430   0.868   3.938  0.2308 -3.5929 -1.8309
17746TIP3   OH274652   2.980   1.379  12.080 -0.2209 -0.0139  0.1155
17746TIP3    H174653   2.887   1.397  12.091 -0.8392 -2.7371 -0.4921
17746TIP3    H274654   2.997   1.396  11.987 -0.4491 -1.0316 -0.1095
17747TIP3   OH274655   3.170   1.358   6.220 -0.4401 -0.3126 -0.1709
17747TIP3    H174656   3.238   1.320   6.275 -0.4621 -0.7238 -0.4237
17747TIP3    H274657   3.200   1.342   6.130  0.5117  1.9819 -0.3019
17748TIP3   OH274658   5.157   6.230   0.280  0.2029  0.3742  0.3795
17748TIP3    H174659   5.216   6.300   0.307 -0.0945  1.0110 -0.5504
17748TIP3    H274660   5.214   6.162   0.245  0.4436  0.5999  0.3297
17749TIP3   OH274661   1.391   6.258  10.535  0.0226 -0.3040  0.4583
17749TIP3    H174662   1.401   6.169  10.503 -2.5252 -0.3350 -0.3415
17749TIP3    H274663   1.367   6.248  10.628 -1.0871 -0.4843  0.1543
17750TIP3   OH274664   1.266   0.303   0.957  0.4830 -0.3891  1.0692
17750TIP3    H174665   1.239   0.389   0.924 -0.3961 -0.9815  0.2090
17750TIP3    H274666   1.360   0.312   0.973 -0.2164  1.8056  4.3794
17751TIP3   OH274667   0.608   4.798  13.047 -0.3808 -0.0037 -0.6699
17751TIP3    H174668   0.638   4.743  13.120 -0.3647  0.5942 -0.2276
17751TIP3    H274669   0.686   4.844  13.017 -0.5139  0.2446 -0.6380
17752TIP3   OH274670   0.697   5.629  15.567 -0.1781  0.4735 -0.6444
17752TIP3    H174671   0.651   5.660  15.644  0.5016  0.7262 -0.3298
17752TIP3    H274672   0.671   5.690  15.497  1.2153  1.8374 -0.0110
17753TIP3   OH274673   2.153   3.838   5.339 -0.2518 -0.3149  0.1733
17753TIP3    H174674   2.201   3.874   5.264  1.5770 -0.1525  1.3925
17753TIP3    H274675   2.168   3.743   5.334  1.6456 -0.0982  1.5260
17754TIP3   OH274676   0.900   2.083  11.668 -0.2903 -0.0380 -0.3154
17754TIP3    H174677   0.809   2.075  11.697  0.1688 -4.3529  0.3506
17754TIP3    H274678   0.946   2.121  11.742 -1.2133  0.1942  0.1399
17755TIP3   OH274679   6.134   2.208   1.474 -0.2807 -0.1997 -0.3610
17755TIP3    H174680   6.111   2.115   1.472  0.6674 -0.4373 -0.7064
17755TIP3    H274681   6.146   2.227   1.567 -1.6238 -0.1276 -0.1998
17756TIP3   OH274682   2.558   3.544   0.479 -0.0351 -0.5167 -0.3677
17756TIP3    H174683   2.624   3.611   0.499 -1.2313  0.2256  1.1761
17756TIP3    H274684   2.497   3.588   0.420  0.3850 -0.9331 -1.1090
17757TIP3   OH274685   5.414   6.021   2.367  0.0447  0.5778  0.7086
17757TIP3    H174686   5.358   6.059   2.299 -1.0034  0.0245  1.2607
17757TIP3    H274687   5.405   6.080   2.441  1.1007  1.1200  0.4139
17758TIP3   OH274688   0.934   5.036  16.022 -0.3476 -0.4243  0.0525
17758TIP3    H174689   0.997   4.966  16.037  0.0800  0.3453  1.9273
17758TIP3    H274690   0.976   5.090  15.954  1.4601  0.5710  1.8955
17759TIP3   OH274691   5.620   5.451   1.710  0.2610 -0.0460 -0.3282
17759TIP3    H174692   5.542   5.507   1.711  0.7104  0.5758 -0.3580
17759TIP3    H274693   5.613   5.399   1.790  1.7142  2.6001  1.5623
17760TIP3   OH274694   3.581   1.310   2.245 -0.1114  0.3160  0.1530
17760TIP3    H174695   3.610   1.244   2.181  1.1610 -0.0550  1.0773
17760TIP3    H274696   3.551   1.383   2.193 -1.3190 -0.9167 -0.9001
17761TIP3   OH274697   6.583   5.598   4.632 -0.1052  0.5903 -1.0489
17761TIP3    H174698   6.564   5.664   4.699  1.0392  0.4828 -0.6153
17761TIP3    H274699   6.514   5.610   4.567 -0.6937  1.3065 -0.3015
17762TIP3   OH274700   3.845   5.676  13.658  0.3958  0.1048 -0.0709
17762TIP3    H174701   3.774   5.648  13.715 -0.3003  1.9061 -0.0277
17762TIP3    H274702   3.823   5.766  13.634  0.9918 -0.4098 -2.6984
17763TIP3   OH274703   6.719   0.586  13.321 -0.0318 -0.2297 -0.6506
17763TIP3    H174704   6.762   0.627  13.246 -2.4239  1.1498 -1.3194
17763TIP3    H274705   6.636   0.633  13.330  0.4183  0.0247  3.2077
17764TIP3   OH274706   6.268   4.768   4.075  0.5378 -0.0870 -0.1266
17764TIP3    H174707   6.312   4.730   4.151 -0.8121 -0.9123  0.2510
17764TIP3    H274708   6.179   4.733   4.078  0.2812  0.3706 -1.7363
17765TIP3   OH274709   0.942   5.484   3.104 -0.1903  0.6216 -0.1395
17765TIP3    H174710   0.927   5.578   3.100  1.1227  0.9613  2.1384
17765TIP3    H274711   1.023   5.470   3.053 -0.0334  0.8229  0.0552
17766TIP3   OH274712   6.399   0.023  12.460  0.1866  0.6464 -0.1328
17766TIP3    H174713   6.329   0.032  12.394 -0.0125  1.0496  0.1288
17766TIP3    H274714   6.480   0.033  12.410  0.0731 -0.4533 -0.5305
17767TIP3   OH274715   4.932   0.032   4.389  0.2052 -0.0261 -0.1036
17767TIP3    H174716   4.917  -0.045   4.334  0.1063 -0.5021  0.5685
17767TIP3    H274717   4.945  -0.005   4.477 -2.2058  0.8473  0.6519
17768TIP3   OH274718   6.633   5.653   1.308 -0.3641  0.7412  0.1463
17768TIP3    H174719   6.570   5.584   1.288 -0.5807  1.1072 -0.4705
17768TIP3    H274720   6.718   5.609   1.311 -0.3543  0.6135 -1.3400
17769TIP3   OH274721   4.692   6.719   4.053 -0.0967 -0.2930 -0.4729
17769TIP3    H174722   4.645   6.644   4.017 -2.9523  0.6141  1.2209
17769TIP3    H274723   4.739   6.684   4.128  0.5631 -0.8536 -1.1371
17770TIP3   OH274724   2.490   5.060   2.011  0.5614 -0.0286  0.0705
17770TIP3    H174725   2.464   5.133   2.067 -0.5437 -0.2577 -0.1285
17770TIP3    H274726   2.543   5.101   1.943  1.3265  0.3517  0.8768
17771TIP3   OH274727   5.301   4.336   0.778 -0.1827  0.9563 -0.1624
17771TIP3    H174728   5.244   4.356   0.704  1.7430 -0.6423 -2.1460
17771TIP3    H274729   5.339   4.421   0.803 -2.2075  1.7842  0.1923
17772TIP3   OH274730   1.576   1.054  16.306  0.4630  0.0062  0.4979
17772TIP3    H174731   1.516   1.028  16.376 -0.9539 -1.4824 -1.2234
17772TIP3    H274732   1.658   1.073  16.351 -0.2595 -1.4193  2.5039
17773TIP3   OH274733   6.618   4.416   5.551  0.4248 -0.8842  0.1112
17773TIP3    H174734   6.573   4.458   5.624  1.2342 -0.5399  0.4212
17773TIP3    H274735   6.630   4.325   5.578  0.7528 -0.7484  0.4274
17774TIP3   OH274736   5.756   1.499  12.617  0.1172 -0.2428 -0.3962
17774TIP3    H174737   5.773   1.523  12.708 -1.8126 -2.2053  0.5495
17774TIP3    H274738   5.681   1.552  12.591 -0.5615 -1.0682 -0.1691
17775TIP3   OH274739   1.796   2.621   5.684  0.7332  0.5921  0.0715
17775TIP3    H174740   1.779   2.547   5.743  0.1996  0.8270  0.2124
17775TIP3    H274741   1.877   2.597   5.640 -1.1958 -1.7391 -2.4514
17776TIP3   OH274742   4.634   1.894   1.345  0.8869 -0.1194  0.2199
17776TIP3    H174743   4.698   1.825   1.330 -2.2667 -3.1428 -0.0264
17776TIP3    H274744   4.621   1.933   1.259  0.3939 -1.3677 -0.2848
17777TIP3   OH274745   1.087   5.462  14.015 -0.3045 -0.3251  0.1277
17777TIP3    H174746   1.090   5.422  13.928  0.4922 -0.6768  0.3137
17777TIP3    H274747   1.165   5.429  14.059 -0.1697  0.6622  0.6273
17778TIP3   OH274748   2.247   0.146   2.660 -0.9680  0.2616  0.1604
17778TIP3    H174749   2.286   0.158   2.574 -1.2898 -0.2551 -0.0600
17778TIP3    H274750   2.234   0.052   2.668  0.6081  0.1377  1.4589
17779TIP3   OH274751   4.584   5.507   5.365 -0.2540  0.1314 -0.2978
17779TIP3    H174752   4.640   5.457   5.306 -0.4342 -0.3492 -0.0618
17779TIP3    H274753   4.633   5.510   5.447 -0.1846  0.4531 -0.3510
17780TIP3   OH274754   4.368   0.183   3.506  0.3226 -0.3471 -0.3358
17780TIP3    H174755   4.289   0.132   3.484  0.2446 -0.8790  1.1439
17780TIP3    H274756   4.435   0.117   3.521 -0.0334 -0.0793  2.6190
17781TIP3   OH274757   6.620   4.254  12.020  0.1745  0.2250  0.2108
17781TIP3    H174758   6.557   4.240  11.950  2.3672 -0.2648 -1.7014
17781TIP3    H274759   6.633   4.349  12.022 -1.8762  0.5297  1.8081
17782TIP3   OH274760   6.752   0.126  14.401 -0.1128 -0.0438  0.1211
17782TIP3    H174761   6.810   0.202  14.410  0.9201 -0.5152 -2.1449
17782TIP3    H274762   6.745   0.091  14.489  0.4944  1.8869  0.9696
17783TIP3   OH274763   2.567   3.947  11.924  0.3134 -0.2137 -0.3927
17783TIP3    H174764   2.623   3.870  11.928  0.5825  0.0853  2.4769
17783TIP3    H274765   2.627   4.021  11.933 -0.1813  0.2511 -0.8586
17784TIP3   OH274766   5.989   4.255   2.651 -0.0264 -0.0596  0.1433
17784TIP3    H174767   5.974   4.347   2.630  2.1002 -0.1886 -2.2175
17784TIP3    H274768   5.902   4.216   2.653 -0.8085  1.5842 -0.8465
17785TIP3   OH274769   1.490   2.497   0.515 -0.0547 -0.5788 -0.0428
17785TIP3    H174770   1.489   2.543   0.599  1.2811  0.9888 -0.8511
17785TIP3    H274771   1.478   2.565   0.450 -0.4173 -1.6969 -1.1723
17786TIP3   OH274772   3.966   5.468  15.875  0.4980  0.2917 -0.0363
17786TIP3    H174773   4.044   5.516  15.850  0.6348 -0.0415 -0.2532
17786TIP3    H274774   3.998   5.398  15.933  0.4826 -0.4453 -0.9120
17787TIP3   OH274775   1.801   2.883   2.434 -0.1954  0.1830  0.2413
17787TIP3    H174776   1.835   2.967   2.403  0.4778 -0.2624 -0.2600
17787TIP3    H274777   1.710   2.881   2.404  0.6903 -0.6407 -2.6113
17788TIP3   OH274778   5.968   3.593  12.256 -0.0632 -0.1697 -0.3276
17788TIP3    H174779   6.001   3.581  12.344 -1.1869 -0.1873  0.1032
17788TIP3    H274780   5.973   3.506  12.216  2.7388  0.3034 -1.1236
17789TIP3   OH274781   5.905   0.501  12.748 -0.3218 -0.4668  0.4744
17789TIP3    H174782   5.822   0.456  12.736 -0.9474  0.6694  0.5289
17789TIP3    H274783   5.897   0.581  12.696  1.2388 -0.9744 -0.6194
17790TIP3   OH274784   1.831   6.542  11.453  0.0664  0.3011 -0.2974
17790TIP3    H174785   1.917   6.580  11.433  0.4014 -0.9633 -1.3447
17790TIP3    H274786   1.779   6.559  11.375 -0.1329 -0.3306 -0.3086
17791TIP3   OH274787   1.199   0.593  14.085  0.2323 -0.2964  0.2286
17791TIP3    H174788   1.129   0.570  14.146 -0.2009 -2.5517 -1.0685
17791TIP3    H274789   1.278   0.558  14.125  0.2369 -0.0669  0.4231
17792TIP3   OH274790   0.563   5.193   3.085 -0.0550 -0.7050  0.3893
17792TIP3    H174791   0.644   5.239   3.061  0.2343 -1.5335 -0.2275
17792TIP3    H274792   0.538   5.146   3.005 -0.9794 -0.7067  0.6737
17793TIP3   OH274793   3.508   4.621  13.592  0.2585  1.1963 -0.1122
17793TIP3    H174794   3.598   4.652  13.595  0.4269  1.2038 -3.5323
17793TIP3    H274795   3.515   4.525  13.591  0.2584  1.2045 -0.9622
17794TIP3   OH274796   1.056   5.871   1.752 -0.2629  0.2078  0.6860
17794TIP3    H174797   1.134   5.872   1.808  2.5333  3.5255 -2.9512
17794TIP3    H274798   1.070   5.797   1.694  1.5583  2.2396 -1.5811
17795TIP3   OH274799   2.548   5.159  16.835 -0.4219  0.1515 -0.1848
17795TIP3    H174800   2.547   5.132  16.744  0.6063 -1.4232  0.2452
17795TIP3    H274801   2.520   5.081  16.883 -0.6446  0.8675  0.8682
17796TIP3   OH274802   0.100   2.359   2.947 -0.0289 -0.3148 -0.4918
17796TIP3    H174803   0.136   2.427   2.890 -1.6316  0.2824 -0.8187
17796TIP3    H274804   0.164   2.288   2.943 -0.4126 -0.5707 -3.5737
17797TIP3   OH274805   4.609   1.229  15.884 -0.0015 -0.1137 -0.6534
17797TIP3    H174806   4.673   1.172  15.841 -1.1599 -1.9631  0.0453
17797TIP3    H274807   4.588   1.295  15.818 -0.4495 -1.8992 -2.3267
17798TIP3   OH274808   3.188   3.674  11.429 -0.1453 -0.3608 -0.4303
17798TIP3    H174809   3.182   3.583  11.400 -0.1814 -0.4745 -0.0582
17798TIP3    H274810   3.210   3.669  11.522  1.5764  0.0247 -0.7977
17799TIP3   OH274811   5.814   0.782   1.437 -0.0142  0.3211  0.4945
17799TIP3    H174812   5.835   0.868   1.473  1.1894 -0.4968  1.7816
17799TIP3    H274813   5.727   0.793   1.397 -0.2400  1.9061  1.3863
17800TIP3   OH274814   3.372   6.456  14.818 -0.3495 -0.3270 -0.7465
17800TIP3    H174815   3.361   6.534  14.872  0.9634 -1.6123  1.4489
17800TIP3    H274816   3.319   6.473  14.740 -0.3456  2.5985 -0.1639
17801TIP3   OH274817   3.255   2.222   6.238 -0.0836  0.0446  0.4055
17801TIP3    H174818   3.177   2.260   6.198  1.1698 -1.0986 -3.3891
17801TIP3    H274819   3.294   2.292   6.290 -1.7221  1.6868 -0.5658
17802TIP3   OH274820   3.725   0.469  16.644  0.3732  0.2301  0.7541
17802TIP3    H174821   3.730   0.424  16.728  1.7121 -1.0681  0.0103
17802TIP3    H274822   3.816   0.486  16.620  0.0409  0.0688 -0.6956
17803TIP3   OH274823   0.105   6.324  13.354 -0.0065 -0.2353 -0.0134
17803TIP3    H174824   0.112   6.378  13.433  1.4998 -0.0943 -0.2167
17803TIP3    H274825   0.139   6.381  13.284 -0.0837 -0.8190 -0.5288
17804TIP3   OH274826   1.934   3.859  14.280  0.3028  0.6071 -0.3976
17804TIP3    H174827   2.013   3.872  14.228 -0.5551  0.7131 -1.7199
17804TIP3    H274828   1.916   3.766  14.274  0.3329  0.5840 -0.1054
17805TIP3   OH274829   5.585   3.620   1.645 -0.4778  0.3722  0.3849
17805TIP3    H174830   5.496   3.620   1.679 -0.7846 -1.8208 -0.2994
17805TIP3    H274831   5.587   3.545   1.584  1.5351  1.0026 -0.3625
17806TIP3   OH274832   4.467   6.117  11.570 -0.2247 -0.1363 -0.0909
17806TIP3    H174833   4.534   6.050  11.578 -0.9624 -0.8432  0.2306
17806TIP3    H274834   4.479   6.174  11.646  1.7113  1.3211 -1.4156
17807TIP3   OH274835   5.390   1.974  16.383 -0.6168 -0.1197 -0.4247
17807TIP3    H174836   5.472   1.981  16.335 -0.5309  1.5078 -0.0851
17807TIP3    H274837   5.413   1.996  16.473 -1.1481 -1.1886 -0.0124
17808TIP3   OH274838   4.519   0.502   2.147 -0.2323 -0.8647 -0.0974
17808TIP3    H174839   4.610   0.511   2.117  0.4764  0.6831  2.3416
17808TIP3    H274840   4.483   0.591   2.141 -1.1394 -1.2077  0.2646
17809TIP3   OH274841   6.043   3.864  13.523  0.2871 -0.3466 -0.2272
17809TIP3    H174842   5.996   3.891  13.602  1.9062  0.6136  0.4233
17809TIP3    H274843   5.983   3.804  13.479  0.2098 -2.6217  2.7964
17810TIP3   OH274844   5.221   2.815  11.996 -0.6719  0.1035 -0.6702
17810TIP3    H174845   5.309   2.843  11.972 -0.5996  1.6821  1.3389
17810TIP3    H274846   5.163   2.868  11.941 -0.4477  1.7383  0.6516
17811TIP3   OH274847   5.143   0.753  12.512  0.1841  0.2986 -0.0170
17811TIP3    H174848   5.144   0.660  12.492 -1.9514  0.4850 -1.1342
17811TIP3    H274849   5.115   0.795  12.431  2.5171  2.0614  0.0395
17812TIP3   OH274850   0.275   5.718   2.026  0.0164 -0.0013  0.1975
17812TIP3    H174851   0.309   5.665   2.098 -1.1173  0.7334  1.2947
17812TIP3    H274852   0.258   5.804   2.065  1.5787  1.1200 -1.4925
17813TIP3   OH274853   4.583   5.308   1.445 -0.0665  0.0220  0.1324
17813TIP3    H174854   4.613   5.395   1.470 -1.3882  0.8282 -0.9469
17813TIP3    H274855   4.528   5.324   1.367 -1.8176 -1.5544  1.0075
17814TIP3   OH274856   0.296   4.381  13.267 -0.6799  0.4826  0.2146
17814TIP3    H174857   0.254   4.462  13.240 -1.1356  0.5606  1.1613
17814TIP3    H274858   0.364   4.367  13.201 -2.1747  0.3418 -1.3214
17815TIP3   OH274859   6.255   4.482  13.712 -0.1159  0.1257 -0.1675
17815TIP3    H174860   6.281   4.410  13.655 -1.9428  0.5730 -1.5783
17815TIP3    H274861   6.236   4.554  13.653 -2.1786  0.5614  0.9772
17816TIP3   OH274862   2.534   1.922   4.873 -0.5296  0.2596 -0.7753
17816TIP3    H174863   2.597   1.918   4.945 -0.5251 -1.0351 -0.8300
17816TIP3    H274864   2.457   1.876   4.907 -1.5877  2.1178 -0.5875
17817TIP3   OH274865   2.235   3.843  14.203  0.0440 -0.2321 -0.3499
17817TIP3    H174866   2.285   3.901  14.146  0.8211 -0.0941  0.4561
17817TIP3    H274867   2.276   3.853  14.289  0.3418 -2.1542 -0.2424
17818TIP3   OH274868   3.551   1.648  15.851  0.0584 -0.3324 -0.0820
17818TIP3    H174869   3.576   1.715  15.914  0.7637  0.1007 -0.8081
17818TIP3    H274870   3.507   1.696  15.781 -0.5476 -0.7823 -0.0097
17819TIP3   OH274871   5.735   5.684   4.829 -0.3381  0.0995  0.2014
17819TIP3    H174872   5.772   5.678   4.741  1.1069 -1.8568  0.9015
17819TIP3    H274873   5.641   5.697   4.815 -0.1635 -0.4789 -1.6342
17820TIP3   OH274874   6.637   2.776   5.781  0.1360 -0.1933  0.1720
17820TIP3    H174875   6.587   2.826   5.717  1.8391 -0.4659 -1.3973
17820TIP3    H274876   6.608   2.811   5.866 -3.1953 -0.8276 -0.6245
17821TIP3   OH274877   2.314   1.447  16.994 -0.1072 -0.1386 -0.2513
17821TIP3    H174878   2.284   1.517  17.051  1.9278 -0.4757  1.2920
17821TIP3    H274879   2.408   1.464  16.982  0.3432 -2.3874 -0.1511
17822TIP3   OH274880   1.827   1.785  16.930 -0.1975 -0.5157 -0.4285
17822TIP3    H174881   1.835   1.711  16.990  2.6958  0.4767  0.5124
17822TIP3    H274882   1.872   1.756  16.850  0.8194  0.1619 -0.1074
17823TIP3   OH274883   3.710   2.522  11.396  0.2826  0.2741 -0.4221
17823TIP3    H174884   3.749   2.507  11.310 -3.1178  0.4516 -2.1145
17823TIP3    H274885   3.742   2.608  11.422  0.7894  0.5418 -1.8611
17824TIP3   OH274886   3.131   1.321  16.591  0.4985 -0.0509  0.3949
17824TIP3    H174887   3.200   1.298  16.528  2.6080  0.6021  2.3897
17824TIP3    H274888   3.156   1.275  16.671 -1.6346 -0.1270  1.0455
17825TIP3   OH274889   5.634   5.259  14.716 -0.6607 -0.1210  0.6734
17825TIP3    H174890   5.610   5.171  14.745  0.2589 -0.4317  0.5119
17825TIP3    H274891   5.713   5.280  14.765  0.8979 -0.6399 -1.5453
17826TIP3   OH274892   6.610   0.068  15.406  0.0758  0.3138  0.2204
17826TIP3    H174893   6.689   0.096  15.360 -2.0463 -0.7316 -4.4181
17826TIP3    H274894   6.615  -0.028  15.405 -0.8843  0.2567  0.4839
17827TIP3   OH274895   3.947   5.143   3.523 -0.6448  0.7098  0.5552
17827TIP3    H174896   3.937   5.067   3.581  1.2952  1.5590  2.0525
17827TIP3    H274897   3.883   5.206   3.555 -1.0885  0.3463  0.3867
17828TIP3   OH274898   4.180   0.417  17.131 -0.3986  0.1428 -0.4213
17828TIP3    H174899   4.121   0.451  17.064 -0.3040 -1.0149 -1.1065
17828TIP3    H274900   4.267   0.420  17.090  0.2683  3.1969  1.0912
17829TIP3   OH274901   3.953   1.020  12.511 -0.1081  0.3702  0.0945
17829TIP3    H174902   3.954   1.112  12.537 -0.0237 -0.1968  2.2293
17829TIP3    H274903   3.868   0.987  12.543 -0.7785  0.0288 -1.9316
17830TIP3   OH274904   4.424   5.613   4.609  0.4134  0.3710  0.1516
17830TIP3    H174905   4.329   5.623   4.599  0.3334 -0.0658  0.4525
17830TIP3    H274906   4.436   5.520   4.628  1.0136  0.1727 -1.1453
17831TIP3   OH274907   0.957   4.374   3.049 -0.7761 -0.3871 -0.7676
17831TIP3    H174908   0.945   4.411   3.137 -1.7933  0.5982 -1.3160
17831TIP3    H274909   1.050   4.351   3.046 -1.1097 -2.1807  1.2351
17832TIP3   OH274910   1.912   6.128  14.014  0.0848  0.3579 -0.0532
17832TIP3    H174911   1.936   6.077  14.091  0.0941  1.2573  0.5494
17832TIP3    H274912   1.832   6.086  13.982 -0.1557  0.2293  0.6995
17833TIP3   OH274913   1.210   0.552   1.275 -0.0305 -0.0193 -0.1048
17833TIP3    H174914   1.260   0.471   1.284  0.1648  0.2126  0.9103
17833TIP3    H274915   1.270   0.613   1.233 -0.8984 -1.0551 -3.0257
17834TIP3   OH274916   1.200   3.190  16.693  0.1178  0.1415  0.1951
17834TIP3    H174917   1.181   3.135  16.617 -0.2725 -0.3686  0.6610
17834TIP3    H274918   1.278   3.239  16.667 -1.0895  1.3683 -1.2593
17835TIP3   OH274919   0.611   5.075  12.324 -0.4187  0.2836 -0.2355
17835TIP3    H174920   0.546   5.007  12.339  0.1854 -0.3824 -0.6184
17835TIP3    H274921   0.695   5.029  12.325  0.1520  1.3243  1.5027
17836TIP3   OH274922   1.817   6.156  11.129 -0.1426  0.3235  0.4062
17836TIP3    H174923   1.871   6.088  11.089 -1.5058  0.2128 -1.3286
17836TIP3    H274924   1.739   6.110  11.160 -0.9660  1.0371 -0.5604
17837TIP3   OH274925   3.826   4.618  11.016  0.2505 -0.4260 -0.1210
17837TIP3    H174926   3.898   4.639  10.956  0.1721 -1.2698 -0.5237
17837TIP3    H274927   3.768   4.561  10.965 -1.2538  1.0932 -0.1373
17838TIP3   OH274928   0.041   0.648   2.180  0.7442  0.0852  0.1764
17838TIP3    H174929   0.060   0.557   2.201  0.3650 -0.1478 -0.4916
17838TIP3    H274930  -0.026   0.674   2.243 -0.7478 -0.7585 -1.0680
17839TIP3   OH274931   4.178   1.910  13.113  0.2343  0.0979 -0.5081
17839TIP3    H174932   4.089   1.939  13.136  0.3464  0.1411 -0.1262
17839TIP3    H274933   4.173   1.888  13.020 -0.4784 -1.0321 -0.2197
17840TIP3   OH274934   4.429   5.574  15.227  0.1317 -0.4099  0.6439
17840TIP3    H174935   4.350   5.520  15.232 -0.3110  0.2912  1.3044
17840TIP3    H274936   4.460   5.580  15.317  0.4757  0.0101  0.5037
17841TIP3   OH274937   3.736   5.007  15.749  0.6419  0.4190 -0.8357
17841TIP3    H174938   3.724   4.918  15.717 -2.1964  0.6854 -0.5883
17841TIP3    H274939   3.752   4.997  15.843 -0.5129  0.2198 -0.6605
17842TIP3   OH274940   3.550   2.674  16.807 -0.3780  0.2668  0.5526
17842TIP3    H174941   3.604   2.733  16.859 -0.0248 -1.1813  1.8829
17842TIP3    H274942   3.490   2.634  16.870  1.5355 -3.1898  0.3404
17843TIP3   OH274943   5.573   5.847   3.235 -0.2652 -0.0605  0.0686
17843TIP3    H174944   5.522   5.927   3.220  0.5860  0.0260 -2.7820
17843TIP3    H274945   5.636   5.870   3.302  0.5033  1.9627 -1.3018
17844TIP3   OH274946   5.421   5.438  15.107  0.0735  0.1427  0.0573
17844TIP3    H174947   5.341   5.484  15.131  0.0952  0.6261 -0.7732
17844TIP3    H274948   5.396   5.345  15.105  0.0069  0.1140  1.6454
17845TIP3   OH274949   4.940   6.214  13.788 -0.5802 -0.1250 -0.0803
17845TIP3    H174950   4.947   6.179  13.877 -4.6676 -0.5508  0.1448
17845TIP3    H274951   4.994   6.155  13.735 -0.4305 -1.5758  1.6492
17846TIP3   OH274952   0.429   0.053   4.262 -0.0059  0.0444 -0.7592
17846TIP3    H174953   0.518   0.088   4.254  0.3122 -0.2239  1.2898
17846TIP3    H274954   0.416   0.043   4.356 -1.6618 -1.3167 -1.1123
17847TIP3   OH274955   4.175   0.793  11.525 -0.5211 -0.5602 -0.7072
17847TIP3    H174956   4.102   0.820  11.469 -0.6712  0.4947 -0.0275
17847TIP3    H274957   4.237   0.752  11.466 -0.0021  1.8733 -1.8963
17848TIP3   OH274958   0.371   5.812   2.492  0.1998  0.1052  0.0798
17848TIP3    H174959   0.436   5.866   2.538  2.8147 -0.3866 -2.8743
17848TIP3    H274960   0.339   5.867   2.421  0.4618 -1.0673 -0.9747
17849TIP3   OH274961   0.005   0.869  16.622 -0.7297  0.1084  0.1280
17849TIP3    H174962  -0.048   0.789  16.613 -0.5973 -0.1797  1.7413
17849TIP3    H274963   0.060   0.852  16.699  1.3572  0.6085 -1.2141
17850TIP3   OH274964   4.178   4.821  14.648  0.3180  0.4935 -0.0510
17850TIP3    H174965   4.255   4.838  14.594  0.9271  0.5220  0.8182
17850TIP3    H274966   4.184   4.884  14.719 -0.5278  0.5092  0.0155
17851TIP3   OH274967   4.309   4.182   3.064 -0.4165 -0.1555  0.9147
17851TIP3    H174968   4.343   4.174   3.153 -1.7022  0.5582  1.4849
17851TIP3    H274969   4.336   4.100   3.021  1.1243 -0.0489  1.6279
17852TIP3   OH274970   5.538   3.168  14.412 -0.2646  0.0361 -0.2549
17852TIP3    H174971   5.575   3.190  14.497  0.7279 -0.2182 -0.6117
17852TIP3    H274972   5.611   3.178  14.350 -0.6178 -1.0734 -0.8832
17853TIP3   OH274973   0.796   1.021   1.497 -0.3783 -0.0086 -0.2354
17853TIP3    H174974   0.829   1.109   1.515  0.5520 -0.2784 -0.6076
17853TIP3    H274975   0.787   1.018   1.402 -1.2388 -0.0262 -0.1582
17854TIP3   OH274976   4.109   0.099   3.257 -0.1314 -0.4324 -0.0937
17854TIP3    H174977   4.029   0.106   3.309 -0.0249 -1.5881  0.2513
17854TIP3    H274978   4.142   0.011   3.277  0.7917 -0.2592 -0.8489
17855TIP3   OH274979   1.453   1.160  15.837 -0.4272 -0.3864 -0.4012
17855TIP3    H174980   1.476   1.192  15.750 -3.6679 -0.6882 -1.4438
17855TIP3    H274981   1.506   1.082  15.850  1.5233  0.7714 -1.2674
17856TIP3   OH274982   4.493   0.216   3.755  0.7420 -0.1578 -0.1472
17856TIP3    H174983   4.412   0.262   3.736  0.4554  0.4833  2.3837
17856TIP3    H274984   4.543   0.218   3.673 -0.3457  2.4162 -0.7766
17857TIP3   OH274985   3.628   6.129  15.298 -0.0041 -0.0999 -0.0147
17857TIP3    H174986   3.552   6.174  15.261 -0.1373  0.1616  0.5707
17857TIP3    H274987   3.596   6.041  15.320 -0.0303 -0.1241 -0.1507
17858TIP3   OH274988   3.016   2.012   0.692  0.2581  0.0102  0.3033
17858TIP3    H174989   3.073   1.976   0.624 -0.8479 -0.3675 -0.4357
17858TIP3    H274990   2.978   1.936   0.735 -0.5711  0.2674  0.0372
17859TIP3   OH274991   5.012   1.130   4.325 -0.1560  0.7623 -0.6104
17859TIP3    H174992   5.019   1.182   4.246 -0.0293  0.2257 -0.9546
17859TIP3    H274993   5.048   1.186   4.394  0.5068  0.9119 -1.0720
17860TIP3   OH274994   4.192   4.192  13.960 -0.3567 -0.1379  0.6420
17860TIP3    H174995   4.273   4.163  13.917  0.1992 -0.7226  2.0287
17860TIP3    H274996   4.149   4.247  13.896  0.4550 -0.9746 -0.6563
17861TIP3   OH274997   5.181   0.397   4.927  0.2347 -0.2635  0.0034
17861TIP3    H174998   5.155   0.489   4.919 -2.0038 -0.8077  0.5072
17861TIP3    H274999   5.172   0.378   5.021 -0.6521 -1.3339 -0.2826
17862TIP3   OH275000   5.165   5.281   2.843  0.1979 -0.1310  0.3365
17862TIP3    H175001   5.172   5.204   2.900  1.1655 -0.8802 -0.7779
17862TIP3    H275002   5.078   5.273   2.804  1.2196 -2.0340 -1.6734
17863TIP3   OH275003   4.048   6.785   1.975  0.4716  0.3176  0.3985
17863TIP3    H175004   4.000   6.705   1.956  0.5179  0.3637  0.0749
17863TIP3    H275005   4.048   6.792   2.070  0.2136  0.0887  0.4141
17864TIP3   OH275006   1.396   5.715  11.793 -0.2900  0.0067  0.0376
17864TIP3    H175007   1.473   5.765  11.764  0.4065 -1.2898 -0.4025
17864TIP3    H275008   1.366   5.670  11.714 -0.8175 -0.3929  0.4657
17865TIP3   OH275009   0.841   6.598  13.503 -0.0182 -0.0210  0.0376
17865TIP3    H175010   0.839   6.634  13.415  0.6138  0.3114  0.1629
17865TIP3    H275011   0.784   6.521  13.498 -0.5005  0.3661 -0.4949
17866TIP3   OH275012   1.387   6.712   4.785 -0.0892  0.0997 -0.2239
17866TIP3    H175013   1.395   6.807   4.795 -0.2097 -0.0418  1.3046
17866TIP3    H275014   1.296   6.693   4.806  0.0713 -0.4220  0.0111
17867TIP3   OH275015   0.110   2.800   0.467 -1.0574  0.4007  0.4073
17867TIP3    H175016   0.141   2.799   0.557 -2.9303 -1.2496  1.0882
17867TIP3    H275017   0.043   2.869   0.466 -2.8786 -1.3130  0.9847
17868TIP3   OH275018   0.212   3.385   1.285 -0.3757 -0.2337 -0.5590
17868TIP3    H175019   0.208   3.476   1.315  1.2508 -0.5706  0.7581
17868TIP3    H275020   0.153   3.382   1.209 -1.1925  1.6811 -0.0396
17869TIP3   OH275021   3.389   3.915  13.278  0.1218 -0.7418  0.5465
17869TIP3    H175022   3.383   3.851  13.207  1.3754 -1.5939  1.2040
17869TIP3    H275023   3.467   3.966  13.257  0.6364 -1.1543  1.4380
17870TIP3   OH275024   5.167   0.839  14.344 -0.8389  0.7623  0.3929
17870TIP3    H175025   5.091   0.793  14.381  0.8299 -1.7495  0.8382
17870TIP3    H275026   5.198   0.895  14.416 -1.9285  1.3932  0.3845
17871TIP3   OH275027   0.560   1.228   3.235 -0.0625 -0.0338  0.0298
17871TIP3    H175028   0.645   1.241   3.194  0.1265 -0.7012  0.2088
17871TIP3    H275029   0.532   1.316   3.261  2.0885 -0.1251  2.9456
17872TIP3   OH275030   5.504   5.567  16.669 -0.1297 -0.1607 -0.0409
17872TIP3    H175031   5.570   5.532  16.728  0.1942  0.5160 -0.0061
17872TIP3    H275032   5.548   5.575  16.585 -0.6086 -1.1827 -0.4028
17873TIP3   OH275033   3.551   5.483  10.441  0.1390  0.7703 -0.2306
17873TIP3    H175034   3.504   5.524  10.369 -0.0681  0.3481 -0.3355
17873TIP3    H275035   3.600   5.555  10.481 -0.3725  1.1532 -0.2920
17874TIP3   OH275036   0.856   2.905   0.471 -0.0669 -0.1889  0.6655
17874TIP3    H175037   0.947   2.922   0.496  0.1295 -0.2893  0.0235
17874TIP3    H275038   0.849   2.810   0.466 -0.3697 -0.2019  1.3072
17875TIP3   OH275039   1.649   0.151  14.172  0.0168 -0.2545 -0.1551
17875TIP3    H175040   1.703   0.141  14.251 -0.4537  0.9749  0.3349
17875TIP3    H275041   1.619   0.242  14.175 -0.3616 -0.3249 -1.5298
17876TIP3   OH275042   1.640   3.101  14.706 -0.6697 -0.4816  0.1797
17876TIP3    H175043   1.644   3.008  14.724 -2.1023 -0.6456 -0.2546
17876TIP3    H275044   1.557   3.113  14.659  0.0277  0.8374 -0.7577
17877TIP3   OH275045   3.597   0.198  12.843  0.2984  0.2401 -0.2033
17877TIP3    H175046   3.667   0.169  12.784  2.1879  1.0670  1.5618
17877TIP3    H275047   3.517   0.158  12.807  1.7159 -1.0505 -2.0342
17878TIP3   OH275048   3.816   5.135   0.931 -0.4245 -0.3002 -0.5017
17878TIP3    H175049   3.771   5.207   0.886 -0.9864  0.1546  0.7798
17878TIP3    H275050   3.811   5.158   1.024  1.3700 -0.8637 -0.2549
17879TIP3   OH275051   1.626   4.161   3.879  0.2525 -0.4533  0.0299
17879TIP3    H175052   1.618   4.115   3.795  0.0229  0.2001 -0.3045
17879TIP3    H275053   1.552   4.222   3.880  1.6816  1.2887 -0.3609
17880TIP3   OH275054   3.198   6.568   2.577  0.0472  0.3561 -0.1734
17880TIP3    H175055   3.180   6.661   2.566  0.6710  0.5757  0.6706
17880TIP3    H275056   3.293   6.561   2.574  0.0308 -0.1686  0.4360
17881TIP3   OH275057   2.799   4.042  15.174 -0.2180 -0.9045 -0.0074
17881TIP3    H175058   2.892   4.062  15.166 -0.1660 -0.8924  0.6426
17881TIP3    H275059   2.771   4.089  15.253 -1.0960  0.2806 -0.9969
17882TIP3   OH275060   5.698   3.989   5.822 -0.2542 -0.4033  0.1249
17882TIP3    H175061   5.657   3.906   5.799 -1.2200  0.4922 -1.4634
17882TIP3    H275062   5.689   4.043   5.744  0.1817  1.2618  1.1973
17883TIP3   OH275063   3.656   6.664   0.918 -0.1475  0.1263  0.0835
17883TIP3    H175064   3.622   6.753   0.915 -1.1008 -0.2762 -1.4855
17883TIP3    H275065   3.667   6.639   0.827 -0.0445 -1.4226  0.5048
17884TIP3   OH275066   4.651   5.086   0.660 -0.9144 -0.0797  0.4555
17884TIP3    H175067   4.679   5.061   0.748 -1.4498  1.2502  1.0268
17884TIP3    H275068   4.556   5.078   0.661 -1.2142  2.8268  0.9884
17885TIP3   OH275069   5.633   5.932   3.841 -0.7982 -0.2319 -0.4204
17885TIP3    H175070   5.564   5.951   3.778 -1.2860 -0.5431  0.0198
17885TIP3    H275071   5.713   5.961   3.798 -1.3384  1.3093 -0.4276
17886TIP3   OH275072   2.181   5.355   4.284  0.4765  0.1894  0.0090
17886TIP3    H175073   2.142   5.429   4.331  2.8235  1.2508  0.3977
17886TIP3    H275074   2.253   5.327   4.340  1.3469 -0.5782 -1.4634
17887TIP3   OH275075   1.116   0.285  14.154  0.7985 -0.2775 -0.1958
17887TIP3    H175076   1.164   0.263  14.234  0.0945 -1.5813 -0.1188
17887TIP3    H275077   1.182   0.322  14.096  1.5115 -0.2341  0.6276
17888TIP3   OH275078   0.010   3.917   4.750  0.2291 -0.1059  0.2555
17888TIP3    H175079  -0.005   3.974   4.825  0.6624 -0.1982  0.4083
17888TIP3    H275080  -0.077   3.909   4.710 -0.2361 -1.0035  1.4160
17889TIP3   OH275081   0.855   1.702  11.546  0.4234  0.2211  0.2201
17889TIP3    H175082   0.848   1.653  11.464 -0.2414  1.2133 -0.3349
17889TIP3    H275083   0.936   1.753  11.537  0.1893  0.5659  0.0410
17890TIP3   OH275084   4.414   2.800  13.006  0.2299 -0.0784  0.1400
17890TIP3    H175085   4.490   2.760  12.962  0.6036 -0.4150  1.0708
17890TIP3    H275086   4.451   2.837  13.087 -0.3376  1.0797 -0.1330
17891TIP3   OH275087   5.714   5.733   1.430 -0.1092  0.3644  0.5614
17891TIP3    H175088   5.745   5.823   1.430 -1.1638  0.7347  2.1441
17891TIP3    H275089   5.618   5.740   1.426 -0.1445 -0.7176 -0.9747
17892TIP3   OH275090   2.869   1.262  16.070  0.5267  0.6370  0.0666
17892TIP3    H175091   2.919   1.322  16.125 -1.1090  0.7327  1.4912
17892TIP3    H275092   2.839   1.315  15.997  0.2827  1.2127  0.5813
17893TIP3   OH275093   2.586   5.136  11.644  0.0903 -0.2303  0.2950
17893TIP3    H175094   2.581   5.169  11.554 -1.1032 -0.6496  0.1886
17893TIP3    H275095   2.631   5.052  11.636 -1.9848 -1.3514 -0.2600
17894TIP3   OH275096   2.074   0.673   5.971  0.5199 -0.2843  0.9652
17894TIP3    H175097   2.163   0.642   5.956 -0.9284 -3.3143 -2.1944
17894TIP3    H275098   2.039   0.615   6.039  0.1835 -0.7307  0.4153
17895TIP3   OH275099   4.246   5.315  12.872 -0.1241 -0.0046 -0.3238
17895TIP3    H175100   4.302   5.265  12.931  1.6697  0.3362 -1.6957
17895TIP3    H275101   4.188   5.365  12.931  0.5947 -0.8258  1.1062
17896TIP3   OH275102   1.259   6.762   5.623  0.2070 -0.1864 -0.2602
17896TIP3    H175103   1.227   6.822   5.556  0.8619  1.7253  1.0654
17896TIP3    H275104   1.184   6.708   5.645 -0.0611 -0.7108 -2.3786
17897TIP3   OH275105   2.530   5.893  13.535 -0.5326 -0.0206  0.4101
17897TIP3    H175106   2.556   5.863  13.448 -0.1498  0.5781  0.3161
17897TIP3    H275107   2.439   5.864  13.544 -0.6209  0.0404 -0.2462
17898TIP3   OH275108   1.257   2.402   5.116  0.1292 -0.4531 -0.5831
17898TIP3    H175109   1.306   2.420   5.035  0.7669  0.8011  0.0661
17898TIP3    H275110   1.323   2.372   5.178 -0.0497  0.3824  0.0265
17899TIP3   OH275111   1.829   6.197   3.336 -0.3699 -0.3593  0.1437
17899TIP3    H175112   1.882   6.124   3.305  0.0358 -0.1778  0.4042
17899TIP3    H275113   1.791   6.235   3.257  0.1647 -0.2793 -0.0727
17900TIP3   OH275114   5.110   3.581  15.566  0.2495  0.0595 -0.5185
17900TIP3    H175115   5.158   3.567  15.647  0.2940 -1.4623 -0.7913
17900TIP3    H275116   5.021   3.551  15.585  0.3663 -0.7164 -1.1429
17901TIP3   OH275117   6.705   1.927   1.945 -0.1460 -0.2665  0.6028
17901TIP3    H175118   6.736   1.873   2.017 -0.3403 -1.7499 -0.3954
17901TIP3    H275119   6.701   1.867   1.870 -2.1165  0.7091 -0.1067
17902TIP3   OH275120   2.849   4.235  13.651 -0.1727  0.2003 -0.5850
17902TIP3    H175121   2.792   4.269  13.582 -1.1293 -0.8720 -0.3334
17902TIP3    H275122   2.933   4.280  13.637 -0.1909 -0.4060 -2.7575
17903TIP3   OH275123   1.325   1.686   0.275  0.4109  0.0456  0.3356
17903TIP3    H175124   1.268   1.611   0.292 -0.2311  0.7634  1.3911
17903TIP3    H275125   1.275   1.762   0.305  1.0615  0.9022 -0.7083
17904TIP3   OH275126   3.075   5.010  13.179  0.1184  0.1660  0.3166
17904TIP3    H175127   3.127   4.999  13.259  0.6543 -0.0805 -0.0593
17904TIP3    H275128   3.136   5.049  13.116  0.3553 -1.6849 -0.6630
17905TIP3   OH275129   1.988   4.044  17.105 -0.7256  0.5175 -0.3837
17905TIP3    H175130   2.074   4.011  17.081 -0.5206  0.9944 -0.3089
17905TIP3    H275131   1.992   4.052  17.201 -0.1165  2.5545 -0.5570
17906TIP3   OH275132   1.738   6.368  16.938 -0.1206  0.0075 -0.2331
17906TIP3    H175133   1.807   6.302  16.933 -1.1629 -1.0961  0.0780
17906TIP3    H275134   1.755   6.415  17.020 -1.5609 -2.2914  1.4303
17907TIP3   OH275135   0.320   6.658  15.673  0.4251 -0.5117 -0.5929
17907TIP3    H175136   0.235   6.699  15.688  0.6849 -0.1317 -0.1488
17907TIP3    H275137   0.316   6.577  15.724  0.9684  0.3415  0.8202
17908TIP3   OH275138   2.613   4.017  12.611  0.0900  0.3808 -0.3712
17908TIP3    H175139   2.539   3.988  12.665 -0.1628  0.3134 -0.7524
17908TIP3    H275140   2.680   4.043  12.675  0.0102 -0.2536 -0.0220
17909TIP3   OH275141   2.537   0.254  11.844  0.0874 -0.1104  0.4229
17909TIP3    H175142   2.517   0.256  11.938  2.6255  0.9944  0.9820
17909TIP3    H275143   2.603   0.184  11.836  0.8233  0.6673 -0.3303
17910TIP3   OH275144   5.741   0.528   5.926  0.0977  0.1287 -0.3535
17910TIP3    H175145   5.729   0.595   5.994 -1.2801 -0.1369 -0.3098
17910TIP3    H275146   5.786   0.456   5.971 -1.3392 -0.2874  0.4636
17911TIP3   OH275147   6.185   1.526   0.132 -0.3509 -0.4396  0.0708
17911TIP3    H175148   6.134   1.527   0.051  0.8335 -1.1736 -0.6912
17911TIP3    H275149   6.272   1.558   0.106 -0.2004  0.1239  1.2184
17912TIP3   OH275150   3.229   3.656  11.112 -0.7663 -0.0864  0.2196
17912TIP3    H175151   3.313   3.639  11.155 -0.9459  1.1943  1.0838
17912TIP3    H275152   3.235   3.747  11.083 -2.2647  0.3386  1.2079
17913TIP3   OH275153   3.265   6.513  17.217 -0.1941  0.3038  0.1932
17913TIP3    H175154   3.290   6.421  17.229  4.2315  1.3817  0.2418
17913TIP3    H275155   3.222   6.515  17.132 -0.1593 -1.7724  0.0961
17914TIP3   OH275156   3.090   5.763  12.842 -0.1687 -0.1324  0.1613
17914TIP3    H175157   3.172   5.763  12.792  0.7338  1.7424  1.5596
17914TIP3    H275158   3.030   5.815  12.789  0.1162  0.0109 -0.0219
17915TIP3   OH275159   1.835   1.706  15.708 -0.0871 -0.0281 -0.1181
17915TIP3    H175160   1.877   1.683  15.624 -0.1093 -1.1382  0.1665
17915TIP3    H275161   1.841   1.801  15.712  2.0687 -0.1310 -0.2847
17916TIP3   OH275162   3.302   3.369   2.177  0.4364 -0.0906 -0.0266
17916TIP3    H175163   3.224   3.335   2.133  0.0710 -0.4749  0.9078
17916TIP3    H275164   3.309   3.460   2.147  0.9325 -0.7213 -1.8785
17917TIP3   OH275165   2.246   0.437   4.816 -0.6972 -0.3725  0.2503
17917TIP3    H175166   2.302   0.459   4.741 -2.7379  0.0938 -1.1747
17917TIP3    H275167   2.305   0.442   4.892  1.3292 -0.5202 -1.2564
17918TIP3   OH275168   3.846   4.371  11.476 -0.3820 -0.3301  0.7579
17918TIP3    H175169   3.866   4.445  11.534  1.7063 -1.5766  1.7078
17918TIP3    H275170   3.898   4.387  11.397 -0.1397 -0.6045  0.8554
17919TIP3   OH275171   1.012   1.048  15.031  0.3627 -0.2379  0.0851
17919TIP3    H175172   1.045   1.062  15.120  0.9634  1.9516 -0.4564
17919TIP3    H275173   0.943   1.113  15.021  0.0548 -0.7201 -0.9245
17920TIP3   OH275174   6.518   4.520   3.430  0.2573 -0.0719 -0.4022
17920TIP3    H175175   6.544   4.610   3.451 -0.6045 -0.1503  1.0541
17920TIP3    H275176   6.461   4.529   3.354  1.0001  0.5123 -0.8971
17921TIP3   OH275177   4.384   2.918  14.467 -0.4612  0.5735 -0.3078
17921TIP3    H175178   4.428   2.987  14.417 -0.0354  0.2332 -0.4062
17921TIP3    H275179   4.398   2.839  14.415  1.1269 -0.0325  1.0065
17922TIP3   OH275180   5.668   6.122   1.230  0.1633 -0.6327  0.3155
17922TIP3    H175181   5.613   6.101   1.155 -1.2813  2.7841  0.3088
17922TIP3    H275182   5.607   6.124   1.304  1.1841 -1.8371  1.2013
17923TIP3   OH275183   1.176   2.852   3.756  0.5563 -0.5917  0.0942
17923TIP3    H175184   1.209   2.777   3.707  0.9483  0.9287 -2.0645
17923TIP3    H275185   1.235   2.924   3.731 -0.8666  0.8252  0.7387
17924TIP3   OH275186   2.666   0.698  17.189 -0.5405 -0.0053 -0.9185
17924TIP3    H175187   2.704   0.663  17.270  0.7493  2.3258 -0.4502
17924TIP3    H275188   2.573   0.709  17.209  0.0034  1.8322  0.7608
17925TIP3   OH275189   0.607   2.730   3.471  0.1480  0.1412 -0.3165
17925TIP3    H175190   0.696   2.720   3.438  0.3854  0.7265  0.1340
17925TIP3    H275191   0.603   2.821   3.501 -0.7962  0.3034 -0.9160
17926TIP3   OH275192   5.992   1.577  14.859  0.5212  0.1528  0.0140
17926TIP3    H175193   6.047   1.648  14.893 -1.1802  1.3869  0.2568
17926TIP3    H275194   5.945   1.544  14.935  1.3514 -1.2879 -0.0920
17927TIP3   OH275195   2.959   0.047  15.954 -0.3556  0.3659  0.5389
17927TIP3    H175196   3.053   0.035  15.969  0.1328  1.3358 -1.6196
17927TIP3    H275197   2.926  -0.042  15.940  0.1317 -0.0310  1.8141
17928TIP3   OH275198   3.813   2.295   1.670 -0.4797 -0.0022 -0.5482
17928TIP3    H175199   3.838   2.368   1.614  0.0469 -0.7088 -1.2433
17928TIP3    H275200   3.796   2.222   1.610  1.6623 -1.2248  0.2800
17929TIP3   OH275201   0.344   0.524  10.744 -0.6488 -0.2918  0.1672
17929TIP3    H175202   0.315   0.435  10.761 -1.1526 -0.1769 -0.0646
17929TIP3    H275203   0.439   0.520  10.749 -0.6947 -0.7289  0.6870
17930TIP3   OH275204   5.284   3.690  13.979 -0.3031  0.2153 -0.0636
17930TIP3    H175205   5.372   3.652  13.980  0.2522  1.4918  1.0724
17930TIP3    H275206   5.242   3.656  14.057 -0.6279  0.0650 -0.3018
17931TIP3   OH275207   1.558   2.321   0.106 -0.6215 -0.3492  0.2677
17931TIP3    H175208   1.485   2.262   0.090 -0.1129 -0.5798 -1.3416
17931TIP3    H275209   1.599   2.288   0.186 -3.1445  0.6974  2.0679
17932TIP3   OH275210   4.795   3.390   4.121 -0.0826 -0.0852  0.4983
17932TIP3    H175211   4.826   3.316   4.069 -1.0927 -0.2445  0.1179
17932TIP3    H275212   4.834   3.377   4.207 -0.2481 -1.0480  0.4265
17933TIP3   OH275213   1.285   3.609  16.383  0.2051 -0.1534 -0.4086
17933TIP3    H175214   1.375   3.589  16.409  0.1370 -0.9430 -0.7517
17933TIP3    H275215   1.292   3.689  16.332  0.5389  0.5459  0.7088
17934TIP3   OH275216   3.804   3.862  16.121 -0.1824 -0.0120  0.3577
17934TIP3    H175217   3.710   3.850  16.108 -0.1336 -0.1762  0.1423
17934TIP3    H275218   3.843   3.785  16.080  0.2203  1.4788 -2.1313
17935TIP3   OH275219   4.951   1.177  12.280 -0.0088 -0.0371  0.0360
17935TIP3    H175220   4.964   1.260  12.326 -0.3576 -0.3232  0.6540
17935TIP3    H275221   4.874   1.138  12.321  0.3083 -0.7916 -0.0675
17936TIP3   OH275222   3.064   4.853  11.293 -0.0884  0.1541 -0.3902
17936TIP3    H175223   3.069   4.890  11.205  1.1735 -1.3203 -0.9640
17936TIP3    H275224   2.971   4.850  11.313 -0.4333 -0.2757 -2.0080
17937TIP3   OH275225   6.542   4.518   0.524 -0.5981  0.2207  0.1000
17937TIP3    H175226   6.561   4.561   0.607  0.0481 -2.3884  1.3507
17937TIP3    H275227   6.576   4.578   0.458  1.4018  1.0798  1.8338
17938TIP3   OH275228   1.439   0.491   5.362 -0.2934 -0.3115 -0.4424
17938TIP3    H175229   1.383   0.489   5.439  0.7650  0.4323  0.3568
17938TIP3    H275230   1.505   0.423   5.378 -0.3210 -0.4523 -0.8987
17939TIP3   OH275231   3.470   4.304   4.455 -0.1501 -0.6423  0.1261
17939TIP3    H175232   3.451   4.336   4.367  1.6772  0.8118  0.2332
17939TIP3    H275233   3.548   4.249   4.444  0.6056  0.2480  0.9477
17940TIP3   OH275234   0.041   2.940   5.505 -0.3229  0.1548  0.4104
17940TIP3    H175235  -0.028   2.986   5.553 -0.9568 -2.5581  2.2149
17940TIP3    H275236  -0.005   2.868   5.461  0.8014  0.5388 -1.4521
17941TIP3   OH275237   4.935   1.584   0.411 -0.3326 -0.2091  0.0515
17941TIP3    H175238   4.987   1.621   0.482 -0.4247  0.8813 -0.4463
17941TIP3    H275239   4.860   1.643   0.403 -0.6572 -0.6917 -0.5309
17942TIP3   OH275240   0.955   2.653  16.689 -0.0210  0.0602 -0.3892
17942TIP3    H175241   1.015   2.704  16.635 -0.3334 -1.3790 -2.1255
17942TIP3    H275242   1.011   2.615  16.757  0.7443  0.1394 -0.9688
17943TIP3   OH275243   6.523   5.941  14.419  0.0448 -0.8379  0.1695
17943TIP3    H175244   6.496   6.009  14.481  1.3347 -0.9314  0.8298
17943TIP3    H275245   6.442   5.895  14.398 -0.9362  1.1614 -0.6149
17944TIP3   OH275246   5.178   3.531   2.437  0.2399  0.0109  0.3765
17944TIP3    H175247   5.103   3.487   2.397  0.9640 -1.1542  0.3143
17944TIP3    H275248   5.198   3.479   2.515  0.0067  1.2179  1.2725
17945TIP3   OH275249   1.245   0.552  16.038 -1.0199 -0.8424 -0.0484
17945TIP3    H175250   1.264   0.545  16.132  0.3354  0.6903 -0.1919
17945TIP3    H275251   1.187   0.629  16.032  0.0376 -0.0869 -0.6198
17946TIP3   OH275252   3.053   5.735  15.449  0.4202 -0.3880  0.6440
17946TIP3    H175253   3.044   5.810  15.508  0.3081  0.1882 -0.0945
17946TIP3    H275254   3.147   5.724  15.437  0.4346 -0.2998  0.6782
17947TIP3   OH275255   4.165   4.174  11.811  0.5058  0.1993 -0.8317
17947TIP3    H175256   4.100   4.221  11.757 -0.3534  0.6954  0.6063
17947TIP3    H275257   4.240   4.164  11.753 -0.0578  1.5321 -1.8464
17948TIP3   OH275258   3.879   6.220   5.165  0.3164  0.5919  1.2114
17948TIP3    H175259   3.851   6.311   5.160 -0.3673  0.3915  1.4053
17948TIP3    H275260   3.800   6.169   5.150  0.7307  0.0285  0.9381
17949TIP3   OH275261   4.867   2.615  12.639  0.0164  0.5985  0.2305
17949TIP3    H175262   4.949   2.648  12.601 -0.7142 -0.4920 -2.3944
17949TIP3    H275263   4.879   2.521  12.646 -0.1940  0.6836  1.9731
17950TIP3   OH275264   6.246   3.550  14.309  0.0145  0.5302  0.1731
17950TIP3    H175265   6.184   3.621  14.293 -1.2053 -0.8403 -1.4212
17950TIP3    H275266   6.277   3.525  14.222 -1.5435 -2.5793  0.4194
17951TIP3   OH275267   1.708   1.153   3.442  0.2791  0.5652 -0.0258
17951TIP3    H175268   1.672   1.188   3.524 -1.3776  0.3782 -0.6599
17951TIP3    H275269   1.742   1.230   3.397 -0.1859  0.8933  0.1697
17952TIP3   OH275270   2.793   4.382   4.065 -0.1142 -0.0123 -0.2115
17952TIP3    H175271   2.750   4.316   4.010  1.9573 -1.5893  0.0015
17952TIP3    H275272   2.851   4.331   4.123  0.9419  1.9392  0.4903
17953TIP3   OH275273   3.776   4.422   3.256 -0.3735 -0.4977  0.2689
17953TIP3    H175274   3.801   4.511   3.283 -0.5871  1.1419 -4.4778
17953TIP3    H275275   3.831   4.365   3.310  2.5370  2.6264  0.8118
17954TIP3   OH275276   1.533   5.424  16.885  0.1475 -0.4932  0.2242
17954TIP3    H175277   1.517   5.407  16.792 -3.0160  1.6339  0.2924
17954TIP3    H275278   1.461   5.381  16.931 -0.9281  2.2918  1.2760
17955TIP3   OH275279   4.830   4.657   0.748  0.8550  0.1382  0.1985
17955TIP3    H175280   4.901   4.708   0.785  0.2577  0.6667  0.6272
17955TIP3    H275281   4.814   4.697   0.662 -2.0113  3.0376  1.9774
17956TIP3   OH275282   3.261   1.060  17.087 -0.1662 -0.3502  0.4456
17956TIP3    H175283   3.343   1.015  17.109 -0.3175  0.5631  3.0754
17956TIP3    H275284   3.207   0.993  17.044  0.9463 -1.6949  1.1277
17957TIP3   OH275285   1.287   0.470   5.595  0.0113 -0.0196 -0.1227
17957TIP3    H175286   1.245   0.547   5.633 -2.1870 -1.6032  0.7745
17957TIP3    H275287   1.318   0.420   5.670 -0.7763 -1.1891 -0.5616
17958TIP3   OH275288   1.576   3.654  12.045  0.8204 -0.4417 -0.0987
17958TIP3    H175289   1.599   3.721  11.981  0.4011 -1.0613 -0.8939
17958TIP3    H275290   1.575   3.701  12.129 -1.6657  1.0883 -0.9034
17959TIP3   OH275291   1.429   0.219   4.815  0.1630 -0.1397  0.4867
17959TIP3    H175292   1.425   0.241   4.722 -0.0836  0.6589  0.6829
17959TIP3    H275293   1.340   0.232   4.847  0.6401  1.3734  1.2280
17960TIP3   OH275294   2.375   3.780  14.554 -0.4367  0.4193  0.4355
17960TIP3    H175295   2.426   3.731  14.618  4.0657  1.8343 -1.9004
17960TIP3    H275296   2.372   3.723  14.477 -0.1872  1.4118 -0.3100
17961TIP3   OH275297   3.279   0.250   3.798  0.1581  0.0298  0.3452
17961TIP3    H175298   3.363   0.294   3.811  1.3769 -1.9925 -0.5433
17961TIP3    H275299   3.279   0.225   3.706 -1.7118  0.5639  0.1747
17962TIP3   OH275300   0.376   1.703  16.273  0.4049  0.2894  0.1511
17962TIP3    H175301   0.411   1.764  16.208 -1.9411  1.6519  0.1037
17962TIP3    H275302   0.286   1.733  16.288 -0.8327 -3.1896  0.1081
17963TIP3   OH275303   2.108   0.024   1.611  0.2923  0.2509  0.6536
17963TIP3    H175304   2.025   0.065   1.585 -0.0788  0.2295  1.8080
17963TIP3    H275305   2.148   0.088   1.669  0.3905 -0.3952  1.2944
17964TIP3   OH275306   4.232   5.454  16.166  0.7078 -0.0737  0.0314
17964TIP3    H175307   4.139   5.476  16.169  0.6835 -0.3785  2.6105
17964TIP3    H275308   4.276   5.539  16.163  0.3525  0.0695 -1.2737
17965TIP3   OH275309   2.194   4.374  14.436 -0.2539 -0.1981 -0.0672
17965TIP3    H175310   2.250   4.377  14.513  1.0881  0.9474 -1.0418
17965TIP3    H275311   2.153   4.461  14.433 -1.3381 -0.7022  0.1072
17966TIP3   OH275312   6.081   1.778   4.486 -0.6112  0.1619 -0.7534
17966TIP3    H175313   6.110   1.806   4.573 -0.9869  1.9239 -1.1581
17966TIP3    H275314   6.057   1.687   4.496  0.7024 -0.0538  0.6629
17967TIP3   OH275315   4.844   4.294  13.829 -0.3630  0.1901  0.2140
17967TIP3    H175316   4.771   4.335  13.874  0.5309  1.2578  0.7083
17967TIP3    H275317   4.821   4.201  13.825 -2.0038  0.6001 -0.1547
17968TIP3   OH275318   6.521   2.232  13.471  0.4533  0.8926  0.0846
17968TIP3    H175319   6.540   2.202  13.382  0.7286  0.1706  0.3832
17968TIP3    H275320   6.470   2.313  13.459 -0.5447  0.1485 -0.7246
17969TIP3   OH275321   2.344   3.379  11.832  0.0752 -0.2788 -0.2143
17969TIP3    H175322   2.400   3.457  11.825 -0.1680  0.1097  1.9401
17969TIP3    H275323   2.346   3.341  11.744  1.6563  1.1546 -0.8358
17970TIP3   OH275324   0.166   5.986  12.214 -0.1042  0.0936  0.3560
17970TIP3    H175325   0.141   5.893  12.213 -1.4932  0.4437  1.0911
17970TIP3    H275326   0.118   6.024  12.140  0.2514  0.2718  0.2191
17971TIP3   OH275327   0.208   5.421  11.886 -0.1690 -0.2168  0.1008
17971TIP3    H175328   0.117   5.414  11.915 -0.2029  0.9353  0.3125
17971TIP3    H275329   0.242   5.332  11.893 -1.3724 -0.7286 -0.3085
17972TIP3   OH275330   5.911   1.668   6.096 -0.4214 -0.2566 -0.2318
17972TIP3    H175331   5.944   1.708   6.016 -0.4492  0.1753 -0.0264
17972TIP3    H275332   5.990   1.638   6.142 -0.3188  0.5892  0.1583
17973TIP3   OH275333   1.484   2.103  12.764  0.1421  0.5617 -0.0270
17973TIP3    H175334   1.543   2.049  12.817 -0.3575 -1.3292 -1.3668
17973TIP3    H275335   1.511   2.193  12.784  2.7730 -0.2316  0.1964
17974TIP3   OH275336   5.067   1.260  11.808  0.3005  0.0159  0.0882
17974TIP3    H175337   5.064   1.355  11.793  0.5835  0.0583  0.3060
17974TIP3    H275338   5.078   1.251  11.902  2.0100 -0.1976 -0.1055
17975TIP3   OH275339   3.954   2.051  13.419 -0.0296  0.2222 -0.1962
17975TIP3    H175340   3.919   2.061  13.330 -1.0221 -0.1375  0.1457
17975TIP3    H275341   4.017   1.980  13.412 -0.0211  0.2690 -0.6396
17976TIP3   OH275342   4.330   3.156   2.544  0.1165  0.2879 -0.1023
17976TIP3    H175343   4.244   3.146   2.505 -0.7652  1.8213  1.3720
17976TIP3    H275344   4.344   3.075   2.593  0.8174 -1.2216 -2.7286
17977TIP3   OH275345   4.573   4.842  12.957 -0.5207  0.1967 -0.5934
17977TIP3    H175346   4.489   4.875  12.926 -0.3990  2.0934  0.9978
17977TIP3    H275347   4.613   4.801  12.880 -1.5133  2.1243 -2.1883
17978TIP3   OH275348   2.652   2.116   0.806 -0.3279  0.0534 -0.1172
17978TIP3    H175349   2.642   2.187   0.743  0.6513 -0.1035 -0.4481
17978TIP3    H275350   2.703   2.154   0.878  0.2809 -0.3478 -0.3408
17979TIP3   OH275351   3.021   6.297  12.034  0.3556  0.1986 -0.5182
17979TIP3    H175352   3.104   6.347  12.035  0.2726  0.3880 -1.7675
17979TIP3    H275353   2.970   6.335  12.105  0.2954  1.9287 -1.4560
17980TIP3   OH275354   2.126   6.329  11.424 -0.2372 -0.1379 -0.1384
17980TIP3    H175355   2.070   6.353  11.350 -0.3294 -0.4643 -0.1753
17980TIP3    H275356   2.126   6.233  11.424  1.3421 -0.1440 -0.9054
17981TIP3   OH275357   4.083   2.371   0.581  0.7197 -0.0163 -0.3435
17981TIP3    H175358   4.074   2.462   0.608 -0.9154  0.2863 -1.8156
17981TIP3    H275359   4.040   2.367   0.495  2.1163 -1.8306 -0.9937
17982TIP3   OH275360   0.894   3.065   4.997 -0.0953 -0.3790  0.3737
17982TIP3    H175361   0.883   3.072   5.092 -1.1417 -0.7789  0.2798
17982TIP3    H275362   0.900   2.971   4.981  2.9325 -0.2570  0.3555
17983TIP3   OH275363   0.406   5.228  11.836  0.0155 -0.2130  0.4539
17983TIP3    H175364   0.363   5.215  11.752 -0.2823  1.7643  0.2655
17983TIP3    H275365   0.471   5.158  11.842  0.0180 -0.3845 -1.3958
17984TIP3   OH275366   1.468   5.528   4.172  0.1110 -0.1564 -0.3470
17984TIP3    H175367   1.398   5.591   4.155 -0.9977 -1.5810 -1.2153
17984TIP3    H275368   1.458   5.504   4.264 -0.0137  0.2598 -0.2510
17985TIP3   OH275369   0.790   5.177   5.152 -0.1300 -0.2121 -0.3836
17985TIP3    H175370   0.872   5.139   5.184 -0.5615 -1.1978 -0.4267
17985TIP3    H275371   0.817   5.256   5.106  1.0946 -2.0343 -2.9048
17986TIP3   OH275372   5.178   1.257   2.658  0.0925  0.4325 -0.3628
17986TIP3    H175373   5.184   1.259   2.562 -1.0569  1.1300 -0.4239
17986TIP3    H275374   5.087   1.235   2.676  0.1225  1.0370  0.5751
17987TIP3   OH275375   4.924   5.104  15.430 -0.1265  0.4088 -0.2892
17987TIP3    H175376   4.957   5.191  15.453 -0.4678  0.1627  1.1386
17987TIP3    H275377   4.946   5.049  15.505  0.5075 -0.8586 -1.3775
17988TIP3   OH275378   4.852   2.869  13.585 -0.0181 -0.0877 -0.0634
17988TIP3    H175379   4.934   2.836  13.622  0.2335  1.4667  0.8127
17988TIP3    H275380   4.805   2.906  13.660 -1.0320  0.0412 -0.7464
17989TIP3   OH275381   4.880   3.737   0.220  0.0716  0.5248 -0.1857
17989TIP3    H175382   4.975   3.745   0.231 -0.0775 -0.1450  1.7696
17989TIP3    H275383   4.868   3.655   0.172  0.4375  0.3160  0.0840
17990TIP3   OH275384   0.310   3.037   3.154  0.2747 -0.6174 -0.2740
17990TIP3    H175385   0.393   3.031   3.202 -0.2708 -0.1815  0.7409
17990TIP3    H275386   0.332   3.086   3.074  1.0805 -0.8729 -0.2113
17991TIP3   OH275387   1.207   2.637  15.606  0.4207 -0.1670 -0.0366
17991TIP3    H175388   1.197   2.732  15.616  0.1868 -0.3036  0.9965
17991TIP3    H275389   1.171   2.600  15.686 -0.1071 -1.1748 -0.7232
17992TIP3   OH275390   2.742   0.758  15.105  0.7236  1.1140 -0.0469
17992TIP3    H175391   2.761   0.851  15.115  1.5214  0.8157  1.3210
17992TIP3    H275392   2.647   0.752  15.117  0.7158  1.7061  0.2442
17993TIP3   OH275393   4.528   3.781  12.369 -0.8133  0.0371 -0.0212
17993TIP3    H175394   4.586   3.809  12.439 -1.6280  1.5583  0.0609
17993TIP3    H275395   4.494   3.696  12.397 -1.5244  0.8602  1.6646
17994TIP3   OH275396   6.071   0.869  10.975  0.0519  0.4062 -0.0054
17994TIP3    H175397   5.988   0.842  10.936 -1.5321  2.3954  1.9115
17994TIP3    H275398   6.102   0.941  10.920 -0.1824  0.5894  0.1067
17995TIP3   OH275399   2.205   5.705   4.732 -0.3969 -0.5365  0.2010
17995TIP3    H175400   2.211   5.800   4.723  2.4596 -0.7017 -0.0672
17995TIP3    H275401   2.218   5.671   4.643 -1.2909 -1.1893  0.3109
17996TIP3   OH275402   0.980   6.710  14.326 -0.1314  0.2496  0.0421
17996TIP3    H175403   0.932   6.749  14.399  0.6051  1.1401  0.0511
17996TIP3    H275404   1.071   6.734  14.341  0.0055  0.5866 -1.2660
17997TIP3   OH275405   4.773   0.042   0.621 -0.0252 -0.0560 -0.5606
17997TIP3    H175406   4.822  -0.025   0.668  0.0610  0.6192  0.3303
17997TIP3    H275407   4.693   0.054   0.672  0.2027  0.8901 -0.4128
17998TIP3   OH275408   1.673   6.322   4.858  0.1409  0.2957 -0.0304
17998TIP3    H175409   1.613   6.248   4.845  0.9159 -0.2171 -0.7414
17998TIP3    H275410   1.616   6.396   4.877 -0.7419 -0.1518 -0.8772
17999TIP3   OH275411   0.999   5.402  14.699  0.8095 -0.5484  0.1443
17999TIP3    H175412   1.017   5.354  14.780  1.1966  0.1958  0.5056
17999TIP3    H275413   0.905   5.416  14.699  1.1352  2.0693  1.9830
18000TIP3   OH275414   1.336   0.128  13.165  0.1548  0.3536 -0.0941
18000TIP3    H175415   1.301   0.095  13.248  0.8367 -2.1620 -0.7451
18000TIP3    H275416   1.263   0.122  13.104  0.7956 -2.0584 -0.7148
18001TIP3   OH275417   0.039   6.055   3.159  0.4097 -0.2332 -0.6334
18001TIP3    H175418  -0.014   5.976   3.151  0.0636 -0.1097  0.3404
18001TIP3    H275419  -0.017   6.125   3.126 -1.3941  0.4294  3.4757
18002TIP3   OH275420   3.440   0.994   3.891 -0.3259  0.3057 -0.3470
18002TIP3    H175421   3.360   0.943   3.903  0.1789 -0.2534  0.6483
18002TIP3    H275422   3.499   0.963   3.959  0.9319  0.3535 -1.4128
18003TIP3   OH275423   5.229   1.097  15.753  0.0327 -0.4095  1.0119
18003TIP3    H175424   5.310   1.081  15.705 -0.8199  2.0702 -1.3856
18003TIP3    H275425   5.174   1.021  15.734  0.4712 -0.4029 -0.3500
18004TIP3   OH275426   4.246   4.171   5.626 -0.3044 -0.1012 -0.1216
18004TIP3    H175427   4.304   4.128   5.689 -1.5900  0.7082  1.6484
18004TIP3    H275428   4.282   4.259   5.616  0.9558 -0.7962 -1.9441
18005TIP3   OH275429   5.440   5.526   1.446  0.1969  0.0340 -0.1054
18005TIP3    H175430   5.452   5.588   1.517 -1.2718  0.0051  0.1843
18005TIP3    H275431   5.453   5.440   1.486 -0.2320  0.0379  0.0448
18006TIP3   OH275432   0.767   3.480   3.745 -0.5246 -0.1385 -0.1790
18006TIP3    H175433   0.674   3.457   3.742 -0.9286  1.3881  0.1136
18006TIP3    H275434   0.793   3.484   3.653 -0.9811  0.3413 -0.2904
18007TIP3   OH275435   1.452   4.941  15.924 -0.7831 -0.9771  0.0606
18007TIP3    H175436   1.530   4.911  15.970 -0.5762  0.6180  0.8015
18007TIP3    H275437   1.394   4.865  15.921  0.3443 -1.8636  0.4748
18008TIP3   OH275438   1.329   0.344  13.698  0.0523  0.1941  0.4252
18008TIP3    H175439   1.391   0.291  13.749 -0.1807 -1.6374 -1.1699
18008TIP3    H275440   1.260   0.284  13.673 -1.2501  1.7273  0.2659
18009TIP3   OH275441   1.916   0.721  13.970  0.3169  0.0162 -0.0404
18009TIP3    H175442   1.871   0.744  14.051 -0.8444  2.2949 -1.2625
18009TIP3    H275443   1.901   0.627  13.960 -0.9507  0.0274  1.5265
18010TIP3   OH275444   5.435   0.949   3.117 -0.5305  0.5833  0.3927
18010TIP3    H175445   5.506   0.924   3.058 -0.9931 -0.9529  0.4656
18010TIP3    H275446   5.479   0.985   3.194  0.1390  0.4497  0.0698
18011TIP3   OH275447   6.107   2.680   3.346  0.5016  0.1463 -0.1587
18011TIP3    H175448   6.196   2.664   3.377  0.3429 -1.6619 -0.5430
18011TIP3    H275449   6.115   2.756   3.289  2.0419 -0.7234 -1.1473
18012TIP3   OH275450   3.443   0.612  14.983  0.3349 -0.6371  0.2776
18012TIP3    H175451   3.471   0.575  14.899  1.3516 -1.0704  0.7981
18012TIP3    H275452   3.525   0.637  15.026 -0.2085 -0.0413  0.9663
18013TIP3   OH275453   3.473   1.244  12.838  0.0784  0.2476  0.2038
18013TIP3    H175454   3.545   1.306  12.849  0.8428 -0.5871 -0.0205
18013TIP3    H275455   3.460   1.207  12.926  0.6757 -0.4127  0.0196
18014TIP3   OH275456   1.036   2.494   6.002  0.1486 -0.2034  0.3647
18014TIP3    H175457   1.071   2.556   5.938 -0.5351  0.1615  0.3288
18014TIP3    H275458   0.988   2.550   6.064  0.2210 -0.6204  0.7942
18015TIP3   OH275459   3.260   6.002   5.891  0.4236  0.9468 -0.5345
18015TIP3    H175460   3.188   5.968   5.944  0.6355  0.0996 -0.7878
18015TIP3    H275461   3.220   6.020   5.805  0.5253  0.4461 -0.6850
18016TIP3   OH275462   4.406   2.949  11.327  0.0227  0.1863 -0.4391
18016TIP3    H175463   4.428   2.976  11.238  1.8840 -0.9637 -0.3682
18016TIP3    H275464   4.392   2.855  11.321 -0.1066  0.1475  0.4191
18017TIP3   OH275465   5.274   3.645  12.766  0.3949 -0.2776  0.1122
18017TIP3    H175466   5.261   3.585  12.840 -0.7892 -0.6309 -0.3606
18017TIP3    H275467   5.272   3.589  12.689  1.4999  0.1095 -0.1992
18018TIP3   OH275468   5.575   1.511   1.886 -0.1770 -0.2899  0.6262
18018TIP3    H175469   5.658   1.479   1.919 -0.1444  0.5703  1.3942
18018TIP3    H275470   5.521   1.524   1.964 -0.0094  2.0073  0.3981
18019TIP3   OH275471   2.857   4.116  13.067  0.3017  0.1161  0.1746
18019TIP3    H175472   2.811   4.200  13.063  0.4028  0.2174  1.1042
18019TIP3    H275473   2.877   4.096  12.976 -0.1509  0.8652 -0.0965
18020TIP3   OH275474   3.071   2.293   0.765  0.3620 -0.2676  0.3409
18020TIP3    H175475   3.038   2.204   0.756  0.3847 -0.0443 -2.4629
18020TIP3    H275476   3.139   2.301   0.698 -0.6415  2.2653 -0.4761
18021TIP3   OH275477   3.589   3.001   3.664  0.2837  0.3213 -0.1177
18021TIP3    H175478   3.632   3.056   3.729  1.6142 -0.5001 -0.2666
18021TIP3    H275479   3.630   2.915   3.675 -2.2534 -0.8437  0.6041
18022TIP3   OH275480   3.466   0.744  13.115 -0.1270  0.0012  0.2322
18022TIP3    H175481   3.550   0.700  13.130 -0.2806 -0.3017  0.1961
18022TIP3    H275482   3.423   0.745  13.200 -0.3403 -0.3642  0.1285
18023TIP3   OH275483   6.168   0.489   3.141 -0.6520 -0.7876 -0.4112
18023TIP3    H175484   6.263   0.488   3.155 -0.8386 -1.9702  0.8831
18023TIP3    H275485   6.136   0.553   3.204 -0.9789 -2.4588  1.1768
18024TIP3   OH275486   5.093   3.743   0.744  0.1286 -0.8890  0.7212
18024TIP3    H175487   5.138   3.717   0.824  1.6852 -2.0407 -0.4882
18024TIP3    H275488   5.147   3.814   0.708 -1.3962  0.6822  1.4448
18025TIP3   OH275489   6.209   5.666   3.337 -0.2686 -0.1717 -0.1926
18025TIP3    H175490   6.140   5.724   3.369  0.7241  2.4229 -2.5529
18025TIP3    H275491   6.169   5.620   3.263  0.4492  1.2015 -1.4489
18026TIP3   OH275492   6.419   0.205  11.080  0.1703 -0.1916 -0.7955
18026TIP3    H175493   6.351   0.142  11.102  0.5649  0.2096  1.6812
18026TIP3    H275494   6.498   0.152  11.068  0.4716 -0.1969  1.1494
18027TIP3   OH275495   3.681   6.050  16.151  0.4745 -0.4138 -0.5146
18027TIP3    H175496   3.623   6.121  16.122  0.3938 -0.6948 -1.0280
18027TIP3    H275497   3.768   6.077  16.121  0.1790 -1.4140 -2.3121
18028TIP3   OH275498   4.447   0.606   3.118  0.3313 -0.4348 -0.0367
18028TIP3    H175499   4.527   0.565   3.088  0.7957 -0.5312  1.2899
18028TIP3    H275500   4.384   0.534   3.124  0.7283 -0.7107  0.8767
18029TIP3   OH275501   5.473   4.194  13.394  0.3370 -0.2204 -0.2116
18029TIP3    H175502   5.466   4.267  13.333 -1.0300 -0.7423 -0.6858
18029TIP3    H275503   5.453   4.117  13.342  0.5264 -0.8081  0.5810
18030TIP3   OH275504   0.679   5.642   5.876 -0.3329 -0.8528 -0.3980
18030TIP3    H175505   0.744   5.663   5.809  0.7766 -0.7406  0.6914
18030TIP3    H275506   0.731   5.620   5.953 -1.5955 -0.7382  0.4956
18031TIP3   OH275507   3.716   1.782   1.704 -0.0914  0.1609 -0.1996
18031TIP3    H175508   3.810   1.767   1.712 -0.0465 -1.2238 -2.6045
18031TIP3    H275509   3.706   1.820   1.617 -1.6325  1.7075  0.6297
18032TIP3   OH275510   1.084   5.124  13.394 -0.1408 -0.3794 -0.1063
18032TIP3    H175511   1.097   5.030  13.410  0.7992 -0.3972 -0.9601
18032TIP3    H275512   1.075   5.132  13.300  1.8110  0.6207 -0.2372
18033TIP3   OH275513   1.274   5.894   5.248  0.7167 -0.1396  0.0577
18033TIP3    H175514   1.298   5.948   5.173  0.1677 -0.4581 -0.3473
18033TIP3    H275515   1.317   5.810   5.232  1.1334 -0.0005  0.4250
18034TIP3   OH275516   2.728   4.959   3.699 -0.1771 -0.3287 -0.6221
18034TIP3    H175517   2.748   5.024   3.632  0.2753 -0.1627 -0.3299
18034TIP3    H275518   2.633   4.963   3.709 -0.2157 -0.1572 -1.0518
18035TIP3   OH275519   3.376   5.713   6.350 -0.1406 -0.1608  0.5017
18035TIP3    H175520   3.325   5.656   6.406  0.4138 -2.6798 -1.4897
18035TIP3    H275521   3.444   5.657   6.313  1.0482  2.0092 -0.7199
18036TIP3   OH275522   5.152   6.187   3.036 -0.1067 -0.1544 -0.4407
18036TIP3    H175523   5.073   6.144   3.068 -0.1176  0.0529 -0.1875
18036TIP3    H275524   5.175   6.139   2.956 -0.3273 -0.3913 -0.3616
18037TIP3   OH275525   5.437   6.121   2.638  0.0577 -0.0287  0.7532
18037TIP3    H175526   5.471   6.205   2.669 -0.1713 -0.5675  2.4807
18037TIP3    H275527   5.515   6.072   2.613  0.2091  0.5830 -0.0207
18038TIP3   OH275528   3.937   1.092  17.200  0.2829  0.4159 -0.3665
18038TIP3    H175529   4.021   1.123  17.234 -0.2240  0.5161  0.8186
18038TIP3    H275530   3.946   0.997  17.197  0.1885  0.3768  0.4516
18039TIP3   OH275531   5.419   1.491  12.792 -0.1859  0.5279  0.1694
18039TIP3    H175532   5.458   1.532  12.715  0.0979  0.3553  0.2227
18039TIP3    H275533   5.353   1.432  12.756  0.4204 -0.0654  0.0281
18040TIP3   OH275534   1.454   4.128   0.397  0.5217 -0.1480  0.3216
18040TIP3    H175535   1.366   4.104   0.367  0.5397 -1.0875  1.0377
18040TIP3    H275536   1.513   4.070   0.348  0.7737  0.6915 -0.3894
18041TIP3   OH275537   3.367   6.593  13.559  0.0952 -0.0348  0.1144
18041TIP3    H175538   3.287   6.626  13.518 -0.2961 -1.0587  0.0327
18041TIP3    H275539   3.345   6.586  13.652 -0.0489 -0.6912  0.0360
18042TIP3   OH275540   4.017   3.038   1.172  0.8144  0.1680 -0.2532
18042TIP3    H175541   4.004   2.975   1.101  0.1780  0.1299 -0.1058
18042TIP3    H275542   4.013   3.124   1.129 -0.0266  0.1600 -0.1995
18043TIP3   OH275543   0.257   0.210  11.549  0.6026  0.6208  0.4478
18043TIP3    H175544   0.233   0.280  11.610  1.7621  0.6013  0.9347
18043TIP3    H275545   0.348   0.191  11.569  0.6427 -0.2130 -0.4959
18044TIP3   OH275546   4.740   5.319  15.828  0.0794 -0.1580 -0.1835
18044TIP3    H175547   4.724   5.362  15.912  0.0713  0.1125 -0.3238
18044TIP3    H275548   4.812   5.259  15.846  1.0690  0.9779 -0.3448
18045TIP3   OH275549   0.981   1.521  12.986 -0.0561 -0.4864 -0.1853
18045TIP3    H175550   0.982   1.580  12.911 -0.5738  1.1694  1.0815
18045TIP3    H275551   1.074   1.502  13.003  0.0792 -0.5366 -0.9775
18046TIP3   OH275552   2.678   5.455   4.528 -0.4147 -0.4200  0.1047
18046TIP3    H175553   2.741   5.393   4.492  1.8862  0.6210  2.1499
18046TIP3    H275554   2.642   5.411   4.606  0.6426  0.4475  1.1096
18047TIP3   OH275555   2.412   5.521   3.862 -0.1940  0.2109 -0.5499
18047TIP3    H175556   2.477   5.453   3.847  0.1988  0.4442  0.0665
18047TIP3    H275557   2.420   5.542   3.955 -0.4877  0.9187 -0.6792
18048TIP3   OH275558   2.695   6.712   2.621 -0.1604  0.0431 -0.6338
18048TIP3    H175559   2.690   6.779   2.552  0.7511 -0.9280 -1.6620
18048TIP3    H275560   2.719   6.761   2.700  1.1233  0.8620 -1.5058
18049TIP3   OH275561   6.352   1.800   3.922  0.2624 -0.1786  0.3616
18049TIP3    H175562   6.334   1.758   4.006 -1.4641  1.3290  0.7872
18049TIP3    H275563   6.369   1.891   3.944  0.8734  0.0093 -0.8329
18050TIP3   OH275564   2.995   3.610   4.781 -0.1079  0.0311  0.0820
18050TIP3    H175565   3.021   3.552   4.852 -3.5274  0.1327  1.5104
18050TIP3    H275566   2.930   3.669   4.820 -1.6744  0.4322 -2.9701
18051TIP3   OH275567   1.069   5.468  11.670 -0.1853  0.3017 -0.0262
18051TIP3    H175568   1.164   5.459  11.674 -0.4298 -1.8519  2.2184
18051TIP3    H275569   1.053   5.562  11.669  1.9504  0.6820 -0.4782
18052TIP3   OH275570   0.722   6.062  15.299 -0.0673 -0.7552  0.3051
18052TIP3    H175571   0.636   6.101  15.315  0.2828  1.5237 -2.9526
18052TIP3    H275572   0.708   5.999  15.229  1.1083  0.6638 -1.2608
18053TIP3   OH275573   0.967   0.007  12.383  0.2553  0.3790  0.0538
18053TIP3    H175574   1.027  -0.033  12.320  0.0873 -1.0535  0.7766
18053TIP3    H275575   1.012   0.001  12.467 -0.1947  0.8033  0.3313
18054TIP3   OH275576   3.863   4.357   5.881 -0.1187 -0.1206 -0.1662
18054TIP3    H175577   3.768   4.371   5.878 -0.4430 -1.8011  1.2282
18054TIP3    H275578   3.873   4.262   5.880  1.5834  0.0540 -0.8312
18055TIP3   OH275579   0.276   4.208   2.404  0.0671  0.6206  0.2121
18055TIP3    H175580   0.320   4.261   2.471  1.1708 -0.7056  0.5535
18055TIP3    H275581   0.219   4.270   2.358  1.2699  2.0893  0.6591
18056TIP3   OH275582   1.445   2.889   4.444 -0.1984 -0.2480 -0.1132
18056TIP3    H175583   1.476   2.979   4.440  2.1197 -0.9469  1.0684
18056TIP3    H275584   1.444   2.868   4.538  3.3867 -2.7568 -0.5434
18057TIP3   OH275585   1.805   4.130  14.877  0.2226  0.1531  0.4207
18057TIP3    H175586   1.872   4.154  14.941  0.1163  0.5630  0.3790
18057TIP3    H275587   1.828   4.041  14.850  2.0048  1.0546 -1.1673
18058TIP3   OH275588   3.334   2.996  13.752 -0.2421  0.1777  0.0478
18058TIP3    H175589   3.276   2.935  13.705 -0.3654  0.5286 -0.2597
18058TIP3    H275590   3.420   2.954  13.747  0.1248  1.0996 -2.1578
18059TIP3   OH275591   4.874   2.369   4.911  0.3149 -0.7089 -0.1245
18059TIP3    H175592   4.871   2.374   5.007 -1.5267  2.1045 -0.2741
18059TIP3    H275593   4.966   2.386   4.889  0.7118 -1.1423  1.1178
18060TIP3   OH275594   3.052   3.236   3.258  0.4625 -0.0654  0.7478
18060TIP3    H175595   3.115   3.244   3.186 -1.2145 -1.7430 -0.9716
18060TIP3    H275596   3.103   3.256   3.337  1.7045  4.7059 -1.0786
18061TIP3   OH275597   5.835   6.032  14.226 -0.2958 -0.3996  0.2321
18061TIP3    H175598   5.802   6.078  14.149 -0.6024 -0.8390  0.1007
18061TIP3    H275599   5.788   6.071  14.299 -0.1914 -0.1584  0.1714
18062TIP3   OH275600   0.269   6.384   1.736 -0.2000 -0.3923 -0.6533
18062TIP3    H175601   0.332   6.356   1.669 -0.6256 -0.6076 -0.9649
18062TIP3    H275602   0.288   6.327   1.811 -0.4472 -0.8933 -0.9684
18063TIP3   OH275603   2.961   5.868  14.464 -0.1617  0.4176  0.5705
18063TIP3    H175604   3.029   5.812  14.502  1.4505  1.3430 -0.8900
18063TIP3    H275605   2.986   5.877  14.372 -1.3372  2.1459  0.3924
18064TIP3   OH275606   1.803   2.958   5.056  0.2123 -0.0416 -0.1361
18064TIP3    H175607   1.845   2.888   5.104 -0.4856  1.2043  2.3500
18064TIP3    H275608   1.875   3.006   5.014  0.7415 -1.7219 -1.1688
18065TIP3   OH275609   1.171   0.865  16.455  0.2270  0.0041  0.0148
18065TIP3    H175610   1.137   0.949  16.422 -0.4058 -0.2503  0.0049
18065TIP3    H275611   1.260   0.859  16.421 -0.7440 -0.7103 -2.4597
18066TIP3   OH275612   2.858   6.424   2.378 -0.0953  0.4148 -0.8337
18066TIP3    H175613   2.791   6.466   2.324 -0.7310  1.4930  0.7490
18066TIP3    H275614   2.919   6.495   2.399 -1.1065  0.5669  1.7608
18067TIP3   OH275615   3.518   2.014  12.110 -0.6817 -0.4241  0.8814
18067TIP3    H175616   3.478   2.023  12.024 -0.3051  1.0355  0.8543
18067TIP3    H275617   3.610   1.995  12.092 -0.6137 -0.1730  0.9702
18068TIP3   OH275618   2.775   2.641   1.577  0.1236  0.1485 -0.8768
18068TIP3    H175619   2.838   2.630   1.648  0.8426 -0.4474 -1.6036
18068TIP3    H275620   2.747   2.552   1.556  0.5387  0.2600 -1.9062
18069TIP3   OH275621   4.609   5.543  12.093 -0.6676  0.3165  0.2608
18069TIP3    H175622   4.578   5.574  12.178 -0.0158  1.6096  0.0485
18069TIP3    H275623   4.531   5.514  12.047 -0.9060 -1.3586  1.6831
18070TIP3   OH275624   0.016   5.524  16.977  0.6186 -0.3685 -0.6396
18070TIP3    H175625   0.057   5.554  17.058  1.0012 -0.9582 -0.6161
18070TIP3    H275626  -0.051   5.590  16.958 -0.7947 -1.2519  1.1814
18071TIP3   OH275627   5.370   1.191  15.449 -0.1465 -0.1297 -0.4550
18071TIP3    H175628   5.417   1.273  15.459 -1.6583  0.4342  2.4796
18071TIP3    H275629   5.278   1.214  15.455 -0.6229 -1.9807 -0.1467
18072TIP3   OH275630   2.772   1.604  14.374  0.3587 -0.1330 -0.0342
18072TIP3    H175631   2.828   1.681  14.385  1.9683 -0.6951 -3.3402
18072TIP3    H275632   2.699   1.635  14.320 -0.0181 -0.4817  0.2729
18073TIP3   OH275633   5.678   5.639  15.414 -0.1185  0.1579 -0.0343
18073TIP3    H175634   5.670   5.725  15.372 -2.6833  0.4926  1.0810
18073TIP3    H275635   5.588   5.610  15.426  0.7017 -2.0142  1.0030
18074TIP3   OH275636   1.511   6.216   3.631 -0.2885  0.7719  0.2493
18074TIP3    H175637   1.455   6.165   3.572 -1.0813  1.9242 -0.0263
18074TIP3    H275638   1.452   6.283   3.667  0.3602  0.5365  1.7848
18075TIP3   OH275639   3.025   1.906  11.059 -0.0306 -0.7911  0.0802
18075TIP3    H175640   3.112   1.908  11.099  0.1310  0.4667 -0.3217
18075TIP3    H275641   3.040   1.931  10.968 -0.8783 -0.0490  0.1408
18076TIP3   OH275642   6.646   0.167  12.707  0.3647  0.1896  0.0029
18076TIP3    H175643   6.688   0.116  12.638  0.0705  1.7297 -1.3443
18076TIP3    H275644   6.612   0.244  12.662  0.5761  1.4467  1.9511
18077TIP3   OH275645   1.328   0.470   5.132 -0.2099  0.5862  0.6066
18077TIP3    H175646   1.309   0.560   5.108  1.5645  1.0470  0.8343
18077TIP3    H275647   1.351   0.474   5.225 -0.6227 -0.1733  0.7451
18078TIP3   OH275648   5.440   2.814   6.196  0.3311  0.0548  0.1269
18078TIP3    H175649   5.453   2.816   6.291  0.4005  1.4949  0.1008
18078TIP3    H275650   5.356   2.768   6.185 -0.9042  2.0037  1.0465
18079TIP3   OH275651   4.939   1.953  15.031  0.0472  0.5702  0.2422
18079TIP3    H175652   4.968   1.905  15.108  2.1025  0.9809 -0.2581
18079TIP3    H275653   4.844   1.962  15.043  0.0649 -1.0311  1.7623
18080TIP3   OH275654   5.902   0.476   3.312  0.3852  0.0053  0.4684
18080TIP3    H175655   5.818   0.438   3.338  0.3318  0.4698  0.9768
18080TIP3    H275656   5.957   0.400   3.290  0.0399 -0.3278  0.7518
18081TIP3   OH275657   0.520   5.362   6.876  0.2779  0.8864  0.1495
18081TIP3    H175658   0.607   5.371   6.915  0.9708 -0.0491 -1.1313
18081TIP3    H275659   0.509   5.442   6.824  0.4759  0.8992  0.1255
18082TIP3   OH275660   6.550   0.015  16.447 -0.3029 -0.6462 -0.0833
18082TIP3    H175661   6.471  -0.030  16.418 -0.5749  0.0190 -0.3951
18082TIP3    H275662   6.620  -0.048  16.433 -1.0046 -1.8841  1.8717
18083TIP3   OH275663   3.579   3.261   4.267  0.1566  0.4619  0.0307
18083TIP3    H175664   3.633   3.273   4.189 -0.4706  0.7102 -0.3656
18083TIP3    H275665   3.627   3.197   4.320 -1.0935 -2.4370 -2.1765
18084TIP3   OH275666   0.429   1.490  12.760  0.4991  0.4488  0.2351
18084TIP3    H175667   0.440   1.455  12.671  1.5415  0.3940  0.3822
18084TIP3    H275668   0.497   1.557  12.768  0.5576  0.2931  1.0726
18085TIP3   OH275669   2.709   3.564   1.526 -0.0320  0.1344  0.0250
18085TIP3    H175670   2.629   3.571   1.474 -1.1760  0.3943  1.7838
18085TIP3    H275671   2.723   3.652   1.562  1.0778  0.1048 -0.2980
18086TIP3   OH275672   4.033   3.563  12.609  0.5433 -0.0135 -0.4829
18086TIP3    H175673   3.968   3.595  12.671  0.7568  0.9593 -0.7484
18086TIP3    H275674   4.102   3.629  12.611  0.8159 -0.2689 -1.3226
18087TIP3   OH275675   1.032   3.280  12.706 -0.3997  0.5873 -0.1813
18087TIP3    H175676   1.016   3.254  12.615 -0.4897  0.5756 -0.1617
18087TIP3    H275677   1.127   3.290  12.713 -0.3143 -0.3218 -0.0291
18088TIP3   OH275678   5.657   5.095   5.591 -0.1737 -0.4224 -0.1239
18088TIP3    H175679   5.706   5.080   5.509 -0.0152  0.7953 -0.2605
18088TIP3    H275680   5.720   5.077   5.660 -0.7083 -2.8441 -0.2327
18089TIP3   OH275681   4.885   0.735   0.607  0.3848 -0.2121 -0.5672
18089TIP3    H175682   4.881   0.829   0.589 -2.7340 -0.0463  0.6000
18089TIP3    H275683   4.910   0.730   0.699 -1.1938 -0.4130 -0.1261
18090TIP3   OH275684   2.210   5.238   6.645 -0.1947  0.7115 -0.3680
18090TIP3    H175685   2.289   5.186   6.662  1.1276  2.3010 -1.5082
18090TIP3    H275686   2.220   5.270   6.555 -2.4739  0.3835 -0.7738
18091TIP3   OH275687   0.426   6.458   4.328  1.0160  0.4181  0.3192
18091TIP3    H175688   0.423   6.500   4.242  0.4554  0.1099  0.1870
18091TIP3    H275689   0.452   6.368   4.310  1.9130  0.6203  0.5749
18092TIP3   OH275690   3.226   0.493   4.301 -0.0105  0.4935 -0.3563
18092TIP3    H175691   3.201   0.419   4.356  0.0467  0.5323 -0.2771
18092TIP3    H275692   3.147   0.548   4.297 -0.7161 -0.5986 -2.1115
18093TIP3   OH275693   2.061   2.934  13.727 -0.1519 -0.6521 -0.2530
18093TIP3    H175694   2.010   2.891  13.659  0.3646  0.2341 -1.1975
18093TIP3    H275695   2.130   2.981  13.681  1.3983 -1.6375  0.9890
18094TIP3   OH275696   2.665   2.225   5.410  0.4018  0.6089  0.2105
18094TIP3    H175697   2.694   2.135   5.398 -0.3607  0.6842 -2.4441
18094TIP3    H275698   2.588   2.218   5.467  0.4281 -0.4001  0.1333
18095TIP3   OH275699   4.110   5.471  12.027 -0.1609 -0.4761  0.1644
18095TIP3    H175700   4.198   5.489  11.994 -0.7690  0.0281 -1.2022
18095TIP3    H275701   4.093   5.541  12.090  0.5096 -0.7197  0.6224
18096TIP3   OH275702   4.777   4.688  14.352 -0.2837  0.3882  0.2987
18096TIP3    H175703   4.805   4.606  14.392  2.6052  2.1671  2.0553
18096TIP3    H275704   4.765   4.666  14.259  0.6760 -1.9507  0.6914
18097TIP3   OH275705   3.945   6.463   3.120  0.0203  0.3591  0.5168
18097TIP3    H175706   3.942   6.430   3.030  1.4162  0.2085  0.5124
18097TIP3    H275707   3.885   6.538   3.120  0.4840  0.7523 -0.7047
18098TIP3   OH275708   4.073   2.833   2.306  0.4021 -0.9049 -0.1794
18098TIP3    H175709   4.077   2.795   2.394 -0.1954  0.2749  0.3757
18098TIP3    H275710   4.010   2.905   2.314  1.1902 -0.0717 -1.3015
18099TIP3   OH275711   1.878   2.156  12.592 -0.3752 -0.0781 -0.0999
18099TIP3    H175712   1.938   2.229  12.610 -1.4266  0.9298 -0.5836
18099TIP3    H275713   1.817   2.158  12.666 -0.3996 -0.4812 -0.1124
18100TIP3   OH275714   5.320   1.891  16.935  0.1293  0.2276 -0.5739
18100TIP3    H175715   5.242   1.845  16.967 -0.6896  1.3010 -0.9724
18100TIP3    H275716   5.327   1.866  16.843  2.1478 -2.4037  0.2457
18101TIP3   OH275717   5.640   4.217  11.207  0.6773  0.4809  0.3480
18101TIP3    H175718   5.686   4.135  11.188 -0.2498 -0.0287  0.2687
18101TIP3    H275719   5.692   4.284  11.164  1.9351  0.0369  1.1624
18102TIP3   OH275720   5.423   5.538   2.502  0.1216 -0.6084  0.1223
18102TIP3    H175721   5.352   5.532   2.439 -2.1979 -0.7626  2.6890
18102TIP3    H275722   5.435   5.448   2.533 -0.4937 -0.1577  1.7315
18103TIP3   OH275723   3.591   0.649   3.047  0.4154 -0.2829 -0.3978
18103TIP3    H175724   3.512   0.634   3.099  0.7675  2.8665  1.1564
18103TIP3    H275725   3.575   0.732   3.002  2.1743 -0.4502 -1.3942
18104TIP3   OH275726   1.165   6.025  16.094 -0.4813 -0.4225 -0.1362
18104TIP3    H175727   1.257   6.048  16.108 -1.0008  0.3698  2.3396
18104TIP3    H275728   1.163   5.930  16.096  0.2746 -0.4407 -0.1136
18105TIP3   OH275729   2.959   6.741   4.843  0.0173 -0.4514 -0.3112
18105TIP3    H175730   2.973   6.716   4.752  2.7650  0.9094 -0.3294
18105TIP3    H275731   3.041   6.784   4.868 -2.2095  3.0059  1.4891
18106TIP3   OH275732   0.361   4.867   4.108 -0.1921  0.0064  0.5495
18106TIP3    H175733   0.364   4.879   4.013  0.8353  0.8452  0.6772
18106TIP3    H275734   0.394   4.779   4.122  1.2672  0.4799  0.2227
18107TIP3   OH275735   0.790   0.282  14.466  0.4112 -0.0849 -0.6511
18107TIP3    H175736   0.835   0.210  14.510 -1.5655 -0.5442  0.6792
18107TIP3    H275737   0.769   0.248  14.379 -0.7582 -1.2293  0.0617
18108TIP3   OH275738   2.585   4.655   0.381  0.1877 -0.1008 -0.7939
18108TIP3    H175739   2.518   4.667   0.314  0.8447 -1.0754 -1.6454
18108TIP3    H275740   2.661   4.702   0.347  0.2950  0.0253 -0.3802
18109TIP3   OH275741   4.445   1.820  13.021 -0.7404  0.3402 -0.5787
18109TIP3    H175742   4.366   1.867  12.996 -0.4483  0.6793 -0.8638
18109TIP3    H275743   4.498   1.886  13.066 -0.1245  0.4077 -1.3999
18110TIP3   OH275744   0.899   3.821  13.383 -0.3545 -0.3810 -0.1720
18110TIP3    H175745   0.831   3.883  13.357 -0.5780 -1.1252 -1.3788
18110TIP3    H275746   0.858   3.769  13.452 -1.0369 -0.8761 -0.9488
18111TIP3   OH275747   0.901   5.964   1.198  0.2985 -0.3964 -0.7282
18111TIP3    H175748   0.976   6.024   1.193 -0.4152  0.3102 -4.8911
18111TIP3    H275749   0.825   6.019   1.179 -0.6868 -2.0303 -1.6550
18112TIP3   OH275750   3.893   0.261  12.650 -0.0010  0.0244  0.0037
18112TIP3    H175751   3.919   0.337  12.598 -2.6776  1.8837  1.2998
18112TIP3    H275752   3.828   0.216  12.595 -0.2994  0.0883  0.3051
18113TIP3   OH275753   3.857   6.569   1.917 -0.6179  0.1459 -0.1518
18113TIP3    H175754   3.812   6.602   1.996 -1.9309 -2.4187  0.2210
18113TIP3    H275755   3.799   6.593   1.845  0.2261  1.8502 -0.2797
18114TIP3   OH275756   0.986   2.962  15.917  0.4528  0.3268  0.0176
18114TIP3    H175757   1.014   2.955  15.825 -0.1787  0.7170 -0.2130
18114TIP3    H275758   1.006   2.876  15.955 -0.7544 -0.3842 -0.9076
18115TIP3   OH275759   6.487   4.947   0.786  0.3182  0.1170  0.2284
18115TIP3    H175760   6.459   4.968   0.875 -0.3262  0.6226 -0.0999
18115TIP3    H275761   6.580   4.972   0.784  0.4828 -0.4221  0.9292
18116TIP3   OH275762   4.181   6.348   1.653 -0.0212  0.0709  0.0369
18116TIP3    H175763   4.208   6.406   1.724 -0.3581  0.4817 -0.1726
18116TIP3    H275764   4.085   6.355   1.651  0.0049  0.2418 -0.6176
18117TIP3   OH275765   5.422   5.434  13.244  0.1983  0.6876 -0.6633
18117TIP3    H175766   5.414   5.410  13.151 -2.0902  0.5282 -0.4615
18117TIP3    H275767   5.360   5.506  13.255  0.1156  0.3960  0.8445
18118TIP3   OH275768   6.375   5.814   5.181 -0.1769  0.2748  0.3890
18118TIP3    H175769   6.425   5.732   5.184 -2.3101 -1.1718 -1.6462
18118TIP3    H275770   6.420   5.867   5.115  0.1204 -0.0030  0.3649
18119TIP3   OH275771   2.087   0.704  13.273  0.0263 -0.0278 -0.2115
18119TIP3    H175772   2.068   0.771  13.338  1.7760  0.8598 -0.5807
18119TIP3    H275773   2.168   0.664  13.303 -0.7815 -1.6915 -0.2335
18120TIP3   OH275774   0.400   3.101   2.039  0.2109  0.3615 -0.7548
18120TIP3    H175775   0.360   3.052   1.967  0.5398 -0.1442 -0.5917
18120TIP3    H275776   0.433   3.181   1.998 -0.1626  0.3695 -1.0507
18121TIP3   OH275777   2.389   1.453   0.620 -0.0894 -0.1199  0.4794
18121TIP3    H175778   2.304   1.496   0.617 -0.3025 -0.6161 -0.6276
18121TIP3    H275779   2.439   1.503   0.686 -1.0210  0.5401  0.6894
18122TIP3   OH275780   4.435   4.841  15.425 -0.5365  0.0657 -0.4887
18122TIP3    H175781   4.462   4.906  15.490 -2.3651 -0.0480  0.4194
18122TIP3    H275782   4.473   4.759  15.456  2.3114  0.7373 -1.9735
18123TIP3   OH275783   2.970   6.042   2.133 -0.0999  0.2755 -0.1071
18123TIP3    H175784   2.988   5.954   2.098 -1.3531  0.1804 -0.5458
18123TIP3    H275785   3.004   6.102   2.066 -0.0297  0.1120 -0.2189
18124TIP3   OH275786   0.340   3.259   3.661  0.6615 -0.4642 -0.0678
18124TIP3    H175787   0.253   3.284   3.691  0.0769 -0.1993 -1.8927
18124TIP3    H275788   0.326   3.228   3.571  2.7138  1.5236 -1.1248
18125TIP3   OH275789   4.153   3.801   5.283 -0.4489 -0.0779 -0.0209
18125TIP3    H175790   4.232   3.822   5.333 -1.1782 -1.6859  1.8936
18125TIP3    H275791   4.090   3.772   5.350 -2.1418 -0.3147 -1.6825
18126TIP3   OH275792   4.415   2.973   5.743  0.0354  0.3924 -1.2297
18126TIP3    H175793   4.504   2.992   5.772  0.1030 -0.4234 -0.9149
18126TIP3    H275794   4.359   3.022   5.804  0.2553  0.8287 -1.3713
18127TIP3   OH275795   5.927   2.971  11.406 -0.1046  0.3781 -0.4292
18127TIP3    H175796   5.969   3.046  11.365  0.5667 -1.0337 -2.4184
18127TIP3    H275797   5.996   2.904  11.408 -0.4940  0.0268  1.9276
18128TIP3   OH275798   6.056   4.288   4.400 -0.4698 -0.0331  0.5505
18128TIP3    H175799   5.969   4.277   4.438 -0.1054  0.0257  1.4007
18128TIP3    H275800   6.042   4.275   4.306 -1.3758 -0.1312  0.6895
18129TIP3   OH275801   5.217   0.009   0.355 -0.1158  0.4435  0.2394
18129TIP3    H175802   5.156  -0.048   0.403  0.6490  0.2063  0.9604
18129TIP3    H275803   5.185   0.098   0.371 -1.0395  0.2376 -0.4891
18130TIP3   OH275804   4.487   0.204  11.990  0.0084  0.6190  0.1042
18130TIP3    H175805   4.486   0.115  11.955 -0.5058  1.1685 -1.3213
18130TIP3    H275806   4.468   0.193  12.083  0.4498 -0.8021  0.0377
18131TIP3   OH275807   6.036   0.125   5.093 -0.2332 -0.5206 -0.8277
18131TIP3    H175808   6.086   0.068   5.151  0.0445 -0.2118 -0.7664
18131TIP3    H275809   6.100   0.186   5.057 -0.4242 -0.6407 -1.3742
18132TIP3   OH275810   2.518   2.876  16.696 -0.3755 -0.5371 -0.1313
18132TIP3    H175811   2.531   2.948  16.634 -2.0925  2.1483  2.5087
18132TIP3    H275812   2.429   2.845  16.677 -0.8084  0.1238  0.8092
18133TIP3   OH275813   5.351   5.472  11.403  0.1909  0.4163  0.0969
18133TIP3    H175814   5.339   5.383  11.437 -0.7833 -0.5658 -2.6465
18133TIP3    H275815   5.276   5.484  11.344  1.0210  2.5867 -0.5378
18134TIP3   OH275816   0.246   6.338  12.215  0.4652 -0.4959 -0.4184
18134TIP3    H175817   0.243   6.290  12.133  0.2696  0.6517 -1.0942
18134TIP3    H275818   0.339   6.342  12.237  0.5093 -0.8877 -0.5262
18135TIP3   OH275819   3.095   5.104   2.097 -0.2071  0.0317  0.2665
18135TIP3    H175820   3.162   5.124   2.163 -1.6804 -0.0526  1.8425
18135TIP3    H275821   3.039   5.039   2.140  0.8975 -2.8197 -2.4482
18136TIP3   OH275822   3.200   4.855  13.799 -0.1918  0.4009  0.4884
18136TIP3    H175823   3.199   4.779  13.740 -0.4648  1.2128 -0.5531
18136TIP3    H275824   3.202   4.816  13.887  1.4443 -0.8122 -0.0556
18137TIP3   OH275825   3.282   2.269   1.687  0.0984  0.2903  0.3456
18137TIP3    H175826   3.323   2.322   1.754 -0.3158  0.2278  0.6506
18137TIP3    H275827   3.343   2.272   1.613  1.4614 -1.1622  1.3768
18138TIP3   OH275828   0.279   0.239   2.398  0.5497  0.1576 -0.3836
18138TIP3    H175829   0.252   0.217   2.486 -1.1623  2.0005 -0.3953
18138TIP3    H275830   0.274   0.157   2.349 -2.3345 -0.1501  0.3221
18139TIP3   OH275831   2.861   4.811   4.370  0.4317  0.2669  0.3153
18139TIP3    H175832   2.780   4.783   4.412  1.4076 -0.0781  2.0335
18139TIP3    H275833   2.836   4.886   4.316 -1.0482  0.0562  0.6941
18140TIP3   OH275834   5.456   1.242  16.276 -0.1681  0.1791  0.0410
18140TIP3    H175835   5.455   1.224  16.182 -2.8935  0.7474 -0.0780
18140TIP3    H275836   5.451   1.337  16.282 -0.2480  0.1328  0.7662
18141TIP3   OH275837   2.759   6.706   5.499 -0.3966 -0.4263 -0.3495
18141TIP3    H175838   2.793   6.670   5.417 -2.6245 -2.4664 -0.4477
18141TIP3    H275839   2.790   6.645   5.566 -1.1813 -0.5238 -0.0717
18142TIP3   OH275840   5.416   3.100  16.657 -0.1952  0.4877 -0.1933
18142TIP3    H175841   5.440   3.024  16.603 -1.0782 -1.0282  1.5179
18142TIP3    H275842   5.347   3.068  16.714 -1.1339  2.8163  0.0248
18143TIP3   OH275843   5.998   3.476   3.662  0.3547  0.2385 -0.1563
18143TIP3    H175844   6.002   3.391   3.705  0.4071  0.7987  0.9677
18143TIP3    H275845   5.971   3.537   3.731 -2.6951  0.6532 -1.6396
18144TIP3   OH275846   6.028   6.209   0.500  0.3504  0.2008 -0.2175
18144TIP3    H175847   5.962   6.147   0.530  2.9098 -2.5078  0.0379
18144TIP3    H275848   6.051   6.259   0.578 -1.6653  1.5014 -0.4057
18145TIP3   OH275849   6.578   0.290  13.696  0.6810  0.3522  0.3927
18145TIP3    H175850   6.571   0.296  13.601  2.0749  0.4426  0.2846
18145TIP3    H275851   6.594   0.380  13.724  0.8530  0.2356  0.6659
18146TIP3   OH275852   2.122   0.016   4.807  0.1940 -0.4806  0.0606
18146TIP3    H175853   2.213  -0.012   4.819 -0.2996 -1.4185  1.7262
18146TIP3    H275854   2.079  -0.005   4.890 -1.0993  1.7237 -0.0094
18147TIP3   OH275855   3.619   4.238  12.214  0.1771 -0.1364 -0.2940
18147TIP3    H175856   3.709   4.218  12.189  0.0685 -1.8297  0.6049
18147TIP3    H275857   3.597   4.172  12.279 -0.5309  2.3587  2.1035
18148TIP3   OH275858   4.706   3.683   0.842  0.2749  0.3141 -0.0285
18148TIP3    H175859   4.703   3.635   0.924 -0.5270 -1.6376 -1.1489
18148TIP3    H275860   4.776   3.641   0.792  1.4761  2.1734  0.0367
18149TIP3   OH275861   1.360   6.293  11.464  0.7344 -0.8491  0.9150
18149TIP3    H175862   1.348   6.384  11.491  2.3809 -0.0218 -1.0266
18149TIP3    H275863   1.455   6.285  11.451  0.3966 -2.2839 -0.8235
18150TIP3   OH275864   5.598   0.781   5.764 -0.2917  0.0746 -0.8616
18150TIP3    H175865   5.688   0.789   5.731 -0.1229  1.6624 -0.0292
18150TIP3    H275866   5.545   0.827   5.699 -0.1604  1.6508  0.1218
18151TIP3   OH275867   2.033   2.067  14.339  0.7345 -0.1462 -0.0158
18151TIP3    H175868   2.013   2.148  14.386 -2.0907 -1.6333  1.4941
18151TIP3    H275869   1.998   2.080  14.251 -2.0135 -0.5735  0.9493
18152TIP3   OH275870   2.858   4.475  16.741 -0.3698  0.1448  0.3751
18152TIP3    H175871   2.822   4.399  16.697  3.1552 -0.6549 -1.2947
18152TIP3    H275872   2.883   4.534  16.670  2.1171  0.3764  1.3867
18153TIP3   OH275873   2.193   3.648   6.423  0.1084 -0.1263 -0.3569
18153TIP3    H175874   2.160   3.679   6.508  0.4096 -0.7023 -0.0240
18153TIP3    H275875   2.206   3.728   6.372  3.4541  0.5639  1.4115
18154TIP3   OH275876   4.337   2.407  16.894  0.2657  0.7500 -0.0575
18154TIP3    H175877   4.417   2.404  16.946 -0.3537 -1.3922  0.7920
18154TIP3    H275878   4.272   2.447  16.952  0.5374  1.8792 -0.5191
18155TIP3   OH275879   3.571   0.330   2.641 -0.4911 -0.0967  0.2151
18155TIP3    H175880   3.654   0.288   2.618  0.3077  0.8032  1.3841
18155TIP3    H275881   3.555   0.392   2.569 -0.4001 -0.6294 -0.2627
18156TIP3   OH275882   2.697   6.149   2.093  0.5178  0.0384 -0.7423
18156TIP3    H175883   2.660   6.081   2.038  0.5981 -1.7200  1.3125
18156TIP3    H275884   2.762   6.104   2.148 -1.5378  1.1078  2.7769
18157TIP3   OH275885   0.206   4.340  17.173 -0.4251  0.0619  0.8032
18157TIP3    H175886   0.149   4.302  17.105 -0.8985 -0.3689  1.4304
18157TIP3    H275887   0.158   4.417  17.203  0.3974  0.9881 -0.2647
18158TIP3   OH275888   0.557   3.918   5.724 -0.0090  0.0453  0.1875
18158TIP3    H175889   0.541   3.853   5.655 -2.5169  1.0898 -0.2865
18158TIP3    H275890   0.596   3.869   5.795  0.3108 -1.5306 -1.0498
18159TIP3   OH275891   1.210   3.709   5.283 -0.1043  0.4084 -0.3588
18159TIP3    H175892   1.147   3.739   5.350  0.9248  2.3382 -0.2188
18159TIP3    H275893   1.247   3.629   5.320 -0.9268  0.4121  0.5195
18160TIP3   OH275894   0.472   5.638  14.601 -0.0500  0.3638 -0.3495
18160TIP3    H175895   0.435   5.722  14.629 -1.3060  0.1985 -1.4443
18160TIP3    H275896   0.551   5.662  14.553 -0.8655  0.9844 -1.4044
18161TIP3   OH275897   5.952   0.630   1.628 -0.1375  0.2901 -0.5838
18161TIP3    H175898   5.893   0.673   1.566  1.0159  1.1985 -1.0621
18161TIP3    H275899   5.965   0.694   1.698 -0.2480 -0.1654 -0.1434
18162TIP3   OH275900   0.791   2.103   5.516 -0.3625 -0.0009  0.0061
18162TIP3    H175901   0.768   2.033   5.576 -1.2701 -0.1672 -0.5283
18162TIP3    H275902   0.760   2.183   5.560  1.5066  0.1879  1.0460
18163TIP3   OH275903   5.568   1.992  15.990  0.5591  0.1706  0.1045
18163TIP3    H175904   5.646   1.963  15.943  0.9987  1.0794  0.2648
18163TIP3    H275905   5.518   2.041  15.925 -1.6455 -3.3695 -1.0219
18164TIP3   OH275906   0.743   3.010   2.536  0.0591 -0.2243 -0.0439
18164TIP3    H175907   0.675   3.015   2.468  0.7282  0.7674 -0.6553
18164TIP3    H275908   0.749   2.917   2.556 -0.7440 -0.4421 -0.7419
18165TIP3   OH275909   6.519   3.587   1.949 -0.3526  0.1436  0.0676
18165TIP3    H175910   6.526   3.492   1.955 -0.4543  0.1194 -0.2211
18165TIP3    H275911   6.464   3.612   2.023  0.7299  0.0967  0.9044
18166TIP3   OH275912   0.571   2.513  15.699 -0.3019 -0.3344 -0.4288
18166TIP3    H175913   0.643   2.503  15.761 -0.1423 -0.8279 -0.6918
18166TIP3    H275914   0.600   2.582  15.639 -0.3814  0.0167 -0.0630
18167TIP3   OH275915   5.169   6.114  14.604  0.1299 -0.1755  0.2031
18167TIP3    H175916   5.122   6.197  14.615  1.5567  0.6925 -0.1815
18167TIP3    H275917   5.144   6.084  14.517  0.5336  0.4648 -0.1451
18168TIP3   OH275918   1.382   2.029  15.408 -0.4218 -0.7671 -0.0070
18168TIP3    H175919   1.365   2.024  15.314 -0.7562 -2.4298  0.1197
18168TIP3    H275920   1.416   1.942  15.431 -0.6830 -0.5002  1.4715
18169TIP3   OH275921   4.243   4.223   1.274 -0.3229 -0.5191  0.0034
18169TIP3    H175922   4.211   4.309   1.299  1.5271 -0.7054  3.4835
18169TIP3    H275923   4.195   4.162   1.330 -0.1063 -1.5583 -0.9109
18170TIP3   OH275924   2.395   0.196   2.444  0.4919 -0.0755  0.1899
18170TIP3    H175925   2.471   0.142   2.466  1.0805  0.0255 -1.5709
18170TIP3    H275926   2.429   0.264   2.385 -0.3773  1.7945  1.7544
18171TIP3   OH275927   1.627   6.475   5.251  0.0453 -0.0992  0.4805
18171TIP3    H175928   1.569   6.487   5.326 -0.9087 -1.3458 -0.0242
18171TIP3    H275929   1.598   6.393   5.212  0.6686  0.4253 -1.1274
18172TIP3   OH275930   4.335   6.543  16.640  0.0390 -0.3597 -0.4094
18172TIP3    H175931   4.388   6.622  16.643 -0.6511  0.2314 -2.9819
18172TIP3    H275932   4.245   6.574  16.633 -0.2563 -1.3686 -1.2350
18173TIP3   OH275933   0.126   1.131  15.526  0.0872 -0.0372 -0.6613
18173TIP3    H175934   0.127   1.116  15.432  3.9357 -3.0070 -0.2378
18173TIP3    H275935   0.192   1.198  15.541  1.7628 -1.8503  0.2138
18174TIP3   OH275936   4.447   4.745  15.127 -0.4992  0.3158 -0.3373
18174TIP3    H175937   4.452   4.831  15.168  2.8147  0.4057 -0.7315
18174TIP3    H275938   4.412   4.762  15.040 -0.4184  1.1794 -0.2075
18175TIP3   OH275939   0.458   4.346   0.254  0.3706 -0.0423  0.1889
18175TIP3    H175940   0.400   4.416   0.223 -0.2493 -1.6356 -2.4119
18175TIP3    H275941   0.541   4.364   0.210  0.1995 -0.9317 -0.5086
18176TIP3   OH275942   1.358   5.418  11.312 -0.4888  0.4773  0.7590
18176TIP3    H175943   1.433   5.465  11.348 -0.5932  1.0294  0.2494
18176TIP3    H275944   1.323   5.475  11.244  0.0976 -0.8415 -0.6932
18177TIP3   OH275945   6.522   2.121  15.402  0.5960 -0.5381  0.0510
18177TIP3    H175946   6.594   2.088  15.349  2.4369  1.8425  0.9631
18177TIP3    H275947   6.462   2.162  15.340  0.7147 -1.2790 -0.5575
18178TIP3   OH275948   5.906   3.841   5.990 -0.1352 -0.0291 -0.2737
18178TIP3    H175949   5.875   3.751   5.988  0.6445 -0.2719 -1.3197
18178TIP3    H275950   5.860   3.884   5.918 -0.7792  0.5130  0.4448
18179TIP3   OH275951   2.409   4.749   0.156  0.4622 -0.0039 -0.0899
18179TIP3    H175952   2.320   4.752   0.123  0.6263  0.2702 -0.5178
18179TIP3    H275953   2.422   4.834   0.198  0.0766 -0.5517  1.1528
18180TIP3   OH275954   1.672   5.009   3.827  0.3809 -0.1082  0.2329
18180TIP3    H175955   1.739   5.033   3.763  0.1116 -0.0190 -0.0131
18180TIP3    H275956   1.589   5.020   3.781  0.2023 -0.3618  0.4954
18181TIP3   OH275957   2.077   1.018  16.069 -0.4754 -0.4715 -0.5842
18181TIP3    H175958   1.998   0.968  16.093  0.8430 -1.0973  2.7901
18181TIP3    H275959   2.138   1.000  16.140  1.6479  2.3959 -1.6218
18182TIP3   OH275960   6.190   4.047   4.241 -0.4971 -0.1224  0.2201
18182TIP3    H175961   6.236   4.033   4.158 -0.7894 -2.6875  0.4527
18182TIP3    H275962   6.102   4.074   4.215  0.4969  2.8259 -0.2410
18183TIP3   OH275963   0.023   3.804  13.439  0.2347  0.3503  0.2533
18183TIP3    H175964   0.002   3.819  13.347  0.1511 -1.6932 -0.0790
18183TIP3    H275965   0.093   3.866  13.458  0.0192  1.0220 -1.0860
18184TIP3   OH275966   0.752   1.723  17.175 -0.6424  0.0849  0.2104
18184TIP3    H175967   0.825   1.679  17.131 -0.1083  0.8238  0.3335
18184TIP3    H275968   0.720   1.659  17.238  0.2774 -0.0373  0.5602
18185TIP3   OH275969   1.988   1.493   2.845 -0.2392  0.5197 -0.1742
18185TIP3    H175970   1.952   1.507   2.932  2.2348  2.6143  0.5817
18185TIP3    H275971   2.057   1.559   2.836  0.3495 -0.4001 -3.2669
18186TIP3   OH275972   2.853   5.333   2.078 -0.4190 -0.1661  0.3394
18186TIP3    H175973   2.935   5.382   2.079 -0.4204 -0.1349 -0.6875
18186TIP3    H275974   2.827   5.327   2.170 -0.0903  1.2247  0.5323
18187TIP3   OH275975   4.547   0.953   1.516  0.3376  0.1060  0.0134
18187TIP3    H175976   4.531   0.944   1.422 -1.3011 -1.9857  0.4579
18187TIP3    H275977   4.591   0.872   1.541 -0.3853  0.0854  1.2719
18188TIP3   OH275978   0.578   1.871   6.551  0.0960 -0.4727 -0.5241
18188TIP3    H175979   0.484   1.874   6.534 -0.2017 -2.0476  0.7655
18188TIP3    H275980   0.611   1.953   6.514 -2.0665  1.0064  0.7199
18189TIP3   OH275981   3.055   0.372   0.169  0.3896  0.0032 -0.0439
18189TIP3    H175982   3.104   0.302   0.125  0.7275  1.5612 -2.2091
18189TIP3    H275983   3.122   0.423   0.214  0.5970  1.0733 -1.5201
18190TIP3   OH275984   6.112   1.749   3.761 -0.6126 -0.0758 -0.2481
18190TIP3    H175985   6.039   1.797   3.800  0.4173  0.7423  0.6871
18190TIP3    H275986   6.187   1.768   3.817  0.6024  0.0775 -1.8782
18191TIP3   OH275987   3.805   1.368   0.303  0.4031 -0.0628 -0.1554
18191TIP3    H175988   3.781   1.327   0.220 -1.8250  1.4050 -0.2943
18191TIP3    H275989   3.860   1.442   0.278  1.3329 -0.7425 -0.1621
18192TIP3   OH275990   2.278   5.942   3.948  0.4631  0.5079  0.0037
18192TIP3    H175991   2.293   6.021   3.896 -1.5103 -0.3656 -1.9915
18192TIP3    H275992   2.190   5.954   3.985  0.7904 -0.0700  0.9897
18193TIP3   OH275993   0.784   1.681   1.066  0.1628  0.2073 -0.2908
18193TIP3    H175994   0.708   1.630   1.037  0.0376  0.9293 -1.2738
18193TIP3    H275995   0.755   1.772   1.060  1.1442  0.4946 -0.8105
18194TIP3   OH275996   2.843   2.702   2.785  0.9392  0.1612  0.2928
18194TIP3    H175997   2.873   2.793   2.783 -0.8842  0.7699 -0.7798
18194TIP3    H275998   2.825   2.684   2.878  1.1289  0.9434  0.4800
18195TIP3   OH275999   4.815   5.055  13.725 -0.3241  0.3154  0.5459
18195TIP3    H176000   4.740   5.046  13.666 -0.6033 -0.6464  1.0293
18195TIP3    H276001   4.864   4.973  13.713  0.3642  0.7158  0.6230
18196TIP3   OH276002   2.690   3.775  16.166 -0.2790  0.0400  0.5737
18196TIP3    H176003   2.709   3.789  16.073  0.1176 -2.0116  0.3299
18196TIP3    H276004   2.596   3.758  16.168 -0.5179  1.2872  0.7197
18197TIP3   OH276005   4.488   6.078   5.622 -0.1076 -0.4153 -0.2095
18197TIP3    H176006   4.461   6.127   5.700 -1.6020 -0.0055 -0.9628
18197TIP3    H276007   4.547   6.138   5.576  1.8008 -1.1471  1.2241
18198TIP3   OH276008   2.201   1.194   1.865 -0.2606 -0.1605 -0.0439
18198TIP3    H176009   2.174   1.112   1.823 -1.6616  0.4459 -0.3680
18198TIP3    H276010   2.247   1.241   1.796 -0.0691 -0.3810 -0.0670
18199TIP3   OH276011   0.871   6.618   3.239  0.0554 -0.2373  0.7159
18199TIP3    H176012   0.936   6.565   3.191 -1.0886  1.4423 -2.8751
18199TIP3    H276013   0.911   6.705   3.244 -0.9162  0.2127  0.6247
18200TIP3   OH276014   3.796   2.624  16.654  0.2338  0.1100  0.6976
18200TIP3    H176015   3.840   2.628  16.739 -1.3438  3.3089  1.4314
18200TIP3    H276016   3.706   2.651  16.672 -0.6895 -1.2532 -1.6547
18201TIP3   OH276017   6.737   4.088  15.098 -0.4725  0.0719  0.2966
18201TIP3    H176018   6.665   4.140  15.135  0.7260  0.3523  2.2995
18201TIP3    H276019   6.746   4.014  15.157 -0.2914 -0.9422 -0.9764
18202TIP3   OH276020   5.979   6.056   0.208 -0.0719 -0.3739 -0.1776
18202TIP3    H176021   6.012   6.103   0.285 -0.7347 -0.3227  0.0803
18202TIP3    H276022   5.999   5.964   0.225  1.2696 -0.1889 -0.7035
18203TIP3   OH276023   5.558   2.205  13.255 -0.5440  0.2128 -0.3049
18203TIP3    H176024   5.603   2.243  13.330  0.5895 -0.3932 -0.6602
18203TIP3    H276025   5.623   2.147  13.215 -1.6747 -0.7460 -0.7894
18204TIP3   OH276026   1.018   6.309  15.336  0.1068 -0.0494 -0.1775
18204TIP3    H176027   1.062   6.394  15.328 -0.8309  0.5677  0.9342
18204TIP3    H276028   0.997   6.302  15.429 -2.3050 -0.2011 -0.6947
18205TIP3   OH276029   1.224   1.542   2.755 -0.8293  0.0654 -0.2801
18205TIP3    H176030   1.250   1.471   2.814 -1.4659 -0.1795 -0.2960
18205TIP3    H276031   1.303   1.597   2.748 -0.5634 -0.2340  0.3170
18206TIP3   OH276032   2.187   2.941  14.086 -0.0253  0.8321  0.6825
18206TIP3    H176033   2.243   2.974  14.016  0.9589  0.8409  1.4684
18206TIP3    H276034   2.248   2.908  14.152 -0.9488  0.7295  1.4887
18207TIP3   OH276035   2.552   3.649   4.194  0.3278  0.3043 -0.8426
18207TIP3    H176036   2.535   3.606   4.110  0.1743  1.0322 -1.1860
18207TIP3    H276037   2.503   3.731   4.189  0.6322  0.5280 -0.1934
18208TIP3   OH276038   3.278   3.644  12.821  0.6896 -0.2412 -0.3171
18208TIP3    H176039   3.304   3.722  12.772  0.7077 -0.1085 -0.0959
18208TIP3    H276040   3.211   3.604  12.767 -0.6324  0.9177  0.4337
18209TIP3   OH276041   1.522   0.117  16.024  0.2112 -0.2479 -0.1418
18209TIP3    H176042   1.486   0.106  15.936  0.4819  0.3450 -0.3229
18209TIP3    H276043   1.577   0.194  16.018 -0.0026 -0.0334  0.6222
18210TIP3   OH276044   2.202   3.588   6.003  0.1651 -0.2556  0.1074
18210TIP3    H176045   2.188   3.682   5.993  0.3437 -0.2801 -0.3770
18210TIP3    H276046   2.183   3.551   5.917 -2.6185 -1.0153  0.9878
18211TIP3   OH276047   6.110   0.797  13.893  0.5961 -0.1471  0.0627
18211TIP3    H176048   6.102   0.884  13.852  0.5434  0.4479  1.3270
18211TIP3    H276049   6.095   0.813  13.986  2.5773 -1.2097  0.5903
18212TIP3   OH276050   3.493   2.776   4.060  0.0256 -0.6097  0.2243
18212TIP3    H176051   3.509   2.693   4.014  1.0921 -0.0420 -0.4601
18212TIP3    H276052   3.581   2.810   4.077 -0.4101  0.5712  0.1460
18213TIP3   OH276053   1.941   2.800   4.669  0.0293  0.2346 -0.3255
18213TIP3    H176054   1.999   2.748   4.613  0.5951  0.5061 -0.0056
18213TIP3    H276055   1.956   2.891   4.641  0.8227  0.4436  0.6892
18214TIP3   OH276056   1.978   1.447  14.868  0.2143  0.1380  0.2206
18214TIP3    H176057   1.908   1.492  14.916  0.9917  0.9949  0.5736
18214TIP3    H276058   2.059   1.475  14.911  0.7168 -1.8372  0.6226
18215TIP3   OH276059   6.128   3.897   2.650  0.0488 -0.2363  0.1544
18215TIP3    H176060   6.075   3.943   2.716 -0.6972 -0.6530 -0.1447
18215TIP3    H276061   6.217   3.902   2.683 -0.4251 -1.1983  1.6425
18216TIP3   OH276062   0.689   2.712   2.596  0.2653  0.1258 -1.1860
18216TIP3    H176063   0.648   2.694   2.680  0.8736  0.7585 -0.7430
18216TIP3    H276064   0.750   2.639   2.583 -1.2559 -1.0119 -2.0258
18217TIP3   OH276065   1.737   3.342  16.951 -0.2305  0.0759  0.0912
18217TIP3    H176066   1.705   3.417  16.900 -0.3362 -0.6999 -1.0080
18217TIP3    H276067   1.662   3.283  16.957 -0.0240 -0.1385  0.5810
18218TIP3   OH276068   4.467   5.187   5.747  0.7566  0.0237 -0.1530
18218TIP3    H176069   4.415   5.138   5.684  0.8564  0.1435 -0.3325
18218TIP3    H276070   4.520   5.121   5.792 -0.4576 -0.2391  0.9106
18219TIP3   OH276071   6.427   6.593  11.366  0.6917  0.3251 -0.3486
18219TIP3    H176072   6.466   6.508  11.386  1.1738  1.1931  2.6288
18219TIP3    H276073   6.500   6.655  11.369 -0.2301  1.4042  1.6017
18220TIP3   OH276074   0.887   1.323   3.295 -0.7868 -0.6078 -0.2939
18220TIP3    H176075   0.948   1.250   3.303 -1.9611 -1.5198  0.3990
18220TIP3    H276076   0.922   1.390   3.353 -0.9942 -1.5127  0.8791
18221TIP3   OH276077   4.875   3.159   5.935 -0.3959 -0.0818  0.2058
18221TIP3    H176078   4.923   3.240   5.919 -0.5490 -0.2149 -0.9803
18221TIP3    H276079   4.942   3.096   5.963 -0.4594  0.7795  2.4348
18222TIP3   OH276080   6.701   2.439   5.114 -0.3130  0.0130  0.4580
18222TIP3    H176081   6.731   2.529   5.103  0.7377 -0.3806  0.0813
18222TIP3    H276082   6.675   2.412   5.025  0.1325 -0.3227  0.4284
18223TIP3   OH276083   0.912   0.229   4.414 -0.6204 -0.0626  0.2618
18223TIP3    H176084   0.911   0.232   4.318  1.0657  1.6200  0.2685
18223TIP3    H276085   0.859   0.152   4.436 -1.1146 -0.4132 -2.0091
18224TIP3   OH276086   3.496   2.576   3.649 -0.0750  0.2741  0.0095
18224TIP3    H176087   3.463   2.486   3.655  0.5802 -0.0069 -0.5997
18224TIP3    H276088   3.513   2.589   3.556  3.4429 -0.2739  0.5073
18225TIP3   OH276089   2.611   0.701  13.556 -0.1661 -0.1923 -0.0798
18225TIP3    H176090   2.568   0.717  13.472 -2.0004 -0.8679  0.7059
18225TIP3    H276091   2.648   0.614  13.548 -0.9388 -0.5373  0.0435
18226TIP3   OH276092   5.167   5.287   5.535  0.4946 -0.4150  0.1317
18226TIP3    H176093   5.144   5.258   5.446 -0.2854  0.7626 -0.0632
18226TIP3    H276094   5.262   5.280   5.539  0.5064 -0.7642 -0.6987
18227TIP3   OH276095   5.296   5.950  17.058 -0.1597  0.3116 -0.3960
18227TIP3    H176096   5.215   5.941  17.109 -1.0025 -1.9025 -2.0461
18227TIP3    H276097   5.267   5.985  16.973  0.5753 -0.7035 -1.0749
18228TIP3   OH276098   3.856   2.900  16.901  0.1577  0.6835 -0.1449
18228TIP3    H176099   3.919   2.931  16.966 -2.1098  1.8266  1.5654
18228TIP3    H276100   3.788   2.856  16.952  1.0108 -3.1816 -2.1863
18229TIP3   OH276101   1.421   1.658  11.592 -0.3246  0.3604 -0.3941
18229TIP3    H176102   1.478   1.619  11.526  0.3600  0.5566  0.0835
18229TIP3    H276103   1.479   1.706  11.650 -1.0611  1.2365 -0.3701
18230TIP3   OH276104   1.456   6.528  15.662 -0.0085 -0.0969 -0.1825
18230TIP3    H176105   1.528   6.489  15.613 -0.6126 -1.5584  0.0672
18230TIP3    H276106   1.405   6.453  15.693 -2.1921  0.9319 -1.1974
18231TIP3   OH276107   1.084   5.616   3.420  0.0787  0.2502  0.6757
18231TIP3    H176108   1.035   5.689   3.458 -0.0096  1.1713 -1.1628
18231TIP3    H276109   1.018   5.565   3.372  0.4838  0.1037  0.2692
18232TIP3   OH276110   3.633   4.310  16.343 -0.1104 -0.7951  0.4973
18232TIP3    H176111   3.578   4.238  16.312  1.1022 -0.9559 -1.3778
18232TIP3    H276112   3.571   4.379  16.367 -1.2059 -1.8079  0.6139
18233TIP3   OH276113   5.268   4.227  15.116  0.4584 -0.0497  0.2383
18233TIP3    H176114   5.273   4.157  15.182 -1.6059 -2.1356 -1.7331
18233TIP3    H276115   5.328   4.199  15.047 -1.2506 -0.4864 -1.0942
18234TIP3   OH276116   1.438   2.634   5.682 -0.5840  0.0156 -0.1916
18234TIP3    H176117   1.454   2.608   5.591 -1.0522 -0.7610 -0.0603
18234TIP3    H276118   1.443   2.552   5.731 -1.3904  0.2860  0.3419
18235TIP3   OH276119   2.544   5.746  14.087 -0.4674  0.3460  0.0491
18235TIP3    H176120   2.529   5.768  13.995 -1.1114 -0.5809 -0.0723
18235TIP3    H276121   2.459   5.715  14.119 -0.2403  0.6309  0.9440
18236TIP3   OH276122   2.721   0.529   0.368 -0.3526 -0.1250  0.5126
18236TIP3    H176123   2.719   0.479   0.287 -1.0079 -1.5038  1.3464
18236TIP3    H276124   2.814   0.531   0.393 -0.1335  0.4188 -0.3263
18237TIP3   OH276125   1.665   0.789  16.846 -0.2640  0.4238 -0.5637
18237TIP3    H176126   1.667   0.869  16.898 -1.1912 -0.6340  1.1431
18237TIP3    H276127   1.750   0.787  16.803  1.2531  0.4513  2.2910
18238TIP3   OH276128   3.153   6.704   5.192  0.2734  0.5064 -0.2404
18238TIP3    H176129   3.153   6.795   5.220  2.2310  1.0413 -1.8912
18238TIP3    H276130   3.110   6.704   5.107 -0.6652 -0.2886  0.2202
18239TIP3   OH276131   0.697   3.177   3.354  0.7890  0.7206  0.1531
18239TIP3    H176132   0.744   3.254   3.387  0.5387  0.8339  0.2524
18239TIP3    H276133   0.639   3.213   3.287  0.3008  0.6933  0.5584
18240TIP3   OH276134   6.183   6.599   6.335 -0.9010 -0.0744  0.4810
18240TIP3    H176135   6.171   6.692   6.354  2.1598  0.1516  1.4637
18240TIP3    H276136   6.191   6.557   6.421 -1.2092 -1.0924  0.0215
18241TIP3   OH276137   5.443   1.287   3.724  0.8153  0.2124  0.0807
18241TIP3    H176138   5.383   1.276   3.797  1.7783 -0.4826  0.7840
18241TIP3    H276139   5.511   1.346   3.757 -0.2295  2.1875 -1.1806
18242TIP3   OH276140   1.169   3.180  14.526 -0.0019  0.0487  0.0852
18242TIP3    H176141   1.109   3.251  14.549  1.7582  1.9174 -0.8523
18242TIP3    H276142   1.130   3.139  14.449 -1.3269 -0.3866  0.9707
18243TIP3   OH276143   0.329   1.415  13.908  0.2727  0.0827 -0.0396
18243TIP3    H176144   0.371   1.345  13.857 -2.7650 -1.1711 -0.8977
18243TIP3    H276145   0.268   1.370  13.965 -0.8854  1.9556  0.2344
18244TIP3   OH276146   2.528   6.046   5.368  0.0377  0.3290  0.0076
18244TIP3    H176147   2.444   6.085   5.347 -0.8622 -0.1332  2.5921
18244TIP3    H276148   2.515   5.952   5.352  0.7908  0.5003 -1.7627
18245TIP3   OH276149   2.272   4.901  12.887 -0.5204 -0.8236  0.2254
18245TIP3    H176150   2.245   4.817  12.924 -0.8543 -1.4373 -1.3609
18245TIP3    H276151   2.194   4.933  12.842  0.1482 -0.5352 -0.7344
18246TIP3   OH276152   0.007   6.322   4.667 -0.3804 -0.5010 -0.7300
18246TIP3    H176153   0.004   6.229   4.645 -0.8736 -1.1862  2.0051
18246TIP3    H276154  -0.085   6.349   4.666 -0.3144 -0.2768 -0.6791
18247TIP3   OH276155   1.700   1.631   4.025 -0.1422  0.2989 -0.8768
18247TIP3    H176156   1.720   1.694   3.955 -1.0114  1.4945 -0.0771
18247TIP3    H276157   1.626   1.671   4.072 -0.0980 -0.8859  0.2089
18248TIP3   OH276158   0.693   3.130  13.045 -0.4658  0.2956  0.3914
18248TIP3    H176159   0.707   3.073  12.970 -1.1733  1.2982 -0.5314
18248TIP3    H276160   0.674   3.071  13.117  1.3116 -0.7290  0.0417
18249TIP3   OH276161   0.417   5.712  17.017  0.3576 -0.1668 -0.4582
18249TIP3    H176162   0.368   5.649  16.965 -1.6864  1.7382 -0.9250
18249TIP3    H276163   0.491   5.737  16.962  0.5534 -1.3078 -0.7199
18250TIP3   OH276164   5.150   4.586  13.802  0.5310 -0.2109 -0.0307
18250TIP3    H176165   5.138   4.519  13.869  2.7163 -1.2820 -0.6343
18250TIP3    H276166   5.211   4.648  13.841 -0.4362  0.7215  0.0183
18251TIP3   OH276167   3.112   1.781   1.364 -0.2487  0.3835  0.0835
18251TIP3    H176168   3.190   1.793   1.417  0.3646 -0.4096 -0.6266
18251TIP3    H276169   3.080   1.870   1.348 -0.6313  0.6156  2.0339
18252TIP3   OH276170   3.745   0.197   2.057  0.6488 -0.5660 -0.1284
18252TIP3    H176171   3.769   0.187   1.965 -1.3412 -1.7516 -0.5627
18252TIP3    H276172   3.677   0.265   2.057 -0.1272 -1.3326  0.3140
18253TIP3   OH276173   6.729   2.198  16.836  0.2383  0.3010 -0.3571
18253TIP3    H176174   6.642   2.202  16.877  0.6994 -0.9002  0.7773
18253TIP3    H276175   6.713   2.218  16.744 -1.4965 -1.5941 -0.5129
18254TIP3   OH276176   0.605   2.659   2.842  0.6881  0.6963 -0.0782
18254TIP3    H176177   0.580   2.713   2.917  3.9804  1.0212  0.8555
18254TIP3    H276178   0.609   2.570   2.877 -1.0196  0.3728 -0.6899
18255TIP3   OH276179   5.121   3.209  13.473 -0.2706 -0.8394  0.2017
18255TIP3    H176180   5.122   3.296  13.514  2.2857 -1.2471  1.0686
18255TIP3    H276181   5.076   3.224  13.390  2.8244  2.0599 -1.0970
18256TIP3   OH276182   6.699   5.573  11.974  0.2733 -0.1011  0.4816
18256TIP3    H176183   6.679   5.487  12.011  0.0543  0.2360  1.1414
18256TIP3    H276184   6.614   5.606  11.943  0.1447  0.4095  1.3575
18257TIP3   OH276185   0.549   6.576   6.714 -0.0463 -0.2527  0.2078
18257TIP3    H176186   0.625   6.614   6.759  1.9074 -0.1380 -2.9903
18257TIP3    H276187   0.552   6.483   6.737  1.1586 -0.2672  0.0541
18258TIP3   OH276188   6.487   4.619   0.820  0.0881  0.2187 -0.4425
18258TIP3    H176189   6.529   4.533   0.822  0.7465  0.5658  1.4202
18258TIP3    H276190   6.547   4.676   0.868 -0.3807  1.7239 -1.5869
18259TIP3   OH276191   3.465   2.536   0.698  0.0131  0.2053  0.5597
18259TIP3    H176192   3.536   2.564   0.641 -0.4513  0.6090  0.1753
18259TIP3    H276193   3.431   2.617   0.736  1.4467 -0.1712  2.7847
18260TIP3   OH276194   5.730   3.884   4.150 -0.2397  0.1021 -0.0961
18260TIP3    H176195   5.667   3.876   4.221 -1.4887  1.4995 -1.0297
18260TIP3    H276196   5.678   3.872   4.070  0.7211  0.9460 -0.8645
18261TIP3   OH276197   0.599   2.412   4.165  0.0297  0.2966  0.1919
18261TIP3    H176198   0.684   2.423   4.207  0.1123 -0.5952  0.2561
18261TIP3    H276199   0.556   2.498   4.176  1.3577  1.1113 -0.8509
18262TIP3   OH276200   1.092   3.594  15.642  0.5743  0.0045 -0.2724
18262TIP3    H176201   1.004   3.570  15.614  1.5166 -2.9654 -0.9097
18262TIP3    H276202   1.103   3.549  15.726  0.6132  2.4210  1.0672
18263TIP3   OH276203   5.539   0.438   2.492  0.6373  0.4496 -0.1294
18263TIP3    H176204   5.531   0.532   2.506  1.0344  0.7287 -1.7455
18263TIP3    H276205   5.451   0.404   2.503  0.5725  0.9390  0.9363
18264TIP3   OH276206   4.112   1.180   3.005 -0.2266  0.2640  0.3597
18264TIP3    H176207   4.200   1.171   2.969 -0.5227 -1.2576 -0.0062
18264TIP3    H276208   4.102   1.274   3.021  1.8605  0.3265  1.4346
18265TIP3   OH276209   3.401   1.446   4.595 -0.0754  0.2311  0.1926
18265TIP3    H176210   3.401   1.355   4.566  2.0700  0.8191 -1.7719
18265TIP3    H276211   3.468   1.449   4.664 -1.7608 -0.1212  1.9012
18266TIP3   OH276212   4.033   0.457  12.487  0.2691 -0.9041  0.2397
18266TIP3    H176213   4.126   0.437  12.496  0.6399 -0.3245 -1.9849
18266TIP3    H276214   4.031   0.536  12.434 -1.5373 -1.5172 -0.6284
18267TIP3   OH276215   1.183   0.428  16.979 -0.3945  0.2839 -0.4635
18267TIP3    H176216   1.242   0.405  16.907 -0.7746 -0.6541 -0.4818
18267TIP3    H276217   1.233   0.407  17.058 -1.7731 -3.3236 -0.4890
18268TIP3   OH276218   6.168   1.926  12.133  0.1492 -0.0373  0.5388
18268TIP3    H176219   6.196   1.835  12.126  0.2457  0.0498 -0.2748
18268TIP3    H276220   6.212   1.970  12.060 -0.9127  0.3970  0.1475
18269TIP3   OH276221   4.910   0.764  14.169  0.0741  0.1691  0.2585
18269TIP3    H176222   4.954   0.832  14.221 -0.0470  0.6223 -0.2258
18269TIP3    H276223   4.822   0.758  14.207 -0.1432  0.7755 -0.1367
18270TIP3   OH276224   5.134   2.157  15.861  0.5813 -0.0802  0.4645
18270TIP3    H176225   5.140   2.225  15.794 -0.6826  0.7400  1.1703
18270TIP3    H276226   5.155   2.201  15.943 -1.9175 -0.1099  1.1576
18271TIP3   OH276227   3.257   1.552  16.367  0.3201 -0.0545 -0.1782
18271TIP3    H176228   3.221   1.464  16.355  0.0250  0.0246  0.1360
18271TIP3    H276229   3.188   1.611  16.337  0.1058  0.1009  0.6294
18272TIP3   OH276230   6.708   0.490   3.711  0.6148  0.1061 -0.0535
18272TIP3    H176231   6.669   0.570   3.677  1.3372  0.5973  0.2664
18272TIP3    H276232   6.781   0.520   3.765  0.8254 -0.7621  0.1472
18273TIP3   OH276233   2.075   1.606  15.902  0.4648 -0.0389 -0.0601
18273TIP3    H176234   2.109   1.527  15.944  1.5361  0.6608  0.4214
18273TIP3    H276235   2.039   1.576  15.818 -0.9611 -1.3348  0.9837
18274TIP3   OH276236   3.016   5.647  13.323 -0.0147 -0.3429  0.4440
18274TIP3    H176237   2.949   5.610  13.380  0.8382 -2.2663  0.2364
18274TIP3    H276238   3.000   5.741  13.325 -3.0793 -0.8140 -0.0716
18275TIP3   OH276239   2.078   1.159   4.826 -0.2124  0.3684 -0.2189
18275TIP3    H176240   2.047   1.087   4.771 -0.8677  0.6154 -0.1744
18275TIP3    H276241   2.141   1.119   4.885  1.5643  0.3285 -2.0521
18276TIP3   OH276242   4.245   1.530   4.221  0.0554  0.6939 -0.2808
18276TIP3    H176243   4.309   1.526   4.293 -2.6568 -0.7473  2.1494
18276TIP3    H276244   4.249   1.443   4.181 -0.0857  0.7461 -0.4071
18277TIP3   OH276245   4.910   0.449  15.202 -0.2696  0.6431  0.6755
18277TIP3    H176246   5.002   0.430  15.187 -0.4476  0.6051 -0.4066
18277TIP3    H276247   4.878   0.374  15.253  0.4067  0.8988  1.4893
18278TIP3   OH276248   6.120   5.467   1.184  0.5898  0.2270  0.2768
18278TIP3    H176249   6.119   5.385   1.234  2.4730  0.2100  0.3051
18278TIP3    H276250   6.180   5.524   1.232  0.6183  1.0215 -0.6870
18279TIP3   OH276251   3.352   1.657  11.352 -0.2649  0.1706 -0.0399
18279TIP3    H176252   3.384   1.569  11.370 -2.3575 -0.5076  0.4832
18279TIP3    H276253   3.348   1.661  11.256  0.3934 -0.0977 -0.0814
18280TIP3   OH276254   2.352   5.582   0.485 -0.3203 -0.5209  0.4654
18280TIP3    H176255   2.383   5.657   0.435  0.4237  0.0051  1.6895
18280TIP3    H276256   2.390   5.506   0.441  0.3951 -0.0637  0.2935
18281TIP3   OH276257   2.812   6.538   4.978 -0.1235  0.2529  0.2387
18281TIP3    H176258   2.880   6.604   4.973  0.4951 -0.4072 -0.0638
18281TIP3    H276259   2.778   6.545   5.068 -0.8745  1.7720 -0.1529
18282TIP3   OH276260   6.353   5.209   0.309 -0.2380 -0.3022  0.3217
18282TIP3    H176261   6.372   5.119   0.339 -0.9533 -0.8895 -0.9572
18282TIP3    H276262   6.425   5.261   0.345  2.4744 -2.0638 -2.2500
18283TIP3   OH276263   5.475   2.247  14.182  0.5211  0.0285 -0.5279
18283TIP3    H176264   5.396   2.231  14.130 -0.0414 -0.9421  0.6070
18283TIP3    H276265   5.532   2.173  14.164 -0.0615 -0.7944  0.9381
18284TIP3   OH276266   1.113   2.770   4.010  0.3967  0.3488 -0.0767
18284TIP3    H176267   1.115   2.809   3.922 -0.8137  2.0991  0.6676
18284TIP3    H276268   1.206   2.761   4.033  0.7188  0.5697 -1.2307
18285TIP3   OH276269   1.638   1.698   1.600 -0.5794 -0.5075 -0.5723
18285TIP3    H176270   1.595   1.643   1.535 -1.3017 -0.6417  0.0047
18285TIP3    H276271   1.641   1.645   1.679  0.4898 -0.4231 -0.5525
18286TIP3   OH276272   5.477   2.289  16.258 -0.1189  0.3095  0.0569
18286TIP3    H176273   5.423   2.264  16.332 -1.1699  0.8336 -0.5065
18286TIP3    H276274   5.448   2.378  16.237  1.2460  0.7534 -0.0121
18287TIP3   OH276275   1.194   0.550  13.207 -0.0140  0.3599  0.2575
18287TIP3    H176276   1.281   0.519  13.233  0.1288  0.7760  0.2772
18287TIP3    H276277   1.190   0.640  13.239  0.2636  0.9804 -1.3935
18288TIP3   OH276278   5.320   1.977   3.078 -0.2487  0.5751 -0.1349
18288TIP3    H176279   5.255   1.908   3.087  1.4013 -1.1596 -1.2835
18288TIP3    H276280   5.358   1.963   2.991 -0.9522  3.8780 -1.0541
18289TIP3   OH276281   6.739   6.518  16.052  0.3623  0.2769 -0.0440
18289TIP3    H176282   6.688   6.461  16.110  0.8605  2.0547  2.2434
18289TIP3    H276283   6.803   6.559  16.110  0.8166  2.2130 -1.8664
18290TIP3   OH276284   2.154   0.011   5.332  0.4777  0.6192 -0.0919
18290TIP3    H176285   2.142   0.101   5.361  0.8217  0.7418 -0.3257
18290TIP3    H276286   2.249  -0.003   5.336  0.3114 -0.2313  1.4566
18291TIP3   OH276287   3.174   3.049  11.927 -0.3257 -0.3911  0.4702
18291TIP3    H176288   3.164   2.955  11.911  1.0905 -0.6278  0.8353
18291TIP3    H276289   3.115   3.067  12.000 -2.0277 -0.5997 -0.8426
18292TIP3   OH276290   0.332   0.635  12.025  0.2529  0.2703 -0.6024
18292TIP3    H176291   0.381   0.678  12.094 -0.6842  0.7106 -0.1965
18292TIP3    H276292   0.255   0.599  12.069  0.6130 -1.0879 -1.0889
18293TIP3   OH276293   4.241   5.575  15.819  0.3095 -1.0055  0.3963
18293TIP3    H176294   4.302   5.572  15.892  0.9252 -0.0609 -0.0712
18293TIP3    H276295   4.242   5.666  15.790 -0.3088 -1.2632 -0.4733
18294TIP3   OH276296   4.278   2.552  12.604 -0.0693 -0.4163  0.5507
18294TIP3    H176297   4.226   2.472  12.608  0.1408 -0.6188 -0.5754
18294TIP3    H276298   4.299   2.563  12.511  2.0066 -0.4229  0.9784
18295TIP3   OH276299   4.857   3.336  11.147 -0.0005  0.3317  0.0219
18295TIP3    H176300   4.906   3.296  11.075  1.1594 -0.8423  1.4150
18295TIP3    H276301   4.787   3.274  11.166  0.7485 -0.2208  1.0371
18296TIP3   OH276302   0.123   5.208   4.407 -0.2025  0.2783  0.4077
18296TIP3    H176303   0.077   5.258   4.340  1.2583 -1.3057 -1.8097
18296TIP3    H276304   0.055   5.184   4.470 -1.4095  2.6315  0.0537
18297TIP3   OH276305   0.369   3.506  12.810 -0.6528 -0.0965  0.9129
18297TIP3    H176306   0.454   3.522  12.849  0.0571  0.1188 -0.6965
18297TIP3    H276307   0.321   3.457  12.877  0.4132  0.5464  2.1728
18298TIP3   OH276308   2.864   1.148  11.662 -0.1025 -0.1418  0.4294
18298TIP3    H176309   2.948   1.193  11.654 -0.6558  1.0813  1.3038
18298TIP3    H276310   2.828   1.150  11.573  0.1288  0.6695  0.3454
18299TIP3   OH276311   0.426   6.718   4.774 -0.0050 -0.0799  0.0840
18299TIP3    H176312   0.361   6.772   4.818 -0.9795 -1.3347  0.2160
18299TIP3    H276313   0.509   6.762   4.791 -0.8091  1.5694 -0.1307
18300TIP3   OH276314   6.260   4.847   4.484 -0.1136  0.5176  0.5690
18300TIP3    H176315   6.189   4.784   4.474 -0.0391  0.6067 -0.6121
18300TIP3    H276316   6.273   4.883   4.396  2.3181 -0.5373  0.4622
18301TIP3   OH276317   0.133   6.466   3.301  0.8142  0.3860 -0.8598
18301TIP3    H176318   0.144   6.522   3.378 -0.5323  0.5635 -0.7769
18301TIP3    H276319   0.145   6.524   3.226  0.5497  0.5564 -0.7727
18302TIP3   OH276320   0.542   0.347   2.534 -0.0727 -0.2742  0.1262
18302TIP3    H176321   0.512   0.259   2.512  1.1786 -0.1719 -2.1806
18302TIP3    H276322   0.461   0.397   2.546 -0.8402 -0.9288 -2.0597
18303TIP3   OH276323   3.541   2.895   2.899  0.2158  0.3291 -0.2250
18303TIP3    H176324   3.467   2.838   2.876  1.0936 -0.6055 -0.7703
18303TIP3    H276325   3.506   2.984   2.889 -0.7891 -0.0951 -0.6291
18304TIP3   OH276326   1.597   1.316  12.766 -0.2738  0.1900  0.4098
18304TIP3    H176327   1.688   1.290  12.782 -0.2446 -0.5707 -0.8983
18304TIP3    H276328   1.596   1.344  12.674 -1.5958 -0.9429  0.0539
18305TIP3   OH276329   5.795   4.767   5.919  0.4946 -0.0502 -0.0747
18305TIP3    H176330   5.820   4.718   5.997 -1.3843 -1.1879 -0.1639
18305TIP3    H276331   5.760   4.850   5.952 -1.1008 -0.8813  0.3559
18306TIP3   OH276332   3.218   5.626   4.906  0.0226 -0.0092  0.2086
18306TIP3    H176333   3.140   5.611   4.959 -0.8249  1.2985 -0.6331
18306TIP3    H276334   3.220   5.721   4.893  2.0574  0.0257  0.6616
18307TIP3   OH276335   1.574   5.279  11.544 -0.1936  0.2359  0.1941
18307TIP3    H176336   1.666   5.301  11.556  0.0267 -0.0333 -1.0243
18307TIP3    H276337   1.572   5.219  11.469 -1.2771 -0.3520  0.6676
18308TIP3   OH276338   5.508   6.193  13.483  0.7219 -0.1598  0.5565
18308TIP3    H176339   5.530   6.246  13.560 -1.2280  1.4751  0.0229
18308TIP3    H276340   5.441   6.133  13.514 -1.2575  1.5961 -0.2195
18309TIP3   OH276341   0.597   0.592   2.984 -0.3577 -0.5943  0.1165
18309TIP3    H176342   0.632   0.613   2.897  1.4889  1.4808  1.2917
18309TIP3    H276343   0.627   0.503   3.001  0.4560 -0.5044 -0.8103
18310TIP3   OH276344   2.123   5.793  16.203 -0.3039  0.3574 -0.2759
18310TIP3    H176345   2.169   5.868  16.242 -0.3290  0.8759 -1.2134
18310TIP3    H276346   2.166   5.716  16.241 -0.3517  0.8383  0.7839
18311TIP3   OH276347   4.714   3.952   0.095  0.4080 -0.0523  0.4231
18311TIP3    H176348   4.629   3.939   0.138  0.1293  0.9332  0.1869
18311TIP3    H276349   4.762   3.872   0.112 -0.3329 -0.3541  1.1269
18312TIP3   OH276350   3.426   6.461   0.834  0.3447 -0.5011  0.4867
18312TIP3    H176351   3.462   6.497   0.915 -1.5024  1.6907  0.3939
18312TIP3    H276352   3.336   6.438   0.857  0.2098 -1.0903 -0.6237
18313TIP3   OH276353   0.300   1.604  15.206  0.0915 -0.1052 -0.0311
18313TIP3    H176354   0.389   1.581  15.180 -0.7875 -1.6113 -1.7942
18313TIP3    H276355   0.294   1.575  15.297  1.0175 -1.1727 -0.2963
18314TIP3   OH276356   5.671   5.008   6.026  0.2857  0.0339 -0.0307
18314TIP3    H176357   5.762   5.022   6.050  0.0667 -1.1975  1.5825
18314TIP3    H276358   5.623   5.077   6.073  0.4048  0.9298 -1.1925
18315TIP3   OH276359   2.264   3.883   4.422  0.4507  0.3005 -0.5985
18315TIP3    H176360   2.333   3.897   4.358 -0.9538  0.3092 -2.1458
18315TIP3    H276361   2.184   3.874   4.370 -0.4258 -1.7227  1.0303
18316TIP3   OH276362   6.695   2.437   5.390  0.9192  0.2742  0.5274
18316TIP3    H176363   6.696   2.394   5.304  3.1908 -0.6441  0.9855
18316TIP3    H276364   6.610   2.413   5.427  0.7957 -1.1138 -0.5929
18317TIP3   OH276365   0.820   0.857   4.307  0.3775  0.1786  0.1913
18317TIP3    H176366   0.841   0.842   4.399  2.3912  2.4141  0.1381
18317TIP3    H276367   0.824   0.769   4.268  1.6305 -0.5236  1.8119
18318TIP3   OH276368   4.980   6.356   5.841  0.0445  0.0062  0.3748
18318TIP3    H176369   4.937   6.434   5.876 -1.5729 -1.0780  0.8838
18318TIP3    H276370   5.068   6.357   5.878 -1.1039 -0.2697  3.1909
18319TIP3   OH276371   6.240   2.733   0.888  0.0390  0.4184 -0.2977
18319TIP3    H176372   6.212   2.662   0.945 -1.1386 -0.3230 -1.7504
18319TIP3    H276373   6.171   2.739   0.822 -0.5598  3.8096  0.5357
18320TIP3   OH276374   4.660   2.241  11.534  0.2436  0.2770 -0.3352
18320TIP3    H176375   4.652   2.248  11.629  1.4280  1.1778 -0.2890
18320TIP3    H276376   4.697   2.325  11.507 -0.9631  0.3983 -1.7095
18321TIP3   OH276377   1.601   5.182  16.464  0.6035  0.6118  0.0600
18321TIP3    H176378   1.690   5.196  16.433  0.9908 -0.5007  0.6401
18321TIP3    H276379   1.585   5.089  16.449 -0.7171  0.9388 -0.6763
18322TIP3   OH276380   6.059   5.862   1.970  0.1118  0.2232  0.4382
18322TIP3    H176381   6.003   5.810   1.912  0.0286 -0.8899  1.4929
18322TIP3    H276382   6.018   5.855   2.056  2.6135 -1.8275  1.5327
18323TIP3   OH276383   3.620   3.952   4.363 -0.6231  0.0378 -0.0225
18323TIP3    H176384   3.593   4.028   4.313 -0.3139  0.4293  0.4057
18323TIP3    H276385   3.698   3.981   4.410  0.3478 -0.9612 -0.9699
18324TIP3   OH276386   2.240   4.622   4.865 -0.1679  0.2721 -0.1745
18324TIP3    H176387   2.236   4.676   4.944 -1.0673  0.0394 -0.0613
18324TIP3    H276388   2.271   4.682   4.797  1.5408  0.2380  0.5557
18325TIP3   OH276389   4.547   3.490   4.089  0.2469 -0.2949 -0.4750
18325TIP3    H176390   4.617   3.425   4.093  0.0875 -0.3794  1.1663
18325TIP3    H276391   4.471   3.440   4.057  1.0625 -0.0503 -2.9321
18326TIP3   OH276392   1.271   4.139  15.927 -0.1727  0.7490  0.4069
18326TIP3    H176393   1.317   4.160  16.008  0.1037 -0.7166  0.6421
18326TIP3    H276394   1.336   4.151  15.858  0.2454 -0.2226  0.6293
18327TIP3   OH276395   2.919   5.553   1.471 -0.3420 -0.0955 -0.0031
18327TIP3    H176396   2.854   5.568   1.402 -0.1434 -0.7936 -0.3522
18327TIP3    H276397   2.992   5.511   1.426  1.3289  2.7804 -0.0423
18328TIP3   OH276398   6.230   0.866   3.364  0.1125 -0.0636  0.0102
18328TIP3    H176399   6.179   0.802   3.414  1.0899 -0.5174  0.4309
18328TIP3    H276400   6.225   0.835   3.274  0.0977 -0.3985  0.1267
18329TIP3   OH276401   6.421   0.696   3.650 -0.3744 -0.2499 -0.0807
18329TIP3    H176402   6.360   0.671   3.720 -1.4399 -3.0475 -1.8955
18329TIP3    H276403   6.368   0.747   3.589 -0.1200 -0.0280 -0.1160
18330TIP3   OH276404   1.313   0.091   2.430 -0.5533  0.5604  0.5083
18330TIP3    H176405   1.328  -0.003   2.423  0.2500  0.6544  0.8363
18330TIP3    H276406   1.286   0.105   2.521 -2.7141  0.3913 -0.0939
18331TIP3   OH276407   5.078   3.930  13.290  0.1936  0.4092  0.6500
18331TIP3    H176408   5.005   3.870  13.301  0.0690  0.1695 -1.2385
18331TIP3    H276409   5.076   3.986  13.368 -0.9250 -0.7151  1.4403
18332TIP3   OH276410   2.193   5.682   5.734 -0.0597 -0.1283 -0.1283
18332TIP3    H176411   2.209   5.749   5.668  0.1734 -1.0234 -0.9979
18332TIP3    H276412   2.272   5.682   5.788 -0.2207  0.5629  0.1045
18333TIP3   OH276413   0.418   0.979   2.971 -0.6054 -0.1314 -0.1082
18333TIP3    H176414   0.333   0.955   3.008  0.3596  1.0618  3.0760
18333TIP3    H276415   0.426   1.073   2.987  1.1762 -0.1743 -0.6105
18334TIP3   OH276416   2.291   3.327  16.002 -0.1157  0.3435  0.3719
18334TIP3    H176417   2.245   3.247  16.026  2.0848 -0.9052  0.5389
18334TIP3    H276418   2.228   3.377  15.950 -1.1485 -1.9338 -0.5866
18335TIP3   OH276419   0.362   5.758  13.354  0.0332 -0.2258 -0.0620
18335TIP3    H176420   0.399   5.798  13.276  1.1606 -0.8243  0.1561
18335TIP3    H276421   0.356   5.829  13.417 -0.6422  0.2055 -0.6075
18336TIP3   OH276422   6.175   4.477   1.209 -0.2540  0.2002  0.4268
18336TIP3    H176423   6.081   4.468   1.224 -0.4009 -1.1843 -1.1487
18336TIP3    H276424   6.209   4.388   1.220  0.4706  0.2307 -1.4889
18337TIP3   OH276425   6.073   4.550   2.240  0.2016 -0.2037  0.1082
18337TIP3    H176426   6.156   4.503   2.233 -0.8857 -2.3103  0.9820
18337TIP3    H276427   6.044   4.562   2.150  0.8801 -0.5036 -0.1525
18338TIP3   OH276428   3.489   3.129   4.649  0.0072 -0.3468 -0.2472
18338TIP3    H176429   3.412   3.122   4.594 -1.5113  0.5381  1.6813
18338TIP3    H276430   3.462   3.093   4.734  1.2690  1.1952  0.8579
18339TIP3   OH276431   0.533   4.765   4.360 -0.5986 -0.4177 -0.2153
18339TIP3    H176432   0.481   4.686   4.345  0.6459 -0.8648 -2.2982
18339TIP3    H276433   0.496   4.830   4.301 -0.0265 -0.1891 -0.3302
18340TIP3   OH276434   5.589   2.080   1.480 -0.2810  0.2153  0.1575
18340TIP3    H176435   5.571   2.070   1.386  0.2649  1.4297 -0.0774
18340TIP3    H276436   5.565   2.170   1.500 -0.2764 -0.0040  1.1628
18341TIP3   OH276437   1.660   5.916   1.742  0.1108  0.4899  0.4205
18341TIP3    H176438   1.703   6.000   1.730  3.5462 -1.0703  1.2036
18341TIP3    H276439   1.662   5.901   1.837  0.1789 -0.7788  0.2242
18342TIP3   OH276440   3.693   6.048   4.048 -0.2369 -0.1478  0.6785
18342TIP3    H176441   3.784   6.019   4.041 -0.2095 -0.1430  1.0063
18342TIP3    H276442   3.686   6.083   4.137  0.0583  1.9175 -0.0595
18343TIP3   OH276443   3.858   5.334   3.986 -0.0835  0.3773 -0.3608
18343TIP3    H176444   3.849   5.429   3.986 -0.4439  0.3423  0.2546
18343TIP3    H276445   3.951   5.319   3.968 -0.0687  0.8378 -0.6782
18344TIP3   OH276446   2.825   0.569   2.056  0.0325  0.2427 -0.2486
18344TIP3    H176447   2.806   0.480   2.026  0.1673 -0.3095  1.2894
18344TIP3    H276448   2.823   0.622   1.976 -0.3105 -1.0924 -1.1363
18345TIP3   OH276449   0.773   2.800   4.382 -0.7161  0.0044 -0.1643
18345TIP3    H176450   0.864   2.769   4.381 -0.4639  0.6365  1.1061
18345TIP3    H276451   0.732   2.759   4.306 -0.0267 -2.2785  0.6523
18346TIP3   OH276452   5.898   5.515  13.091  0.3999  0.6133 -0.2862
18346TIP3    H176453   5.971   5.496  13.149  0.1338  1.9684  0.5109
18346TIP3    H276454   5.937   5.568  13.021  0.1054  1.7778  0.4115
18347TIP3   OH276455   2.732   2.973   6.613  0.4588 -0.6126  0.4792
18347TIP3    H176456   2.640   2.974   6.639  0.1457 -0.4024 -0.6068
18347TIP3    H276457   2.755   2.880   6.610 -0.8389 -0.8803 -3.0384
18348TIP3   OH276458   4.776   6.340  12.525  0.5990  0.6840  0.5055
18348TIP3    H176459   4.824   6.260  12.548  0.0011  0.2165  0.1217
18348TIP3    H276460   4.841   6.409  12.535  1.5371 -0.0128 -0.5650
18349TIP3   OH276461   3.517   3.478  11.183 -0.0183 -0.1546  0.3316
18349TIP3    H176462   3.612   3.492  11.184 -0.0184 -0.1213  0.1091
18349TIP3    H276463   3.480   3.557  11.223  0.1223 -0.9152  2.0040
18350TIP3   OH276464   6.091   5.876   5.911 -0.2800 -0.2819  0.2151
18350TIP3    H176465   6.119   5.822   5.985 -0.0842  1.1646  1.2404
18350TIP3    H276466   5.999   5.856   5.899  0.1286 -1.8601 -0.3232
18351TIP3   OH276467   5.705   2.412   0.062  0.5035  0.0402 -0.0078
18351TIP3    H176468   5.753   2.435   0.141  0.4696 -1.7719  0.5665
18351TIP3    H276469   5.614   2.404   0.090  0.3325  0.4457 -0.4506
18352TIP3   OH276470   5.994   5.101  15.001 -0.0399  0.5839  0.9167
18352TIP3    H176471   6.069   5.055  14.965  0.5378  1.8999  0.4075
18352TIP3    H276472   5.942   5.033  15.045  0.5194 -0.6147 -0.2624
18353TIP3   OH276473   1.297   6.346  12.118  0.0229 -0.3193 -0.2967
18353TIP3    H176474   1.243   6.317  12.192 -0.1713 -0.6533 -0.5641
18353TIP3    H276475   1.349   6.269  12.096  0.3778 -0.0933 -0.2461
18354TIP3   OH276476   4.414   6.778   3.885  0.0228  0.1418 -0.4874
18354TIP3    H176477   4.446   6.851   3.833 -0.2916  0.3387 -0.4037
18354TIP3    H276478   4.473   6.706   3.863  1.4943  0.9070  0.8412
18355TIP3   OH276479   4.194   2.735  11.959  0.1021 -0.4854 -0.4695
18355TIP3    H176480   4.141   2.809  11.988  0.5350  0.5901 -2.3668
18355TIP3    H276481   4.202   2.680  12.037 -1.8741  0.4602  0.4430
18356TIP3   OH276482   4.710   5.779  12.452  0.2249 -0.1846 -0.1731
18356TIP3    H176483   4.751   5.743  12.373 -2.1796 -0.6566 -1.2477
18356TIP3    H276484   4.759   5.859  12.469  2.9406 -1.7804 -0.1698
18357TIP3   OH276485   1.805   1.839  11.657 -0.1318  0.5944  0.2450
18357TIP3    H176486   1.861   1.804  11.588 -1.1497  0.8614 -0.7345
18357TIP3    H276487   1.772   1.922  11.622 -1.0792  0.4771  0.8162
18358TIP3   OH276488   4.714   1.962   4.304  0.6698  0.6580 -0.3698
18358TIP3    H176489   4.718   1.867   4.311  0.8632  0.6019 -1.2017
18358TIP3    H276490   4.663   1.990   4.380  0.1257 -0.1525 -0.4294
18359TIP3   OH276491   4.979   4.086  11.234 -0.1912 -0.6945 -0.0718
18359TIP3    H176492   4.953   4.042  11.152 -0.7314  1.0651 -0.8522
18359TIP3    H276493   4.907   4.146  11.252  0.9839  0.5371  0.4975
18360TIP3   OH276494   1.876   5.937  15.214 -0.1129  0.2168  0.1993
18360TIP3    H176495   1.854   5.875  15.284  1.0073 -0.9021 -0.4206
18360TIP3    H276496   1.915   5.883  15.145 -0.8194  1.3665 -1.1210
18361TIP3   OH276497   3.817   1.230   5.036 -0.0695 -0.2268  0.2572
18361TIP3    H176498   3.808   1.304   4.975 -1.2887 -1.2250 -0.7915
18361TIP3    H276499   3.749   1.245   5.102 -0.2704 -0.3674  0.0831
18362TIP3   OH276500   4.042   3.793  12.924  0.0505  0.0075 -0.2855
18362TIP3    H176501   4.032   3.775  13.017  0.5270  1.3182  0.0372
18362TIP3    H276502   3.974   3.740  12.881 -0.0954 -0.6799  0.7908
18363TIP3   OH276503   2.619   0.186  13.396 -0.0864  0.2208  0.2370
18363TIP3    H176504   2.624   0.117  13.330  1.6189  0.3363  0.2201
18363TIP3    H276505   2.665   0.150  13.472  0.1373  1.0407  0.4966
18364TIP3   OH276506   1.405   3.524   2.848  0.4449  0.0277  0.0509
18364TIP3    H176507   1.497   3.533   2.873  1.1705  0.6844 -2.6777
18364TIP3    H276508   1.387   3.600   2.792 -1.7287 -0.1613  0.4382
18365TIP3   OH276509   2.001   0.191   0.194 -0.1292  0.2348  0.8610
18365TIP3    H176510   1.996   0.233   0.280 -1.7796 -1.7805  1.8059
18365TIP3    H276511   2.082   0.140   0.196  1.3053  2.4238  0.1213
18366TIP3   OH276512   2.985   0.316   6.153 -0.4093  0.0483  0.6813
18366TIP3    H176513   3.037   0.375   6.208  0.8010 -0.1881 -0.1906
18366TIP3    H276514   3.005   0.344   6.064  0.0440 -1.5670  0.2704
18367TIP3   OH276515   1.481   3.444   4.814 -0.1153 -0.4011  0.2990
18367TIP3    H176516   1.550   3.420   4.752 -0.7411 -1.5224  0.0360
18367TIP3    H276517   1.401   3.405   4.778 -1.0551  1.5844  0.1577
18368TIP3   OH276518   4.183   3.170  15.174 -0.1383  0.3131  0.2287
18368TIP3    H176519   4.118   3.138  15.110 -0.7618  1.0491  0.4871
18368TIP3    H276520   4.223   3.245  15.131  1.6450 -1.0597 -0.5579
18369TIP3   OH276521   5.800   0.162  15.161  0.0613 -0.5592  0.0957
18369TIP3    H176522   5.858   0.172  15.236  0.6484  2.7884 -0.7277
18369TIP3    H276523   5.850   0.111  15.098  1.6418  1.1327 -0.0652
18370TIP3   OH276524   1.907   1.776  14.756  0.4277 -0.4679 -0.0504
18370TIP3    H176525   1.973   1.706  14.757  2.1435  1.1190  0.7411
18370TIP3    H276526   1.899   1.800  14.664  2.0682  0.3246 -0.0073
18371TIP3   OH276527   3.887   6.369  11.481  0.5732  0.4414 -0.9525
18371TIP3    H176528   3.923   6.456  11.467 -0.8214  0.8912 -1.8465
18371TIP3    H276529   3.866   6.366  11.574 -0.2912  1.4197 -1.1133
18372TIP3   OH276530   3.579   4.991  15.496 -0.1544  0.5704 -0.1223
18372TIP3    H176531   3.628   5.044  15.559 -0.2744 -1.3386  1.6196
18372TIP3    H276532   3.640   4.976  15.425  1.9255 -1.8913  2.0767
18373TIP3   OH276533   2.998   2.913  11.652 -0.3528  0.1101 -0.1707
18373TIP3    H176534   2.990   2.858  11.730  1.2507  1.9333  1.3376
18373TIP3    H276535   2.944   2.990  11.671 -0.3370  0.3443 -1.0617
18374TIP3   OH276536   0.530   4.981  14.985  0.0998  0.3575  0.2862
18374TIP3    H176537   0.578   4.982  15.068 -1.7534  2.2866  1.3964
18374TIP3    H276538   0.558   5.060  14.939 -0.4572  0.4218  0.0436
18375TIP3   OH276539   2.735   3.681   2.069 -0.3333  0.2953 -0.2854
18375TIP3    H176540   2.691   3.672   2.153 -0.0889  0.6630 -0.1174
18375TIP3    H276541   2.711   3.769   2.038 -0.8727 -0.0459 -0.8603
18376TIP3   OH276542   6.215   5.053  14.822 -0.1396  0.3366 -0.1543
18376TIP3    H176543   6.237   5.146  14.831  1.3528 -0.2212  2.7026
18376TIP3    H276544   6.291   5.015  14.778 -0.2921  0.2899 -0.3785
18377TIP3   OH276545   5.922   6.738   1.143  0.3568 -0.2628  0.8406
18377TIP3    H176546   5.827   6.742   1.131  0.4505  2.0447  0.8187
18377TIP3    H276547   5.934   6.720   1.236 -0.0676  1.4072  1.2157
18378TIP3   OH276548   3.349   6.062  15.113  0.0863  0.0006 -0.3818
18378TIP3    H176549   3.344   6.090  15.021  1.3342  0.5714 -0.2866
18378TIP3    H276550   3.407   5.986  15.112  0.0767 -0.0115 -0.0788
18379TIP3   OH276551   6.719   5.375  13.463 -0.3332 -0.1143 -0.8103
18379TIP3    H176552   6.690   5.322  13.538 -0.9495 -2.0764 -2.4031
18379TIP3    H276553   6.813   5.357  13.457 -0.3249 -0.1312 -0.6538
18380TIP3   OH276554   0.867   6.003   3.815 -0.0868  0.2881  0.2086
18380TIP3    H176555   0.799   6.010   3.748  0.9929 -0.7996 -1.0298
18380TIP3    H276556   0.937   6.062   3.785  0.0182  0.4906  0.8468
18381TIP3   OH276557   4.157   5.343   3.987  0.5788  0.3014  0.3324
18381TIP3    H176558   4.141   5.266   4.041 -0.4369  0.6859  0.5688
18381TIP3    H276559   4.253   5.345   3.977  0.5741 -1.3431 -0.1962
18382TIP3   OH276560   4.138   6.024  12.343  0.1480 -0.0974  0.1232
18382TIP3    H176561   4.046   6.036  12.320  0.1247 -0.2419  0.1381
18382TIP3    H276562   4.150   6.075  12.423  0.2879  0.6082 -0.3385
18383TIP3   OH276563   5.786   0.198  13.222 -0.6714  0.1397 -0.0663
18383TIP3    H176564   5.694   0.211  13.198 -0.4304 -1.5383 -2.1596
18383TIP3    H276565   5.832   0.201  13.138  1.1181  0.4533  0.9181
18384TIP3   OH276566   1.616   5.520  15.351 -0.0129  1.1741 -0.2168
18384TIP3    H176567   1.523   5.529  15.371 -0.2070  1.0436 -1.0597
18384TIP3    H276568   1.632   5.426  15.356 -0.0761  1.1344 -0.7290
18385TIP3   OH276569   6.622   5.067  16.767  0.1264 -0.0187  0.1309
18385TIP3    H176570   6.639   5.128  16.695  0.6771  0.7734  0.9077
18385TIP3    H276571   6.527   5.064  16.774  0.0887  0.7560  0.0689
18386TIP3   OH276572   5.186   1.459  11.064 -0.0472 -0.5740 -0.7084
18386TIP3    H176573   5.185   1.541  11.113  0.2756 -0.1198 -1.4608
18386TIP3    H276574   5.132   1.399  11.117 -0.5922  0.2248 -0.3478
18387TIP3   OH276575   5.665   5.848  11.644 -0.4561 -0.5496  0.3872
18387TIP3    H176576   5.720   5.808  11.576  0.8050  1.4976  0.1324
18387TIP3    H276577   5.583   5.869  11.599 -0.0885 -0.3486 -0.2043
18388TIP3   OH276578   3.982   2.727   1.863 -0.5743 -0.4645 -0.3227
18388TIP3    H176579   3.899   2.694   1.899 -0.2922  0.3776  1.1175
18388TIP3    H276580   4.049   2.696   1.925 -0.1424  1.4440  0.1924
18389TIP3   OH276581   6.546   5.698  16.229  0.3464 -0.6341  0.0701
18389TIP3    H176582   6.593   5.617  16.248  0.1638 -0.7240  0.1454
18389TIP3    H276583   6.614   5.763  16.215  0.5029 -0.9202 -0.5123
18390TIP3   OH276584   2.523   5.488   3.547  0.0228  0.2470  0.2331
18390TIP3    H176585   2.485   5.575   3.532  1.4830  0.5436 -1.8704
18390TIP3    H276586   2.488   5.434   3.477  0.6314 -0.3899  0.4157
18391TIP3   OH276587   0.676   4.515  17.096 -0.5885  0.1369  0.2894
18391TIP3    H176588   0.678   4.600  17.052  0.6048  0.7885  1.5739
18391TIP3    H276589   0.584   4.489  17.092 -0.5546  0.3353 -2.2647
18392TIP3   OH276590   3.204   2.379  10.803 -0.8060  0.3667 -0.8958
18392TIP3    H176591   3.272   2.355  10.740 -0.3565  2.3589 -1.2131
18392TIP3    H276592   3.212   2.474  10.812 -2.0656  0.3405  0.7940
18393TIP3   OH276593   2.853   2.908   1.483  0.3102  0.0041 -0.6769
18393TIP3    H176594   2.787   2.901   1.413 -0.5389  0.2443  0.0945
18393TIP3    H276595   2.858   2.820   1.520  0.4910 -0.0388 -0.8068
18394TIP3   OH276596   5.805   1.020   6.754 -0.1107  0.1031  0.3358
18394TIP3    H176597   5.758   1.094   6.715 -1.4151 -1.6021 -1.4024
18394TIP3    H276598   5.873   0.998   6.690  0.3133 -0.1688  0.8748
18395TIP3   OH276599   0.258   0.689   1.664  0.7251 -0.5029 -0.0648
18395TIP3    H176600   0.349   0.720   1.674  0.4122  0.1225  0.9286
18395TIP3    H276601   0.257   0.603   1.705  0.4080  0.3464  1.7813
18396TIP3   OH276602   0.944   0.949  11.592 -0.3259  0.3391  0.3356
18396TIP3    H176603   1.003   0.874  11.588 -0.8211 -0.0469  0.1569
18396TIP3    H276604   0.982   1.007  11.658  0.1435  0.0057  0.3549
18397TIP3   OH276605   3.209   4.599  12.499 -0.1626 -0.6642  0.0385
18397TIP3    H176606   3.210   4.667  12.566  2.5594 -2.9341  2.4262
18397TIP3    H276607   3.215   4.646  12.416  0.8815  2.0362  1.5887
18398TIP3   OH276608   3.224   6.550   5.405 -0.0093 -0.1363 -0.0869
18398TIP3    H176609   3.196   6.603   5.331 -3.4875 -0.4751  0.8909
18398TIP3    H276610   3.286   6.487   5.367 -0.6050  0.6352 -2.4318
18399TIP3   OH276611   3.164   6.646  15.232  0.2663  0.0756 -0.0137
18399TIP3    H176612   3.247   6.688  15.207  1.4628 -1.4712  1.2378
18399TIP3    H276613   3.151   6.578  15.167  0.7770 -0.6728  0.6600
18400TIP3   OH276614   2.817   3.037  16.886 -0.9915  0.0476  0.4888
18400TIP3    H176615   2.834   2.996  16.970  0.7522 -0.3607 -0.0405
18400TIP3    H276616   2.841   2.970  16.821 -1.4892  0.6587 -0.3435
18401TIP3   OH276617   6.221   0.957   2.282 -0.1352  0.0296  0.6955
18401TIP3    H176618   6.128   0.951   2.302 -0.2211 -0.7138  0.0874
18401TIP3    H276619   6.249   0.866   2.268  0.2089  0.4158 -1.2441
18402TIP3   OH276620   5.872   2.863  13.986 -0.2007 -0.6976 -0.3792
18402TIP3    H176621   5.914   2.777  13.999 -2.0060 -1.7017 -1.0731
18402TIP3    H276622   5.847   2.891  14.074 -0.0585 -1.1155 -0.2053
18403TIP3   OH276623   0.764   1.175   0.243 -0.3404  0.2873 -0.4550
18403TIP3    H176624   0.716   1.172   0.160 -1.7335 -1.4911  0.3653
18403TIP3    H276625   0.728   1.102   0.294  0.9489  0.9468  1.4650
18404TIP3   OH276626   2.773   6.434   2.645 -0.2611  0.3236 -0.0363
18404TIP3    H176627   2.750   6.526   2.657 -1.7002 -0.0330  0.0660
18404TIP3    H276628   2.788   6.425   2.551  0.8925  0.8751  0.0833
18405TIP3   OH276629   3.189   6.412  11.322 -0.4931  0.0990  0.5328
18405TIP3    H176630   3.258   6.395  11.385 -0.5767 -1.1460  0.2910
18405TIP3    H276631   3.212   6.497  11.283  0.6540 -0.1094  0.7568
18406TIP3   OH276632   2.034   6.417  10.699 -0.2936  0.3869  0.4325
18406TIP3    H176633   2.030   6.344  10.637  1.1297  0.5833  0.0904
18406TIP3    H276634   2.013   6.377  10.784  0.0149 -0.3340  0.1787
18407TIP3   OH276635   2.391   6.532  15.754  0.4373  0.1635 -0.0530
18407TIP3    H176636   2.472   6.581  15.766  0.6829 -0.1340 -0.5143
18407TIP3    H276637   2.322   6.593  15.782  0.8594  0.1818  0.9918
18408TIP3   OH276638   1.565   5.011  15.287 -0.4498  0.2733 -0.0745
18408TIP3    H176639   1.584   4.954  15.213  0.8157 -0.5691  0.8605
18408TIP3    H276640   1.490   4.970  15.331 -1.9400  1.4158 -1.5402
18409TIP3   OH276641   6.429   2.680   4.713 -0.2004 -0.2918  0.4393
18409TIP3    H176642   6.339   2.683   4.679 -0.3475  1.1398  0.9202
18409TIP3    H276643   6.439   2.761   4.762  1.9110  0.3441 -0.9848
18410TIP3   OH276644   2.944   3.442  13.400  0.0788  0.3064 -0.0500
18410TIP3    H176645   2.981   3.525  13.428  1.3459 -0.9629  2.1678
18410TIP3    H276646   2.892   3.413  13.475 -0.4253 -0.8566 -0.8429
18411TIP3   OH276647   1.864   3.769  14.536  0.0927 -0.0290  0.0584
18411TIP3    H176648   1.895   3.705  14.473 -0.6803 -0.1732 -0.1816
18411TIP3    H276649   1.895   3.853  14.503  0.7557 -0.2343  0.1534
18412TIP3   OH276650   1.934   1.584   1.686 -0.1671  0.0277  0.3415
18412TIP3    H176651   1.913   1.491   1.684  2.7760 -0.6823 -0.7217
18412TIP3    H276652   1.890   1.620   1.608  0.7034 -0.9821 -0.6382
18413TIP3   OH276653   0.319   0.584   3.023 -0.4287 -0.1596 -0.3473
18413TIP3    H176654   0.255   0.617   2.960 -0.1813  2.2132  0.5996
18413TIP3    H276655   0.402   0.586   2.976 -0.1951  1.9011  0.1274
18414TIP3   OH276656   4.429   2.193  16.173  0.1428  0.2117 -0.0160
18414TIP3    H176657   4.474   2.278  16.169  3.3750 -1.3339  2.2506
18414TIP3    H276658   4.395   2.188  16.262 -1.4579 -0.2048 -0.6374
18415TIP3   OH276659   0.450   3.734   1.254 -0.3937  0.1741  0.5960
18415TIP3    H176660   0.539   3.758   1.227 -0.6576 -0.4919 -0.9146
18415TIP3    H276661   0.445   3.759   1.346  1.4068  0.1038  0.7247
18416TIP3   OH276662   0.954   1.215  11.421 -0.2100  0.6289  0.0379
18416TIP3    H176663   1.016   1.228  11.493 -1.0720 -0.4982  1.0026
18416TIP3    H276664   0.891   1.286  11.431 -0.0923  0.7187  0.1506
18417TIP3   OH276665   6.615   0.017  12.282 -0.0515 -0.0582 -0.3273
18417TIP3    H176666   6.643   0.072  12.209  2.4560 -2.1256 -0.9980
18417TIP3    H276667   6.613  -0.072  12.246 -0.8362 -0.8511  1.5835
18418TIP3   OH276668   6.221   1.893  12.474 -0.3070  0.7919  0.0644
18418TIP3    H176669   6.234   1.913  12.381  0.6455  1.1814  0.2705
18418TIP3    H276670   6.249   1.802  12.483 -1.2500  0.4714 -0.1967
18419TIP3   OH276671   5.430   1.249   0.820  0.2114 -0.1211  0.0202
18419TIP3    H176672   5.364   1.247   0.889  0.0641 -0.3659 -0.1267
18419TIP3    H276673   5.483   1.170   0.834 -0.2662 -0.5519 -0.5829
18420TIP3   OH276674   6.342   0.858   0.394  0.2372  0.5082  0.4167
18420TIP3    H176675   6.293   0.927   0.440  1.3809  1.5464  0.1277
18420TIP3    H276676   6.384   0.904   0.321 -2.1858 -1.2658 -2.1600
18421TIP3   OH276677   4.623   6.466   4.043 -0.0503  0.1448 -0.0560
18421TIP3    H176678   4.554   6.405   4.069  0.0603  0.3148  0.6371
18421TIP3    H276679   4.705   6.418   4.055 -0.0176  0.1069 -0.4158
18422TIP3   OH276680   5.222   6.507  16.452 -0.3188 -0.3361 -0.3636
18422TIP3    H176681   5.140   6.469  16.483  0.2200  0.2170  1.8821
18422TIP3    H276682   5.241   6.578  16.515  2.2242 -0.9351 -0.3799
18423TIP3   OH276683   4.267   0.981  15.929  0.0797  0.5207 -0.2337
18423TIP3    H176684   4.318   0.944  15.857 -1.1800  2.3864 -2.1413
18423TIP3    H276685   4.243   1.069  15.900 -2.9980  0.2405  1.1907
18424TIP3   OH276686   6.156   1.484  14.633 -0.4067  0.3261 -0.2610
18424TIP3    H176687   6.099   1.509  14.706 -0.3583 -0.3193  0.0004
18424TIP3    H276688   6.241   1.523  14.655  0.2508 -1.8541  1.2342
18425TIP3   OH276689   4.665   2.492  11.840  0.3057  0.0448 -0.1662
18425TIP3    H176690   4.690   2.564  11.898  1.3857  0.2645 -0.8929
18425TIP3    H276691   4.604   2.533  11.777  0.7936  0.2897 -0.4807
18426TIP3   OH276692   1.010   1.095   0.389  0.8983  0.1283  0.3210
18426TIP3    H176693   0.926   1.134   0.367  0.0469 -0.8687  1.6743
18426TIP3    H276694   1.030   1.038   0.315 -0.1075 -0.3787  0.4324
18427TIP3   OH276695   4.698   4.846  14.947 -0.3645  0.0724  0.2179
18427TIP3    H176696   4.780   4.882  14.982 -0.6141  0.0401  0.8538
18427TIP3    H276697   4.631   4.877  15.008 -0.9016  0.5764 -0.6268
18428TIP3   OH276698   3.202   2.681  16.846 -0.5332 -0.1279  0.8953
18428TIP3    H176699   3.229   2.769  16.872  0.7244 -0.6576  1.4448
18428TIP3    H276700   3.246   2.623  16.910  1.1474 -1.3584 -1.3107
18429TIP3   OH276701   2.012   4.765  15.271  0.8211  0.2522 -0.4799
18429TIP3    H176702   1.936   4.812  15.237  0.7574  0.9755  0.6319
18429TIP3    H276703   2.030   4.807  15.355  1.5828 -0.8442 -0.0872
18430TIP3   OH276704   6.739   4.135   3.669 -0.6525 -0.1951 -0.1107
18430TIP3    H176705   6.703   4.203   3.612  0.7256  1.5058  1.0192
18430TIP3    H276706   6.812   4.098   3.619  1.8286  2.6581  1.2969
18431TIP3   OH276707   3.651   3.612  13.940 -0.1935 -0.0531 -0.0708
18431TIP3    H176708   3.647   3.536  13.882  0.4511  1.0507 -1.5830
18431TIP3    H276709   3.560   3.640  13.948 -0.1261  0.7148 -1.8063
18432TIP3   OH276710   1.002   4.960   3.605  0.0033  0.0954  0.1685
18432TIP3    H176711   1.092   4.987   3.591  0.2109 -0.4092  0.4911
18432TIP3    H276712   0.967   5.022   3.669  0.6235 -0.6853  1.2770
18433TIP3   OH276713   6.599   5.365   4.910 -0.7469 -0.1837 -0.0643
18433TIP3    H176714   6.684   5.407   4.924 -0.8206 -1.0128  3.0710
18433TIP3    H276715   6.620   5.288   4.857  0.5926 -0.8357  1.3642
18434TIP3   OH276716   5.219   0.757  15.405 -0.4109  0.4485  0.5303
18434TIP3    H176717   5.133   0.720  15.385  0.0043 -0.0908 -0.3163
18434TIP3    H276718   5.264   0.688  15.454 -0.0363  0.2583 -0.0753
18435TIP3   OH276719   4.164   0.424  13.148 -0.3026 -0.3917  0.0151
18435TIP3    H176720   4.085   0.475  13.131  0.1652 -0.1004 -1.3879
18435TIP3    H276721   4.149   0.341  13.102  0.0167 -0.5008  0.1065
18436TIP3   OH276722   0.270   3.402  16.055 -0.0713 -0.3531  0.2629
18436TIP3    H176723   0.200   3.376  16.116 -0.0252 -1.4064 -0.1327
18436TIP3    H276724   0.263   3.340  15.983 -0.7177  1.4660 -1.2702
18437TIP3   OH276725   1.804   0.501   3.496  0.2337  0.1212  0.0221
18437TIP3    H176726   1.853   0.516   3.577 -0.8256 -0.7173  0.8479
18437TIP3    H276727   1.858   0.440   3.446 -0.3067 -1.4356  1.2804
18438TIP3   OH276728   2.031   5.076   3.722 -0.3414 -0.2857  0.6234
18438TIP3    H176729   1.965   5.095   3.656  1.9733  0.3709 -1.6114
18438TIP3    H276730   2.068   4.991   3.696  1.0127  0.2690  0.6645
18439TIP3   OH276731   0.147   6.658   5.873 -0.0656  0.0637  0.1459
18439TIP3    H176732   0.057   6.631   5.888 -0.0212 -0.4742 -0.5248
18439TIP3    H276733   0.193   6.576   5.853  0.4169  0.4309 -0.2430
18440TIP3   OH276734   5.851   3.590   5.914  0.4271  0.0535  0.0424
18440TIP3    H176735   5.900   3.512   5.887 -0.0185 -0.0141 -0.5885
18440TIP3    H276736   5.822   3.629   5.831  2.5345  2.1082  0.2063
18441TIP3   OH276737   5.540   3.888   5.164  1.5447 -0.1524 -0.1822
18441TIP3    H176738   5.535   3.794   5.146 -2.4612 -0.7537  3.2115
18441TIP3    H276739   5.478   3.928   5.103  0.2341 -0.2304  1.0805
18442TIP3   OH276740   3.011   5.169   5.621  0.9042 -0.0054 -0.3113
18442TIP3    H176741   3.044   5.145   5.708  1.7004  2.8604  0.2497
18442TIP3    H276742   2.917   5.180   5.634  0.9081 -0.3500  0.0187
18443TIP3   OH276743   2.485   4.905  13.545 -0.3561  0.2098  0.1696
18443TIP3    H176744   2.419   4.948  13.491 -2.2778 -1.2347  1.2833
18443TIP3    H276745   2.437   4.834  13.588  1.8590 -0.6292  1.3009
18444TIP3   OH276746   4.800   4.978  12.635 -0.0396  0.4455 -0.2106
18444TIP3    H176747   4.813   4.938  12.549 -0.1593  0.5528 -0.2792
18444TIP3    H276748   4.887   5.002  12.665 -0.1124  1.4711 -0.8133
18445TIP3   OH276749   6.191   4.879   5.375  0.0383  0.8130 -0.4066
18445TIP3    H176750   6.207   4.789   5.405 -0.2441  0.3390 -1.6445
18445TIP3    H276751   6.096   4.889   5.381  0.2101  1.6339  1.3667
18446TIP3   OH276752   5.392   4.362   3.753 -0.5526  0.3028  0.2644
18446TIP3    H176753   5.434   4.278   3.770 -0.5277  0.1688 -0.4568
18446TIP3    H276754   5.379   4.365   3.658 -1.1715  0.8192  0.3528
18447TIP3   OH276755   2.350   5.479   5.492 -0.0672  0.1114 -1.1110
18447TIP3    H176756   2.396   5.562   5.483 -0.2725  0.2557 -0.8561
18447TIP3    H276757   2.357   5.458   5.586 -0.6625  0.2204 -1.0391
18448TIP3   OH276758   1.817   1.284  15.706 -0.2806  0.5471 -0.1786
18448TIP3    H176759   1.816   1.301  15.800  0.3130 -1.8031  0.3004
18448TIP3    H276760   1.898   1.235  15.692 -0.8702 -0.0052 -1.7375
18449TIP3   OH276761   2.076   6.599   1.973 -0.1621 -0.1426  0.2872
18449TIP3    H176762   2.112   6.583   2.060  0.3322  3.0261  0.7231
18449TIP3    H276763   1.987   6.629   1.989 -0.9949 -2.0990 -0.4825
18450TIP3   OH276764   2.853   1.749   6.443  0.3614 -0.4942 -0.3742
18450TIP3    H176765   2.812   1.835   6.452 -0.9020 -1.1944  0.7052
18450TIP3    H276766   2.867   1.719   6.533 -0.2240 -1.8984 -0.7378
18451TIP3   OH276767   1.752   4.042  13.421 -0.1282 -0.3276 -1.0868
18451TIP3    H176768   1.761   4.070  13.512  1.2828  0.9987 -1.6226
18451TIP3    H276769   1.794   3.956  13.418  1.1110  0.2637 -0.7969
18452TIP3   OH276770   3.559   2.105   0.926 -0.4276  0.1359 -0.7509
18452TIP3    H176771   3.621   2.033   0.935 -1.2217 -0.5884 -1.1086
18452TIP3    H276772   3.473   2.064   0.921 -0.9305  1.1283 -0.4998
18453TIP3   OH276773   1.032   0.618  10.515 -0.8373  0.3196  0.7458
18453TIP3    H176774   1.053   0.548  10.454 -1.1480  0.5695  0.3434
18453TIP3    H276775   0.937   0.613  10.525 -0.9406  1.0589  0.2376
18454TIP3   OH276776   3.625   2.817  17.077 -0.0540 -0.1266 -0.5472
18454TIP3    H176777   3.644   2.726  17.101 -0.7861 -0.1029  0.1378
18454TIP3    H276778   3.555   2.843  17.136 -0.9804  0.3716 -1.8474
18455TIP3   OH276779   2.929   5.137   6.433  0.6361  0.0813  0.3140
18455TIP3    H176780   2.870   5.204   6.467 -0.7715 -1.1230  0.3042
18455TIP3    H276781   2.941   5.161   6.341  1.1619  1.0339  0.6285
18456TIP3   OH276782   1.191   2.631  11.467 -0.2690  0.0559  0.3250
18456TIP3    H176783   1.152   2.574  11.533  1.8679 -0.0326  1.5452
18456TIP3    H276784   1.206   2.573  11.391 -2.5257  0.1125 -0.1790
18457TIP3   OH276785   6.711   5.483  16.291 -0.8490 -0.4738 -0.2438
18457TIP3    H176786   6.794   5.484  16.243 -0.0253 -2.4997  1.0524
18457TIP3    H276787   6.700   5.391  16.317 -3.1975 -0.1116  0.1145
18458TIP3   OH276788   3.488   0.598   0.159 -0.2439 -0.4454 -0.4531
18458TIP3    H176789   3.552   0.547   0.108 -0.4230 -1.3281  0.2015
18458TIP3    H276790   3.542   0.658   0.211  0.0088 -0.5142 -0.6333
18459TIP3   OH276791   2.781   3.066  15.679  0.4471  0.4159  0.2657
18459TIP3    H176792   2.776   3.156  15.648  0.6940  1.4416  3.0536
18459TIP3    H276793   2.783   3.013  15.600 -1.4092  2.7579 -1.4012
18460TIP3   OH276794   3.840   1.597  14.112 -0.2205  0.8446 -0.1143
18460TIP3    H176795   3.867   1.679  14.071  0.8453  0.5610  0.0308
18460TIP3    H276796   3.917   1.566  14.159 -0.8349  0.1229  0.4298
18461TIP3   OH276797   5.459   5.738   4.831  0.5318  0.4019  0.2733
18461TIP3    H176798   5.412   5.779   4.904 -1.4061 -2.5237  0.7534
18461TIP3    H276799   5.420   5.777   4.753  0.0422  0.8606  0.7434
18462TIP3   OH276800   3.851   3.320   2.559 -0.1488 -0.7228 -0.5957
18462TIP3    H176801   3.836   3.319   2.654 -1.4379  2.3649 -0.6953
18462TIP3    H276802   3.917   3.388   2.547 -1.4114  0.2823 -2.0429
18463TIP3   OH276803   5.448   1.725  14.743  0.4109  0.6506 -0.2594
18463TIP3    H176804   5.376   1.779  14.775  0.4166  1.0663 -0.9488
18463TIP3    H276805   5.518   1.788  14.723  0.4129  0.3901 -1.0758
18464TIP3   OH276806   2.004   5.191  14.327 -0.2036 -0.2614 -0.0605
18464TIP3    H176807   1.988   5.261  14.263  1.1195  0.6344  0.5550
18464TIP3    H276808   2.045   5.121  14.277 -1.2562 -0.4755 -0.6261
18465TIP3   OH276809   5.902   5.890   3.714  0.1715  0.4270  0.0616
18465TIP3    H176810   5.859   5.805   3.728 -0.0411  0.2664 -1.4918
18465TIP3    H276811   5.988   5.867   3.678 -0.0891  0.8939 -0.8457
18466TIP3   OH276812   1.125   2.816  15.031 -0.1278 -0.3813  0.0194
18466TIP3    H176813   1.151   2.724  15.034  0.6529 -0.1570  0.3913
18466TIP3    H276814   1.201   2.864  15.065 -1.1141  0.2851  1.3180
18467TIP3   OH276815   3.589   4.728  15.642  0.4519  0.0195  0.0748
18467TIP3    H176816   3.622   4.813  15.614 -0.8253 -0.5993 -3.4822
18467TIP3    H276817   3.665   4.671  15.640  0.7282  0.3992 -0.3875
18468TIP3   OH276818   2.581   4.222  13.990 -0.1159 -0.1547  0.0465
18468TIP3    H176819   2.610   4.219  14.081 -1.4759 -0.6306  0.4805
18468TIP3    H276820   2.519   4.150  13.983 -0.4016  0.2046 -1.1230
18469TIP3   OH276821   2.808   4.544   3.341  0.3655 -0.2071  0.1928
18469TIP3    H176822   2.860   4.487   3.397  0.2631 -0.5745 -0.0823
18469TIP3    H276823   2.837   4.632   3.362  0.5288 -0.3628  0.6184
18470TIP3   OH276824   2.663   1.417   4.532  0.1617 -0.2292  0.2216
18470TIP3    H176825   2.625   1.499   4.501 -1.4059 -1.3417 -0.8867
18470TIP3    H276826   2.679   1.367   4.452 -0.2562 -1.5818  0.9693
18471TIP3   OH276827   3.097   6.423   1.722  0.4660 -0.4161 -0.7691
18471TIP3    H176828   3.042   6.492   1.686 -0.1532 -0.1185  0.6948
18471TIP3    H276829   3.123   6.370   1.647  1.1408  1.5509 -1.9429
18472TIP3   OH276830   4.091   1.317  11.900  0.1021  0.3524  0.2302
18472TIP3    H176831   4.099   1.378  11.974  0.7725 -0.4979  0.8688
18472TIP3    H276832   4.023   1.356  11.844 -1.7089  0.1220  2.1874
18473TIP3   OH276833   1.243   0.250   6.459 -0.1671 -0.3202  0.3822
18473TIP3    H176834   1.312   0.311   6.483  0.8729 -1.4599  0.3478
18473TIP3    H276835   1.198   0.293   6.386  0.4774  0.4486  0.4274
18474TIP3   OH276836   0.076   6.496   5.381 -0.0935  0.0528 -0.6568
18474TIP3    H176837   0.161   6.491   5.337 -0.7812 -0.8029 -1.9342
18474TIP3    H276838   0.023   6.553   5.325 -0.7248 -0.3742 -0.5068
18475TIP3   OH276839   0.156   6.232  14.722  0.0900 -0.1243 -0.0879
18475TIP3    H176840   0.100   6.289  14.668  1.0820  1.0462  0.1192
18475TIP3    H276841   0.155   6.149  14.675 -1.9052 -0.1661 -0.0498
18476TIP3   OH276842   1.546   6.278  13.878  0.3413 -0.1579 -0.0374
18476TIP3    H176843   1.494   6.207  13.914  1.2785  0.1563  2.0089
18476TIP3    H276844   1.503   6.358  13.910  1.1649  0.1292  0.3685
18477TIP3   OH276845   1.783   3.776   5.485 -0.2081  0.3438 -0.2472
18477TIP3    H176846   1.826   3.712   5.428  0.0148  1.0016 -0.8217
18477TIP3    H276847   1.815   3.861   5.454  1.1324  0.6421  1.8535
18478TIP3   OH276848   4.608   1.468   3.856 -0.2544  1.0349 -0.2206
18478TIP3    H176849   4.675   1.410   3.893  0.9512  1.6950 -1.3065
18478TIP3    H276850   4.532   1.457   3.913  0.7373  0.1621  0.9600
18479TIP3   OH276851   3.644   3.045  14.251  0.1488 -0.6690  0.1123
18479TIP3    H176852   3.684   3.031  14.337  0.8307  1.5667  0.1743
18479TIP3    H276853   3.719   3.052  14.191 -0.2886 -0.8103 -0.4572
18480TIP3   OH276854   2.966   5.934   5.781  0.2033 -0.6005  0.0029
18480TIP3    H176855   2.932   5.847   5.759 -0.9007  0.2242 -1.7443
18480TIP3    H276856   2.946   5.945   5.874 -0.8865 -1.6876 -0.0870
18481TIP3   OH276857   0.510   2.802  13.596 -0.3960  0.8357 -0.5218
18481TIP3    H176858   0.561   2.864  13.543  1.8579 -1.4427 -1.1043
18481TIP3    H276859   0.516   2.837  13.685 -0.0214  2.0165 -0.9864
18482TIP3   OH276860   2.992   2.973   0.998  0.2308 -0.4232 -0.0726
18482TIP3    H176861   2.908   2.953   0.957  0.2614  0.8824 -0.8172
18482TIP3    H276862   2.973   2.979   1.091 -0.9144  1.7704 -0.4221
18483TIP3   OH276863   3.402   1.722  12.139  0.0740 -0.4790  0.0560
18483TIP3    H176864   3.365   1.805  12.169 -1.8863 -0.9248 -1.0175
18483TIP3    H276865   3.384   1.721  12.045  2.0507 -1.1302 -0.3245
18484TIP3   OH276866   5.046   3.384   5.969 -0.3195  0.0460  0.4852
18484TIP3    H176867   5.076   3.393   6.060  0.7026  0.3163  0.1268
18484TIP3    H276868   5.065   3.468   5.929  1.3326 -0.8047 -0.5764
18485TIP3   OH276869   1.284   5.138  14.543 -0.2410  0.5730 -0.3977
18485TIP3    H176870   1.283   5.052  14.502 -3.4632  1.1627 -1.6992
18485TIP3    H276871   1.342   5.190  14.487 -0.7801  0.0821 -1.4285
18486TIP3   OH276872   4.369   4.890   6.073  0.1713 -0.0718 -0.0621
18486TIP3    H176873   4.395   4.856   6.159 -0.2561  2.8911  1.3107
18486TIP3    H276874   4.289   4.940   6.090  0.2507  0.8125 -2.1347
18487TIP3   OH276875   6.104   6.195   5.720 -0.2008 -0.1217 -0.2229
18487TIP3    H176876   6.026   6.141   5.727  0.5258 -1.5652 -2.8011
18487TIP3    H276877   6.073   6.277   5.683 -0.4259 -0.8787 -1.7303
18488TIP3   OH276878   2.642   5.640  16.331 -0.4192 -0.0861 -0.0574
18488TIP3    H176879   2.704   5.690  16.384 -2.1496  2.0854 -0.0286
18488TIP3    H276880   2.588   5.593  16.395  0.3154 -0.9411 -0.0477
18489TIP3   OH276881   4.663   5.139  15.370  0.6702 -0.3270  0.0212
18489TIP3    H176882   4.636   5.076  15.303 -1.1759 -0.3334  0.7345
18489TIP3    H276883   4.745   5.104  15.404  0.9281 -1.0400 -1.2964
18490TIP3   OH276884   3.337   3.969   1.855 -0.1416  0.3920 -0.5495
18490TIP3    H176885   3.295   3.979   1.769 -0.1386  0.8051 -0.5006
18490TIP3    H276886   3.310   4.046   1.905 -3.5726 -1.8570  1.2729
18491TIP3   OH276887   5.563   4.364   1.105  0.2440 -0.2536  0.6074
18491TIP3    H176888   5.468   4.356   1.115 -0.1022  1.2861 -1.1483
18491TIP3    H276889   5.588   4.428   1.171  0.4651 -2.5648  2.8158
18492TIP3   OH276890   2.087   0.906  16.956 -0.3611 -0.1793 -0.1799
18492TIP3    H176891   2.156   0.843  16.978 -0.0936 -0.4197 -1.6396
18492TIP3    H276892   2.077   0.959  17.035  1.7008  0.0443 -0.0380
18493TIP3   OH276893   0.017   6.322  15.109 -0.4128  0.7007  0.3062
18493TIP3    H176894  -0.067   6.355  15.140 -0.9442 -0.3783  0.0411
18493TIP3    H276895   0.014   6.335  15.014 -2.0917 -3.2257 -0.2919
18494TIP3   OH276896   2.770   3.320  13.191 -0.2624 -0.6111 -0.1624
18494TIP3    H176897   2.839   3.358  13.246 -1.9462  0.0994  1.5424
18494TIP3    H276898   2.688   3.352  13.230 -1.5384 -0.7748 -2.6213
18495TIP3   OH276899   6.401   5.246   2.855 -0.1152  0.2050  0.4253
18495TIP3    H176900   6.414   5.340   2.870  1.5304  0.3561 -1.8151
18495TIP3    H276901   6.308   5.232   2.871 -0.5260  2.3557  0.0524
18496TIP3   OH276902   5.925   4.234   0.969  0.0429  0.3189  0.0024
18496TIP3    H176903   5.951   4.147   0.998  0.7959  0.7430  0.6286
18496TIP3    H276904   5.874   4.219   0.890  0.7190 -0.6470 -0.2571
18497TIP3   OH276905   1.915   3.653   1.470 -0.1814  0.3757 -0.1933
18497TIP3    H176906   1.981   3.714   1.504  0.3466 -0.2343 -0.1111
18497TIP3    H276907   1.906   3.677   1.378  2.9535 -1.9364 -1.2138
18498TIP3   OH276908   1.489   3.690   1.704  0.4219 -0.0266  0.5259
18498TIP3    H176909   1.561   3.747   1.679 -0.2116 -0.2166 -1.7925
18498TIP3    H276910   1.531   3.616   1.748  1.4931  0.6789  0.6928
18499TIP3   OH276911   5.131   5.542  12.051 -0.0878 -0.5091 -0.0008
18499TIP3    H176912   5.110   5.553  12.143 -0.9314 -1.9611  0.0101
18499TIP3    H276913   5.051   5.504  12.013 -0.5472  2.0770 -1.7697
18500TIP3   OH276914   4.324   6.736   0.866  0.5314  0.5682  0.4242
18500TIP3    H176915   4.329   6.643   0.888 -2.2285  0.0212 -0.9874
18500TIP3    H276916   4.412   6.770   0.884  1.1612 -1.9636  2.4122
18501TIP3   OH276917   1.009   4.328   0.196 -0.0276  1.0099  0.0276
18501TIP3    H176918   1.061   4.408   0.198  1.1986  0.2643 -0.9624
18501TIP3    H276919   1.064   4.265   0.150 -0.7601 -0.5499  1.2356
18502TIP3   OH276920   0.260   5.856  16.637 -0.1530 -0.1507 -0.4793
18502TIP3    H176921   0.251   5.914  16.712  3.1838 -0.4458  0.2124
18502TIP3    H276922   0.320   5.787  16.666  1.5151 -0.0788 -3.5116
18503TIP3   OH276923   1.115   2.285  15.612  0.1555  0.5797  0.4614
18503TIP3    H176924   1.102   2.258  15.521  1.4751  1.3821  0.0210
18503TIP3    H276925   1.120   2.203  15.661 -0.6815  0.1476 -0.1779
18504TIP3   OH276926   1.242   2.809  13.198  0.0638  0.0297  0.1612
18504TIP3    H176927   1.288   2.853  13.269  0.3639 -0.6891  0.4185
18504TIP3    H276928   1.284   2.723  13.192  0.4857  0.3231 -1.3113
18505TIP3   OH276929   3.580   3.804  16.889  0.7502  0.1877 -0.0201
18505TIP3    H176930   3.619   3.855  16.818 -0.1513  1.0622  0.1005
18505TIP3    H276931   3.544   3.727  16.845  0.1637  0.7453 -0.5451
18506TIP3   OH276932   4.299   0.842  16.159  0.2641 -0.2803 -0.0823
18506TIP3    H176933   4.371   0.897  16.190 -0.3749  0.2267  0.5282
18506TIP3    H276934   4.282   0.871  16.070  1.5755 -1.1915 -0.6603
18507TIP3   OH276935   5.086   3.917   1.364 -0.5335  0.4364  0.2067
18507TIP3    H176936   5.105   3.912   1.270  0.4261  3.1322  0.2207
18507TIP3    H276937   5.092   4.010   1.385  3.2344 -0.4335  3.7385
18508TIP3   OH276938   3.431   2.470  12.883  0.3300  0.6157 -0.8088
18508TIP3    H176939   3.521   2.473  12.917  0.1134  0.7698 -0.2341
18508TIP3    H276940   3.439   2.432  12.796  0.6900 -1.4364  0.1003
18509TIP3   OH276941   0.385   6.696  16.126  0.3294  0.4079 -0.5393
18509TIP3    H176942   0.457   6.681  16.187  0.8572 -1.6057 -1.5891
18509TIP3    H276943   0.428   6.704  16.040 -0.5381  1.2586 -0.9071
18510TIP3   OH276944   5.898   5.493  12.078  0.2996  0.0040 -1.2241
18510TIP3    H176945   5.814   5.538  12.077 -0.0609 -0.5274  1.2605
18510TIP3    H276946   5.958   5.553  12.034 -0.6155  1.9933  0.1493
18511TIP3   OH276947   1.375   2.514   4.341  0.0703 -0.0160 -0.2071
18511TIP3    H176948   1.443   2.578   4.317 -0.3397  0.2178 -0.7649
18511TIP3    H276949   1.375   2.513   4.436 -1.0162  2.0108 -0.1557
18512TIP3   OH276950   0.837   1.385   5.664  0.0568 -0.0261  0.2096
18512TIP3    H176951   0.787   1.438   5.601  1.0507  0.3266 -0.2956
18512TIP3    H276952   0.858   1.446   5.734 -0.3668 -0.2220  0.5106
18513TIP3   OH276953   1.852   5.286  14.539 -0.6451  0.2468  0.1761
18513TIP3    H176954   1.849   5.371  14.582 -2.2091  0.6776 -0.7159
18513TIP3    H276955   1.919   5.295  14.471  1.0951 -0.1087  1.8311
18514TIP3   OH276956   2.874   4.808  16.688 -0.0049  0.1249  0.3319
18514TIP3    H176957   2.901   4.751  16.616 -0.3982  0.0300  0.2566
18514TIP3    H276958   2.932   4.783  16.761 -0.1095 -0.3059  0.2718
18515TIP3   OH276959   5.791   0.877  11.527 -0.4380  0.2814 -0.3113
18515TIP3    H176960   5.772   0.800  11.581 -0.3078  0.1991 -0.3813
18515TIP3    H276961   5.855   0.926  11.578 -1.0288  0.6868  0.0375
18516TIP3   OH276962   1.404   1.433   4.928 -0.2641  0.5309 -0.5001
18516TIP3    H176963   1.359   1.398   5.005  1.3389 -0.2458  0.1139
18516TIP3    H276964   1.458   1.360   4.897  0.2473  1.3088 -1.4461
18517TIP3   OH276965   1.190   6.009   5.472 -0.2713  0.6873 -0.1322
18517TIP3    H176966   1.245   6.084   5.492 -1.4477  1.8252 -0.9995
18517TIP3    H276967   1.224   5.976   5.389  0.2012  0.3234  0.2121
18518TIP3   OH276968   6.785   6.433   1.648 -0.3082 -0.6106  0.1299
18518TIP3    H176969   6.783   6.512   1.701 -1.6103 -1.5897  1.5851
18518TIP3    H276970   6.862   6.385   1.678  1.0563  0.5263 -1.4409
18519TIP3   OH276971   0.160   1.605  16.678 -0.5791  0.1273 -0.3539
18519TIP3    H176972   0.080   1.592  16.626 -0.3016 -0.4091 -0.6417
18519TIP3    H276973   0.128   1.619  16.767 -1.0874  1.5783 -0.7463
18520TIP3   OH276974   6.527   2.669  14.145  0.2772  0.1945 -0.0442
18520TIP3    H176975   6.434   2.657  14.162  0.0034  1.4722 -0.5969
18520TIP3    H276976   6.558   2.582  14.119 -1.2006  0.1650 -1.8201
18521TIP3   OH276977   1.036   1.581  15.724 -0.6644 -0.0133 -0.0130
18521TIP3    H176978   1.057   1.593  15.816 -0.7309 -0.1545  0.0219
18521TIP3    H276979   0.962   1.639  15.708 -2.2924 -1.8322  0.6586
18522TIP3   OH276980   2.855   1.066   3.613 -0.4662  0.2294  0.0830
18522TIP3    H176981   2.874   1.051   3.706  0.9651 -1.4892 -0.4506
18522TIP3    H276982   2.760   1.079   3.610 -0.6186 -0.3360  1.7101
18523TIP3   OH276983   2.593   0.103  14.843 -0.0402 -0.3460  0.2698
18523TIP3    H176984   2.564   0.192  14.821 -0.5652 -0.4692  0.4750
18523TIP3    H276985   2.676   0.117  14.889 -0.1446  0.0398  0.3475
18524TIP3   OH276986   4.719   4.346  14.877  0.3025 -0.6177  0.2064
18524TIP3    H176987   4.792   4.406  14.860  0.4565 -1.0351 -0.6265
18524TIP3    H276988   4.654   4.367  14.810  0.9018 -2.2457 -0.9294
18525TIP3   OH276989   1.125   0.982  11.001 -0.1639  0.3949  0.2267
18525TIP3    H176990   1.219   0.996  11.007 -0.3397  1.3017  1.0053
18525TIP3    H276991   1.115   0.912  10.937  0.9489  1.3334 -0.9940
18526TIP3   OH276992   2.766   3.856  16.996 -0.2267  0.7644  0.5037
18526TIP3    H176993   2.826   3.920  17.033  1.0802 -0.8842  1.2861
18526TIP3    H276994   2.730   3.809  17.072  1.8757 -2.0988 -0.1663
18527TIP3   OH276995   3.516   1.920  16.606  0.0634  0.6601  0.0928
18527TIP3    H176996   3.539   1.900  16.697  0.3763  0.3246 -0.0590
18527TIP3    H276997   3.450   1.855  16.583  1.1550 -0.2713 -0.4321
18528TIP3   OH276998   1.255   1.973   0.843  0.4542  0.0053  0.0483
18528TIP3    H176999   1.327   1.945   0.786  0.6851  1.0167 -0.1683
18528TIP3    H277000   1.281   1.944   0.931  1.3392  0.7446  0.0366
18529TIP3   OH277001   6.252   1.676   2.346  0.2684 -0.2873 -0.4724
18529TIP3    H177002   6.287   1.597   2.387 -0.0878 -0.0366  0.3256
18529TIP3    H277003   6.170   1.647   2.305 -0.8500  0.0787  1.4837
18530TIP3   OH277004   5.223   1.560   3.076 -0.0834 -0.1042  0.7581
18530TIP3    H177005   5.274   1.571   2.996  0.1445  0.6788  1.0069
18530TIP3    H277006   5.156   1.496   3.053 -0.7539  0.9970 -0.4072
18531TIP3   OH277007   4.238   6.384   3.014 -0.2267 -0.3288  0.1185
18531TIP3    H177008   4.158   6.390   2.962 -1.0771  1.0532  1.5279
18531TIP3    H277009   4.307   6.415   2.955 -1.1068  0.7917 -0.3494
18532TIP3   OH277010   0.626   4.548   3.684 -0.4274  0.3264  0.4737
18532TIP3    H177011   0.644   4.500   3.765 -0.2173 -0.8804 -0.2750
18532TIP3    H277012   0.631   4.640   3.709  1.7839 -0.0130  1.3635
18533TIP3   OH277013   6.182   6.228   2.030  0.3641  0.3544 -0.2094
18533TIP3    H177014   6.208   6.224   1.938 -1.8679 -1.0494 -0.8266
18533TIP3    H277015   6.263   6.213   2.079  1.3930  0.1209 -1.9606
18534TIP3   OH277016   1.194   2.243   0.109 -0.2309  0.4846 -0.1234
18534TIP3    H177017   1.109   2.236   0.153  0.8462 -0.4406  1.8780
18534TIP3    H277018   1.244   2.304   0.164  1.1021 -0.6073 -0.0920
18535TIP3   OH277019   3.131   2.604  16.579 -0.1137 -0.3705 -0.0340
18535TIP3    H177020   3.141   2.618  16.673 -2.4162  1.0528  0.0484
18535TIP3    H277021   3.220   2.604  16.545  0.7230 -0.5083  2.1012
18536TIP3   OH277022   2.636   6.611   3.208 -0.3806  0.2287  0.0131
18536TIP3    H177023   2.570   6.561   3.162 -0.4859 -0.5644  1.0086
18536TIP3    H277024   2.687   6.546   3.256 -0.5982  1.0696  1.4189
18537TIP3   OH277025   2.157   0.986   1.710  0.0398 -0.6893  0.0930
18537TIP3    H177026   2.100   0.952   1.779  1.8544  0.5320  2.2664
18537TIP3    H277027   2.244   0.950   1.731  0.7125  0.1088 -1.2499
18538TIP3   OH277028   5.371   6.303  11.068  0.1519  0.5511 -0.4948
18538TIP3    H177029   5.374   6.236  11.000  2.4783 -0.4611  0.5242
18538TIP3    H277030   5.415   6.379  11.030 -0.2560  0.6408 -0.7866
18539TIP3   OH277031   3.534   2.759   0.305  0.1051  0.3606  0.7318
18539TIP3    H177032   3.528   2.851   0.280 -0.8431 -0.3192 -1.6994
18539TIP3    H277033   3.481   2.713   0.240 -1.5206 -1.6657  3.3819
18540TIP3   OH277034   1.807   2.626   4.107  0.1818  0.2102 -0.0667
18540TIP3    H177035   1.735   2.598   4.050 -0.8061  0.7879  0.8719
18540TIP3    H277036   1.851   2.695   4.058  1.1398 -1.2631 -1.3566
18541TIP3   OH277037   4.460   5.189  11.923 -0.2947  0.7186 -0.0830
18541TIP3    H177038   4.381   5.140  11.944  0.8915 -1.2922 -0.2114
18541TIP3    H277039   4.518   5.125  11.883  0.5097  2.7277 -2.1925
18542TIP3   OH277040   6.177   3.857   4.850  0.0613 -0.6432 -0.0354
18542TIP3    H177041   6.129   3.774   4.860 -0.4798 -0.6928 -2.7564
18542TIP3    H277042   6.255   3.834   4.801  0.0362  0.4045 -0.5846
18543TIP3   OH277043   4.411   1.896   3.156  0.1922  0.0537  0.0708
18543TIP3    H177044   4.356   1.918   3.080  0.4079  0.4605  0.0332
18543TIP3    H277045   4.436   1.804   3.142  0.3059  0.1563 -0.3921
18544TIP3   OH277046   4.288   3.367  14.979 -0.4642  0.2766  0.3075
18544TIP3    H177047   4.334   3.451  14.974  0.9055 -0.4392  0.6401
18544TIP3    H277048   4.231   3.367  14.902 -0.1041  1.2927  0.0283
18545TIP3   OH277049   2.051   3.843   4.267 -0.4131  0.4226 -0.0828
18545TIP3    H177050   2.006   3.828   4.184 -0.6338 -4.1439  0.7325
18545TIP3    H277051   1.986   3.887   4.321 -0.8587  1.8615 -1.7403
18546TIP3   OH277052   3.531   2.904   5.624 -0.5143 -0.1970  0.1712
18546TIP3    H177053   3.482   2.977   5.584  0.4282 -0.4731 -1.5161
18546TIP3    H277054   3.622   2.931   5.619 -0.4077  0.0406  2.7757
18547TIP3   OH277055   3.779   1.287  14.040 -0.3199 -0.3689 -0.1193
18547TIP3    H177056   3.744   1.299  14.128  2.1236 -0.1352  0.8624
18547TIP3    H277057   3.702   1.288  13.983 -1.7650  1.5331  1.7843
18548TIP3   OH277058   2.259   3.354   3.713  0.1399 -0.0844 -0.2733
18548TIP3    H177059   2.301   3.303   3.644  0.3362 -0.4083  0.0764
18548TIP3    H277060   2.270   3.299   3.792  0.4307  0.5455  0.1258
18549TIP3   OH277061   0.720   3.853  15.365 -0.5856  0.7622  0.0837
18549TIP3    H177062   0.630   3.852  15.332 -0.1953 -0.4882 -0.9737
18549TIP3    H277063   0.711   3.845  15.460 -1.6933  3.5825  0.2776
18550TIP3   OH277064   1.893   0.527   4.489  0.5956  1.0547  0.2932
18550TIP3    H177065   1.855   0.473   4.558  3.0652 -0.0525  0.8807
18550TIP3    H277066   1.857   0.492   4.408  2.8415 -2.1862  0.5951
18551TIP3   OH277067   6.018   6.374   0.962 -0.6550  0.0377  0.3067
18551TIP3    H177068   5.972   6.335   1.035 -0.0175  1.4526  1.4891
18551TIP3    H277069   6.110   6.376   0.989 -0.2439 -0.4967 -1.0060
18552TIP3   OH277070   6.397   2.850  14.601 -0.4384 -0.1450 -0.8034
18552TIP3    H177071   6.445   2.931  14.620  1.7800 -0.9672 -2.6077
18552TIP3    H277072   6.465   2.789  14.570 -2.6389 -1.4171 -3.3065
18553TIP3   OH277073   3.433   1.762  12.971 -0.0627  0.0202  0.4400
18553TIP3    H177074   3.454   1.691  13.031  0.3761 -0.1341  0.1071
18553TIP3    H277075   3.411   1.718  12.889 -1.6642  0.1723  0.7589
18554TIP3   OH277076   2.636   6.666  15.777  0.3843 -0.0655 -0.1147
18554TIP3    H177077   2.674   6.645  15.863  0.0633  0.6397  0.2049
18554TIP3    H277078   2.713   6.677  15.720  0.7089  1.5269  0.5744
18555TIP3   OH277079   1.427   0.597   6.470 -0.1307  0.3275  0.4405
18555TIP3    H177080   1.434   0.519   6.415 -1.1718 -1.0984  2.3028
18555TIP3    H277081   1.356   0.647   6.430  0.8143  0.5554 -1.0033
18556TIP3   OH277082   5.244   3.093  14.425 -0.1040  0.9570 -0.6139
18556TIP3    H177083   5.249   3.022  14.490 -1.3202  1.0872 -0.3747
18556TIP3    H277084   5.327   3.140  14.435 -0.4539  1.2425  1.1731
18557TIP3   OH277085   6.334   0.925   5.581  0.2157  0.4248 -0.0901
18557TIP3    H177086   6.323   0.936   5.486  0.2574  0.8157 -0.0515
18557TIP3    H277087   6.261   0.870   5.608 -0.3165  1.0687 -0.2055
18558TIP3   OH277088   0.437   5.031   2.895  0.1211 -0.5597  0.1499
18558TIP3    H177089   0.388   5.081   2.830 -0.2527 -0.8777  0.1880
18558TIP3    H277090   0.377   4.962   2.923  0.0668 -0.0781  1.2521
18559TIP3   OH277091   0.802   2.893   1.712 -0.1752 -0.1723 -0.1544
18559TIP3    H177092   0.849   2.878   1.794  1.3252 -0.4986 -1.0511
18559TIP3    H277093   0.838   2.976   1.679 -0.6075 -0.1634 -0.6051
18560TIP3   OH277094   5.655   5.530  17.215  0.9832 -0.2430  0.4159
18560TIP3    H177095   5.748   5.507  17.211  1.1460  0.2139  1.4727
18560TIP3    H277096   5.618   5.469  17.278  1.0081  1.0007  1.6596
18561TIP3   OH277097   3.400   1.124  16.256  0.2637 -0.2171  0.2119
18561TIP3    H177098   3.361   1.052  16.205 -0.8186  0.9687 -0.6740
18561TIP3    H277099   3.478   1.149  16.206  0.3405 -0.4199  0.2299
18562TIP3   OH277100   1.108   4.063  16.169  0.0237  0.6040  0.0774
18562TIP3    H177101   1.127   4.118  16.093  1.2123  0.6425  0.4037
18562TIP3    H277102   1.031   4.012  16.142 -0.3337  1.5190 -0.6813
18563TIP3   OH277103   0.955   5.458   5.647  0.0725  0.1658  0.6624
18563TIP3    H177104   0.952   5.544   5.606  2.2109 -1.5896 -3.4525
18563TIP3    H277105   0.869   5.420   5.629 -0.4263  0.9104  1.4105
18564TIP3   OH277106   4.636   1.774   2.934 -0.2574  0.6824  0.0985
18564TIP3    H177107   4.625   1.683   2.908 -2.0032 -0.1930  3.6018
18564TIP3    H277108   4.731   1.786   2.941 -0.0646 -1.3957  1.3447
18565TIP3   OH277109   3.860   5.182  16.391  0.0010 -0.6183 -0.3341
18565TIP3    H177110   3.837   5.251  16.328  0.7859 -1.4433 -1.5485
18565TIP3    H277111   3.800   5.196  16.464  0.5699  1.7631 -0.2592
18566TIP3   OH277112   4.785   0.535   0.103  0.0517 -0.1146  0.1359
18566TIP3    H177113   4.691   0.523   0.102 -0.2835  2.2800  0.0971
18566TIP3    H277114   4.820   0.450   0.132 -2.1959 -0.4023  2.1005
18567TIP3   OH277115   2.841   5.460  13.430  0.4105  0.0184  0.3470
18567TIP3    H177116   2.818   5.439  13.339 -0.1268  1.1008  0.2230
18567TIP3    H277117   2.760   5.445  13.478 -0.1044  2.2037  0.1829
18568TIP3   OH277118   5.017   0.707   3.906  0.2435  0.0349  0.0124
18568TIP3    H177119   5.081   0.716   3.976 -0.6616 -0.1887  0.8746
18568TIP3    H277120   5.002   0.613   3.898 -0.0105  0.0866 -0.1434
18569TIP3   OH277121   4.368   3.645  16.006  0.4264 -0.2316  0.1362
18569TIP3    H177122   4.311   3.707  16.051  0.8068 -0.7917  1.4180
18569TIP3    H277123   4.354   3.562  16.052  1.1267 -0.7198 -0.5232
18570TIP3   OH277124   1.936   5.600  14.373  0.8418 -0.0584 -0.2932
18570TIP3    H177125   1.844   5.610  14.398  1.4285  2.5875  0.9531
18570TIP3    H277126   1.934   5.556  14.288 -1.5727 -0.1034 -0.2255
18571TIP3   OH277127   5.649   3.553   3.838 -0.2445  0.1948 -0.0896
18571TIP3    H177128   5.581   3.538   3.773 -0.4670 -0.3822  0.2720
18571TIP3    H277129   5.730   3.527   3.795 -0.2846  0.6035 -0.4187
18572TIP3   OH277130   1.352   3.854   4.483 -0.0448  0.1578 -0.0785
18572TIP3    H177131   1.303   3.778   4.515 -0.2672  0.4479  0.2741
18572TIP3    H277132   1.306   3.930   4.520 -1.5913  0.6202 -2.7983
18573TIP3   OH277133   2.450   3.762   5.498  0.3386  0.3702  0.3618
18573TIP3    H177134   2.512   3.769   5.570  0.8174  0.2962 -0.0433
18573TIP3    H277135   2.479   3.827   5.435  0.4329 -0.1517 -0.1422
18574TIP3   OH277136   6.181   1.143   3.729 -0.0402  0.4987 -0.1819
18574TIP3    H177137   6.157   1.234   3.750 -0.7170 -0.0377  1.3961
18574TIP3    H277138   6.180   1.141   3.633 -1.9188  1.6816 -0.2353
18575TIP3   OH277139   1.183   6.505   3.436  0.0689  0.0193 -0.2426
18575TIP3    H177140   1.178   6.518   3.341 -1.7569 -0.4513 -0.2405
18575TIP3    H277141   1.162   6.413   3.449  0.1060  0.1291  0.6284
18576TIP3   OH277142   1.642   2.512  11.287  0.6166 -0.6370 -0.0591
18576TIP3    H177143   1.589   2.589  11.307  0.0828 -0.2600 -2.7824
18576TIP3    H277144   1.726   2.548  11.258  0.3301 -1.0442 -1.4378
18577TIP3   OH277145   5.822   2.734   1.847  0.3429 -0.1397  0.8089
18577TIP3    H177146   5.854   2.678   1.776 -0.2963 -0.4202  0.7424
18577TIP3    H277147   5.901   2.772   1.885  0.7964 -1.2904  1.0295
18578TIP3   OH277148   3.659   0.264  11.500 -0.0435 -0.4458  0.0940
18578TIP3    H177149   3.619   0.242  11.584 -0.1269  0.3468  0.2745
18578TIP3    H277150   3.598   0.232  11.435 -0.5211 -0.0914  0.3574
18579TIP3   OH277151   5.685   2.683  10.675 -0.4275 -0.1372  0.4196
18579TIP3    H177152   5.770   2.644  10.691 -0.8313 -0.7218  1.1967
18579TIP3    H277153   5.668   2.668  10.582 -0.4570 -1.5819  0.6496
18580TIP3   OH277154   2.905   2.783  11.874  0.4253  0.6110 -0.1598
18580TIP3    H177155   2.812   2.779  11.854  0.2473  1.7418  0.3880
18580TIP3    H277156   2.910   2.777  11.970  0.8329  1.7540 -0.1011
18581TIP3   OH277157   4.600   5.781   2.806  0.1645  0.8049 -0.1920
18581TIP3    H177158   4.654   5.844   2.758  0.2115  0.9180  0.0094
18581TIP3    H277159   4.661   5.711   2.830 -0.6536 -1.3090 -3.8632
18582TIP3   OH277160   0.077   5.783   1.143 -0.0536 -0.1881  0.4008
18582TIP3    H177161   0.008   5.842   1.113 -0.1376 -0.3284  0.3168
18582TIP3    H277162   0.155   5.839   1.152 -0.0141 -0.1549 -0.1274
18583TIP3   OH277163   6.053   6.532  15.595  0.5799  0.3181  0.1279
18583TIP3    H177164   6.018   6.524  15.683 -3.2645 -1.2185 -1.4402
18583TIP3    H277165   6.033   6.621  15.569 -2.7855 -0.6879 -0.9310
18584TIP3   OH277166   5.032   5.878   2.198 -0.1495  0.1465 -0.6088
18584TIP3    H177167   5.121   5.870   2.163 -0.0946 -0.4183 -0.3387
18584TIP3    H277168   4.995   5.790   2.191  1.1109 -0.8787  4.0933
18585TIP3   OH277169   4.702   3.903  11.255 -0.0043  0.3311  0.0157
18585TIP3    H177170   4.711   3.808  11.263 -1.2105  0.2227  0.3268
18585TIP3    H277171   4.677   3.918  11.164 -0.0150  0.3278  0.0182
18586TIP3   OH277172   1.244   3.740  12.673 -0.6315  0.0506 -0.2210
18586TIP3    H177173   1.158   3.706  12.648 -0.7630  0.3318 -0.1470
18586TIP3    H277174   1.276   3.678  12.739 -0.6913 -0.1634 -0.3918
18587TIP3   OH277175   0.293   6.739   6.183 -0.1541 -0.0299  0.3175
18587TIP3    H177176   0.277   6.645   6.170  0.3070 -0.0288 -0.2792
18587TIP3    H277177   0.368   6.742   6.243  2.4304 -0.0920 -2.7628
18588TIP3   OH277178   5.843   6.131  17.124 -0.1423 -0.2586 -0.1320
18588TIP3    H177179   5.826   6.041  17.095  0.4101 -0.2313 -0.5429
18588TIP3    H277180   5.812   6.186  17.053  0.5003 -0.1644 -0.3424
18589TIP3   OH277181   0.469   4.074   3.159 -0.0351  0.2473  0.1108
18589TIP3    H177182   0.386   4.118   3.140 -1.8537 -0.9596  4.6644
18589TIP3    H277183   0.494   4.034   3.075 -3.2940  1.8247 -1.7365
18590TIP3   OH277184   1.232   1.229  14.910 -0.0298 -0.5350  0.4015
18590TIP3    H177185   1.221   1.134  14.915  0.3965 -0.6632 -0.7671
18590TIP3    H277186   1.245   1.246  14.816  1.8220  0.4528  0.8211
18591TIP3   OH277187   5.381   3.867  13.585 -0.5195  0.2314  0.1800
18591TIP3    H177188   5.418   3.891  13.670  0.2907 -0.6557  0.0931
18591TIP3    H277189   5.304   3.922  13.575 -0.7915  0.1139  1.6258
18592TIP3   OH277190   2.406   2.161  11.782 -0.3999 -0.1492 -0.3290
18592TIP3    H177191   2.352   2.100  11.732 -0.9471  1.8873 -2.2673
18592TIP3    H277192   2.348   2.195  11.850 -0.4945 -0.7157 -0.1247
18593TIP3   OH277193   5.903   2.094  15.752  0.1036 -0.1603  0.3417
18593TIP3    H177194   5.887   2.061  15.840 -1.2721 -1.0782 -0.2273
18593TIP3    H277195   5.831   2.155  15.736 -0.1212 -0.6046 -0.4216
18594TIP3   OH277196   1.680   0.545  13.835 -0.0899 -0.0982 -0.4439
18594TIP3    H177197   1.633   0.553  13.752 -0.0153 -1.7129 -0.6523
18594TIP3    H277198   1.645   0.617  13.889 -1.9581 -0.5642 -1.0012
18595TIP3   OH277199   4.992   3.350  12.160 -0.3515 -0.2318  0.7008
18595TIP3    H177200   4.897   3.347  12.171 -0.3955  0.4241  0.5602
18595TIP3    H277201   5.007   3.430  12.109  0.0752 -1.6065 -1.3849
18596TIP3   OH277202   3.818   2.827  16.062 -0.3219 -0.5424  0.3448
18596TIP3    H177203   3.874   2.779  16.123  2.0747 -0.3970 -1.6852
18596TIP3    H277204   3.760   2.760  16.026  1.4655 -1.5588 -0.7552
18597TIP3   OH277205   1.660   2.150  11.279  0.1068  0.0746 -0.8854
18597TIP3    H177206   1.635   2.234  11.319  0.3819 -0.2621  0.0095
18597TIP3    H277207   1.659   2.088  11.352 -0.3251 -0.7567 -1.5922
18598TIP3   OH277208   1.469   0.299   5.736  0.0150  0.0421 -0.4999
18598TIP3    H177209   1.431   0.238   5.799  1.3565  0.0474  0.3284
18598TIP3    H277210   1.550   0.256   5.708  1.5104  1.8877  0.8757
18599TIP3   OH277211   3.752   5.622   4.315 -0.1857 -0.0273  0.0897
18599TIP3    H177212   3.701   5.552   4.355 -1.5034 -0.0427 -1.5708
18599TIP3    H277213   3.843   5.598   4.332 -0.6607 -1.4881  0.6295
18600TIP3   OH277214   1.595   1.788   0.901  0.4380 -0.4299  0.0450
18600TIP3    H177215   1.522   1.793   0.962  0.7806  1.9630  0.2908
18600TIP3    H277216   1.555   1.789   0.815  0.1965  1.5210  0.1718
18601TIP3   OH277217   0.129   0.036   0.492  0.0976 -0.1515 -0.5796
18601TIP3    H177218   0.063   0.039   0.561 -0.4987 -1.0951 -1.0960
18601TIP3    H277219   0.163   0.126   0.487 -1.9733  0.6298 -1.1017
18602TIP3   OH277220   1.276   5.459  14.776  0.0908  0.1165  0.2011
18602TIP3    H177221   1.229   5.431  14.855 -0.7510 -0.0624 -0.3588
18602TIP3    H277222   1.207   5.471  14.710  0.5027  2.8214  0.2186
18603TIP3   OH277223   6.471   5.216  10.662  0.2828 -0.1016  0.0567
18603TIP3    H177224   6.528   5.201  10.737 -1.5350 -2.3099  1.0202
18603TIP3    H277225   6.433   5.131  10.642 -0.3748  0.7351 -2.4791
18604TIP3   OH277226   3.928   1.246  13.443  0.2574  0.1062 -0.3765
18604TIP3    H177227   3.882   1.316  13.396 -0.0504  0.7595  0.8633
18604TIP3    H277228   3.937   1.176  13.379 -2.1417  0.1113 -0.7697
18605TIP3   OH277229   5.882   2.653   0.954  0.1013  0.1545  0.4577
18605TIP3    H177230   5.904   2.590   1.023 -1.0712 -0.5299  0.2115
18605TIP3    H277231   5.789   2.670   0.966 -0.1288 -0.0358 -1.0210
18606TIP3   OH277232   0.984   2.430  13.557  0.4016 -0.1573 -0.1443
18606TIP3    H177233   0.923   2.499  13.531  0.7326  0.6012  1.0721
18606TIP3    H277234   0.950   2.352  13.514 -2.3697 -0.1010  1.7320
18607TIP3   OH277235   5.834   3.463   0.971 -0.1376  0.6189 -0.5093
18607TIP3    H177236   5.764   3.413   1.013  0.2459  0.4702 -0.0511
18607TIP3    H277237   5.801   3.480   0.883  0.5008 -2.0315 -1.2887
18608TIP3   OH277238   4.621   3.261   4.939  0.7653  0.2755  0.6218
18608TIP3    H177239   4.596   3.351   4.917 -1.9153 -0.4712  0.4156
18608TIP3    H277240   4.581   3.245   5.024  2.4565 -0.2623  1.3355
18609TIP3   OH277241   2.750   5.733   6.028 -0.2617 -0.0195  0.3368
18609TIP3    H177242   2.836   5.768   6.049  0.9460 -2.1606 -0.8649
18609TIP3    H277243   2.688   5.798   6.062  1.7600  0.4970  3.2587
18610TIP3   OH277244   2.151   6.567  11.592  0.9430 -0.2137  0.1137
18610TIP3    H177245   2.108   6.636  11.542 -1.5586 -0.8697  1.2501
18610TIP3    H277246   2.140   6.488  11.539  1.3424 -0.2644  0.1023
18611TIP3   OH277247   1.396   3.379   5.055  0.3086 -0.0570  0.3874
18611TIP3    H177248   1.432   3.420   4.976 -1.3645 -2.8465 -1.9110
18611TIP3    H277249   1.315   3.427   5.072  0.8732  0.8102  0.6928
18612TIP3   OH277250   2.125   0.924  13.122 -0.3954 -0.4346 -0.1255
18612TIP3    H177251   2.130   0.843  13.174 -0.3612 -0.7559 -0.6240
18612TIP3    H277252   2.034   0.929  13.094 -0.0391 -1.2118 -1.5171
18613TIP3   OH277253   1.434   4.231  11.980 -0.1031 -0.1427  0.5354
18613TIP3    H177254   1.486   4.178  11.920 -1.0247 -0.8899  0.3944
18613TIP3    H277255   1.453   4.322  11.956  2.0021 -0.3734  1.2062
18614TIP3   OH277256   3.586   6.412   1.320 -0.0564 -0.3460 -0.1805
18614TIP3    H177257   3.595   6.464   1.400  0.7833 -0.7432 -0.0086
18614TIP3    H277258   3.646   6.339   1.332 -1.3031 -1.4123 -0.3899
18615TIP3   OH277259   4.803   3.182  14.067  0.0694  0.0020  0.2416
18615TIP3    H177260   4.761   3.100  14.040  1.0421 -0.9815  1.6682
18615TIP3    H277261   4.894   3.158  14.085  0.0970  1.1769  1.7341
18616TIP3   OH277262   3.187   3.820  12.294  0.0876  0.1978 -0.0803
18616TIP3    H177263   3.212   3.734  12.328 -1.4336 -0.7559 -1.3119
18616TIP3    H277264   3.137   3.860  12.366  3.5032  1.4342  1.7428
18617TIP3   OH277265   3.394   0.011  15.570  0.8015  0.0359 -0.5314
18617TIP3    H177266   3.468  -0.029  15.526  0.5322  0.5131 -1.4332
18617TIP3    H277267   3.374   0.089  15.517  1.1412  1.2004  1.0219
18618TIP3   OH277268   3.635   1.808  13.222 -0.1052 -0.2097 -0.2422
18618TIP3    H177269   3.630   1.867  13.297  1.7444 -0.8378  0.3988
18618TIP3    H277270   3.557   1.752  13.230 -0.1344 -0.0007  0.9671
18619TIP3   OH277271   5.263   3.655   5.135 -0.0004  0.1081  0.0696
18619TIP3    H177272   5.199   3.585   5.145  0.5001 -0.1741  1.3383
18619TIP3    H277273   5.265   3.699   5.220 -0.2458  1.6145 -0.6865
18620TIP3   OH277274   3.825   2.339  12.532  0.1180  0.0911 -0.7579
18620TIP3    H177275   3.919   2.322  12.541  0.3339  1.4536 -0.4194
18620TIP3    H277276   3.818   2.434  12.526 -1.4138  0.1759  1.5434
18621TIP3   OH277277   0.795   3.074  15.129  0.1876  0.6029  0.7151
18621TIP3    H177278   0.852   3.150  15.130  0.2882  0.5297  0.6034
18621TIP3    H277279   0.808   3.033  15.214  0.0824  0.7484  0.8006
18622TIP3   OH277280   4.382   3.225  12.491  0.3222  0.4515  0.0029
18622TIP3    H177281   4.458   3.277  12.466 -0.4660  0.8233 -1.7332
18622TIP3    H277282   4.370   3.243  12.584  1.6028  1.3665  0.0011
18623TIP3   OH277283   0.962   1.948   6.289 -0.0596  0.0065 -0.2029
18623TIP3    H177284   0.912   1.945   6.371 -1.1893  1.6342 -0.8242
18623TIP3    H277285   1.048   1.980   6.315 -0.0361 -0.6151  0.5164
18624TIP3   OH277286   5.279   3.433  12.951  0.0709  0.1932 -0.1151
18624TIP3    H177287   5.274   3.343  12.920  0.1596 -0.4510  1.6830
18624TIP3    H277288   5.306   3.425  13.043 -1.4538  1.9792  0.5090
18625TIP3   OH277289   0.883   1.328  12.667 -0.1546 -0.0329  0.5874
18625TIP3    H177290   0.849   1.316  12.756  0.9200 -0.8441  0.9071
18625TIP3    H277291   0.978   1.324  12.678 -0.0130  0.0756 -0.5716
18626TIP3   OH277292   4.766   0.340   2.356 -0.3087 -0.2707  0.6388
18626TIP3    H177293   4.697   0.399   2.387 -0.5907  0.4488 -1.2442
18626TIP3    H277294   4.744   0.326   2.263  1.2380 -1.2460  0.4119
18627TIP3   OH277295   3.776   5.999   1.088  0.1989 -0.5849  0.6062
18627TIP3    H177296   3.805   5.934   1.024  1.5668  0.8495 -0.2757
18627TIP3    H277297   3.826   5.979   1.167  1.2137 -0.1219  0.0869
18628TIP3   OH277298   0.099   6.748  15.894 -0.3107 -0.4478 -0.2092
18628TIP3    H177299   0.119   6.834  15.932 -0.0933  0.3138 -1.9673
18628TIP3    H277300   0.056   6.700  15.964  0.5080  0.7298  1.1318
18629TIP3   OH277301   2.167   1.549   0.767  0.4221 -0.1622  0.1390
18629TIP3    H177302   2.214   1.538   0.850 -0.5726  1.1780  0.9206
18629TIP3    H277303   2.077   1.520   0.787  0.3512 -0.4929 -0.6651
18630TIP3   OH277304   3.698   4.584   0.797 -0.3195  0.1439 -0.0994
18630TIP3    H177305   3.693   4.491   0.819  1.3598  0.3120  1.0710
18630TIP3    H277306   3.607   4.610   0.783 -0.8788 -1.4767  0.3963
18631TIP3   OH277307   2.214   2.295   2.685  0.0425  0.2574 -0.8070
18631TIP3    H177308   2.147   2.292   2.752 -0.3002 -0.3884 -1.1691
18631TIP3    H277309   2.221   2.387   2.661 -0.3631  0.3872 -0.4247
18632TIP3   OH277310   2.898   2.816  13.537 -0.1076 -0.6796  0.0145
18632TIP3    H177311   2.931   2.733  13.571  2.4175  0.1439 -0.3443
18632TIP3    H277312   2.832   2.791  13.472  2.3852 -2.4932 -1.9048
18633TIP3   OH277313   2.790   4.868  11.349  0.0774 -0.3599 -0.2018
18633TIP3    H177314   2.722   4.841  11.411  0.3069  0.5030  0.4236
18633TIP3    H277315   2.744   4.876  11.266 -0.2858 -1.2558 -0.0956
18634TIP3   OH277316   6.147   5.196   6.266 -0.2085 -0.7880 -0.0953
18634TIP3    H177317   6.218   5.152   6.220 -0.6083 -0.8815 -0.6295
18634TIP3    H277318   6.190   5.251   6.331  0.3930  0.1663 -1.3054
18635TIP3   OH277319   1.318   3.637   4.172  0.2776 -0.0495  0.8585
18635TIP3    H177320   1.232   3.650   4.212 -0.1209  0.5067 -0.1590
18635TIP3    H277321   1.371   3.597   4.241 -1.0141 -1.1151  1.2434
18636TIP3   OH277322   2.013   0.407  14.115 -0.1772 -0.1764 -0.6692
18636TIP3    H177323   1.982   0.495  14.138  0.8254 -0.2018  0.8628
18636TIP3    H277324   1.941   0.368  14.066 -1.4930  0.7341  0.5103
18637TIP3   OH277325   3.147   6.210   0.196 -0.0130 -0.3930  0.2019
18637TIP3    H177326   3.128   6.118   0.175 -1.1955 -0.2633  0.6929
18637TIP3    H277327   3.192   6.206   0.281  0.8196 -0.5802 -0.2370
18638TIP3   OH277328   1.574   6.378   1.742  0.4060 -0.6200 -0.3302
18638TIP3    H177329   1.610   6.466   1.757  1.6904 -1.3507  0.9404
18638TIP3    H277330   1.510   6.391   1.672  0.8282  1.2734 -0.4075
18639TIP3   OH277331   3.734   2.364   0.631 -0.4339  0.3391  0.2253
18639TIP3    H177332   3.739   2.458   0.617 -1.8997  0.1479 -1.8269
18639TIP3    H277333   3.640   2.346   0.641 -0.2628 -1.0453 -0.5287
18640TIP3   OH277334   0.415   1.670  13.998  0.0240  0.2128 -0.5829
18640TIP3    H177335   0.385   1.729  13.929  0.5945  1.1256 -0.0680
18640TIP3    H277336   0.430   1.587  13.954 -3.5308 -0.3704 -0.8010
18641TIP3   OH277337   3.116   6.695  11.061  0.5021  0.2300  0.5345
18641TIP3    H177338   3.028   6.733  11.060  0.4943  0.4447  3.5842
18641TIP3    H277339   3.107   6.613  11.012 -0.9147  1.1619 -0.8359
18642TIP3   OH277340   5.188   3.182  15.084  0.1016 -0.5399  0.3277
18642TIP3    H177341   5.121   3.250  15.095 -0.6984 -0.9818 -1.5323
18642TIP3    H277342   5.240   3.186  15.164 -2.1889 -0.2222  1.8655
18643TIP3   OH277343   0.019   6.328   2.058  0.6278 -0.4657  0.0925
18643TIP3    H177344  -0.065   6.287   2.038  1.5334 -2.5081  0.3461
18643TIP3    H277345   0.077   6.299   1.987  1.1682  0.8398 -0.0254
18644TIP3   OH277346   4.665   3.415   6.396 -0.0099  0.4543  0.3550
18644TIP3    H177347   4.617   3.434   6.315  0.4812  1.7831  0.3539
18644TIP3    H277348   4.752   3.386   6.367  0.1505  0.8846  0.4019
18645TIP3   OH277349   1.502   0.781   1.511  0.1535 -0.0593  0.1958
18645TIP3    H177350   1.497   0.816   1.422 -1.8537  0.1132  0.3486
18645TIP3    H277351   1.571   0.832   1.553 -1.0959  2.0967 -0.3027
18646TIP3   OH277352   3.705   1.229  11.001 -0.0161  0.2661 -0.0985
18646TIP3    H177353   3.794   1.224  10.967  0.4392  1.1857  0.9168
18646TIP3    H277354   3.659   1.288  10.941  0.2842  0.4365 -0.1612
18647TIP3   OH277355   0.640   2.058  11.030 -0.3545  0.8792 -0.8756
18647TIP3    H177356   0.636   2.123  10.960  2.3930  1.1777 -0.8146
18647TIP3    H277357   0.655   1.975  10.985  0.6097  0.9560 -0.7105
18648TIP3   OH277358   1.757   2.761   3.699 -0.3880 -0.1763  0.3203
18648TIP3    H177359   1.718   2.809   3.772 -0.6259 -1.2770  0.9358
18648TIP3    H277360   1.802   2.688   3.740  0.2578 -0.2885 -0.5766
18649TIP3   OH277361   3.267   1.979   5.641  0.9825  0.4332 -0.4001
18649TIP3    H177362   3.176   1.951   5.638  0.6690  1.5056 -1.4774
18649TIP3    H277363   3.267   2.064   5.596  2.5238  0.3837 -0.5158
18650TIP3   OH277364   0.896   0.225  16.901  0.0410  0.2238  0.0752
18650TIP3    H177365   0.845   0.268  16.969 -0.2338  0.9422 -0.5830
18650TIP3    H277366   0.899   0.288  16.829  1.2757 -0.0818 -0.1531
18651TIP3   OH277367   3.855   0.044  11.563  0.2803  0.5937  0.0718
18651TIP3    H177368   3.824   0.126  11.526 -0.9523  0.4260  0.7272
18651TIP3    H277369   3.847   0.055  11.658  1.0649  0.0885  0.2068
18652TIP3   OH277370   0.799   1.316  13.551 -0.5301  0.8145  0.3173
18652TIP3    H177371   0.854   1.332  13.474 -0.3824  1.3330  0.5246
18652TIP3    H277372   0.774   1.404  13.581 -1.4510  0.5879  0.2405
18653TIP3   OH277373   4.214   0.246   3.809  0.4891  0.0962 -0.5873
18653TIP3    H177374   4.148   0.179   3.791  0.7041 -0.4700  0.7152
18653TIP3    H277375   4.177   0.326   3.771  0.0762 -0.6723 -1.8338
18654TIP3   OH277376   5.129   3.675   4.374 -0.8381  0.0235 -0.1128
18654TIP3    H177377   5.091   3.630   4.449 -0.3646 -0.5901 -0.2327
18654TIP3    H277378   5.223   3.678   4.392 -0.8403  0.7367 -0.2291
18655TIP3   OH277379   6.501   0.379   2.990  0.2170 -0.0502 -0.2042
18655TIP3    H177380   6.458   0.439   3.051 -0.9612 -0.1532 -0.9296
18655TIP3    H277381   6.433   0.317   2.965  1.2043 -1.2062 -0.1142
18656TIP3   OH277382   5.628   5.860   4.510  0.7861  0.1076  0.1833
18656TIP3    H177383   5.588   5.846   4.425 -0.7734 -0.5916  1.0144
18656TIP3    H277384   5.652   5.772   4.541  0.8506  0.3013  0.7035
18657TIP3   OH277385   6.672   3.440  15.959  0.0021 -0.3328 -0.4932
18657TIP3    H177386   6.732   3.366  15.952  0.4465  0.0505 -0.7634
18657TIP3    H277387   6.713   3.498  16.024 -0.4954 -0.4668 -0.0552
18658TIP3   OH277388   0.411   5.977   3.483 -0.0269 -0.7675 -0.1411
18658TIP3    H177389   0.364   6.023   3.414 -0.0692 -1.1962 -0.4047
18658TIP3    H277390   0.370   6.006   3.564  0.7498  0.5706 -0.2260
18659TIP3   OH277391   3.763   0.753   0.757  0.0193  0.2540 -0.2283
18659TIP3    H177392   3.812   0.680   0.720 -1.4887 -0.6259 -0.5250
18659TIP3    H277393   3.736   0.723   0.844 -0.0203  0.7163 -0.0756
18660TIP3   OH277394   4.972   2.280   2.077  0.1898 -0.7260  0.4929
18660TIP3    H177395   4.919   2.293   1.998  0.2871  1.4006  0.7650
18660TIP3    H277396   4.919   2.318   2.148  0.9851 -0.8334  1.1488
18661TIP3   OH277397   5.617   6.628  15.613  0.5876  0.2391 -0.3218
18661TIP3    H177398   5.569   6.552  15.647 -1.4052  1.0293 -1.2392
18661TIP3    H277399   5.682   6.590  15.554 -1.3446 -0.7463 -1.9118
18662TIP3   OH277400   5.537   3.228  12.866 -0.0164 -0.0383  0.0602
18662TIP3    H177401   5.543   3.320  12.891 -0.7189 -0.1083  0.4986
18662TIP3    H277402   5.586   3.222  12.784 -0.6555  0.8873 -0.3927
18663TIP3   OH277403   6.063   2.502   5.399 -0.8004  0.1607 -0.1800
18663TIP3    H177404   6.158   2.496   5.389 -0.8244 -0.9028  0.2058
18663TIP3    H277405   6.037   2.572   5.339  0.4373  1.6723  0.9865
18664TIP3   OH277406   0.844   3.587   4.251 -0.4356  1.1162 -0.1759
18664TIP3    H177407   0.757   3.617   4.224 -0.9157  0.6279  0.7786
18664TIP3    H277408   0.862   3.511   4.196  0.6086  2.8615 -2.3165
18665TIP3   OH277409   4.526   2.067   5.137 -0.1694 -0.0484 -0.0223
18665TIP3    H177410   4.508   1.988   5.188 -2.7182 -0.7425 -1.9045
18665TIP3    H277411   4.571   2.035   5.059  0.0903  0.5319 -0.1082
18666TIP3   OH277412   2.789   1.245   2.830  0.3570 -0.3041  0.5757
18666TIP3    H177413   2.785   1.164   2.882  1.9310 -0.8237 -0.0881
18666TIP3    H277414   2.837   1.220   2.751  0.6311  1.2310  0.2426
18667TIP3   OH277415   0.211   4.928  11.078  0.7506  0.3454 -0.5148
18667TIP3    H177416   0.253   4.992  11.020  1.1667  0.2994 -0.2684
18667TIP3    H277417   0.125   4.966  11.097  0.7435  0.5207 -0.8943
18668TIP3   OH277418   0.106   0.665  16.832  0.2521  0.1591 -0.0674
18668TIP3    H177419   0.023   0.630  16.797 -0.2320 -0.3451  1.5677
18668TIP3    H277420   0.149   0.702  16.755 -0.2654 -1.9643 -1.4488
18669TIP3   OH277421   2.666   4.945   4.777  0.2245 -0.1707  0.5218
18669TIP3    H177422   2.691   4.853   4.789  1.4608  0.0335 -0.3309
18669TIP3    H277423   2.733   4.994   4.825  0.6275  0.3380 -0.5477
18670TIP3   OH277424   0.870   1.613  12.551  0.5254 -0.1617  0.1835
18670TIP3    H177425   0.806   1.553  12.511 -1.0192  2.3968 -1.2907
18670TIP3    H277426   0.830   1.640  12.633 -0.0577  0.9937 -0.4687
18671TIP3   OH277427   2.014   0.002   4.547 -0.3549 -0.5220  0.1015
18671TIP3    H177428   2.070  -0.075   4.544  0.5857  0.1664 -0.3614
18671TIP3    H277429   2.031   0.042   4.632  1.3287  0.7477 -0.7993
18672TIP3   OH277430   4.376   4.358   0.745  0.1430 -0.0236 -0.1629
18672TIP3    H177431   4.444   4.324   0.688 -0.0064  2.9524 -2.2150
18672TIP3    H277432   4.322   4.413   0.688 -1.6993  0.7432  2.2377
18673TIP3   OH277433   2.746   2.127   1.270 -0.5786  0.3735  0.6158
18673TIP3    H177434   2.780   2.214   1.288  0.2079 -0.1057  1.4692
18673TIP3    H277435   2.795   2.069   1.328 -0.6865 -0.7144 -0.3673
18674TIP3   OH277436   3.850   6.547  15.069  0.2750 -0.5842 -0.4065
18674TIP3    H177437   3.845   6.473  15.130 -0.2697 -0.3464 -0.1562
18674TIP3    H277438   3.810   6.513  14.988  0.0720 -0.5801 -0.3089
18675TIP3   OH277439   6.651   2.938  16.160 -0.0192  0.1521  0.2992
18675TIP3    H177440   6.706   2.998  16.210 -0.0944  0.6801 -0.2536
18675TIP3    H277441   6.666   2.853  16.201  2.2270  0.0380 -0.6897
18676TIP3   OH277442   0.189   5.556   2.667  0.1674  0.1319  0.1455
18676TIP3    H177443   0.096   5.534   2.673  0.3662 -0.1873  2.9273
18676TIP3    H277444   0.223   5.539   2.755  2.4261  2.1781 -0.2677
18677TIP3   OH277445   0.615   6.204   2.863 -0.4660  0.5098  0.0084
18677TIP3    H177446   0.660   6.285   2.888  0.4504  0.6882 -2.1225
18677TIP3    H277447   0.557   6.230   2.791 -2.1932 -0.2071  1.1156
18678TIP3   OH277448   4.083   3.128   2.459  0.0188 -0.5157 -0.0537
18678TIP3    H177449   4.061   3.192   2.391  0.7003  0.3310  0.5052
18678TIP3    H277450   3.998   3.099   2.493 -0.2945  0.4557  0.0192
18679TIP3   OH277451   3.575   6.399  12.964  0.0877  0.3957  0.6577
18679TIP3    H177452   3.640   6.469  12.968 -0.4951  1.3034 -3.2387
18679TIP3    H277453   3.491   6.444  12.978 -0.2960  0.5907 -1.9581
18680TIP3   OH277454   5.943   0.455   5.483  0.0522 -0.5261 -0.6050
18680TIP3    H177455   5.853   0.459   5.451  0.6588  1.0510 -2.2164
18680TIP3    H277456   5.940   0.395   5.557 -2.5694  0.5030  0.1761
18681TIP3   OH277457   0.214   5.898  11.353  0.1875 -0.2947 -0.0947
18681TIP3    H177458   0.263   5.898  11.435 -0.2736 -0.1793  0.1814
18681TIP3    H277459   0.151   5.969  11.363 -0.3838 -0.7778 -0.2426
18682TIP3   OH277460   2.611   0.839  16.039  0.1542 -0.2621 -0.6084
18682TIP3    H177461   2.663   0.910  16.078  0.8053  1.4124 -4.2916
18682TIP3    H277462   2.673   0.769  16.023  0.0881 -0.5449  0.3318
18683TIP3   OH277463   3.078   0.976  14.964 -0.0700  0.4752 -0.0376
18683TIP3    H177464   3.120   0.900  15.005 -1.4225  0.0647  0.5967
18683TIP3    H277465   3.072   0.952  14.871  3.1061  1.4630 -0.5722
18684TIP3   OH277466   1.637   5.165   1.775  0.1287 -0.0639  0.3411
18684TIP3    H177467   1.589   5.104   1.719 -0.7415  0.9848 -0.0724
18684TIP3    H277468   1.672   5.110   1.846 -1.3303 -0.9205  0.4210
18685TIP3   OH277469   4.544   4.436   6.018  0.0846  0.1896 -0.2897
18685TIP3    H177470   4.579   4.384   6.091  0.4914 -0.6435 -1.0779
18685TIP3    H277471   4.486   4.499   6.061  1.3040  0.5544  0.8810
18686TIP3   OH277472   0.762   0.558  14.183  0.0373 -0.1577 -0.3571
18686TIP3    H177473   0.718   0.550  14.098 -0.3023 -0.3289 -0.1668
18686TIP3    H277474   0.720   0.493  14.238  0.0882  0.1234  0.0139
18687TIP3   OH277475   0.753   1.166   5.332 -0.5275 -0.3862  0.0106
18687TIP3    H177476   0.688   1.133   5.270  0.2863 -0.5673 -0.7482
18687TIP3    H277477   0.785   1.247   5.293  1.0436 -1.2555 -0.5174
18688TIP3   OH277478   6.018   0.881   0.075 -0.2828 -0.7571 -0.4103
18688TIP3    H177479   6.109   0.857   0.059  0.2381 -0.0192  1.2930
18688TIP3    H277480   6.024   0.962   0.127 -1.9054 -0.4445 -0.7073
18689TIP3   OH277481   2.337   5.429   2.670 -0.1429  0.3349 -0.2445
18689TIP3    H177482   2.396   5.499   2.699  0.9909 -0.8188  0.2739
18689TIP3    H277483   2.259   5.475   2.639  0.9241  1.8802 -0.7126
18690TIP3   OH277484   3.787   0.445  15.526 -0.0507  0.2297  0.4616
18690TIP3    H177485   3.832   0.361  15.532 -0.4150 -0.0333 -0.4330
18690TIP3    H277486   3.699   0.422  15.497  1.2138  1.2712 -4.7162
18691TIP3   OH277487   0.070   6.501  14.658  0.2316  0.3755 -0.1836
18691TIP3    H177488   0.156   6.512  14.699 -0.1353 -0.0069  0.6844
18691TIP3    H277489   0.090   6.478  14.567  1.0532 -0.2156  0.1403
18692TIP3   OH277490   2.541   5.151   4.096 -0.6362 -0.6130 -0.1114
18692TIP3    H177491   2.544   5.211   4.171 -0.5056 -2.5522  1.4958
18692TIP3    H277492   2.621   5.169   4.047 -0.5485  0.4476  0.4111
18693TIP3   OH277493   2.361   6.701   3.540 -0.3258  0.1236 -0.4030
18693TIP3    H177494   2.429   6.738   3.484  0.2975  0.0461  0.2959
18693TIP3    H277495   2.376   6.740   3.626 -2.3194  1.5360 -0.6664
18694TIP3   OH277496   6.699   3.515   5.429 -0.1700 -0.4948  0.6750
18694TIP3    H177497   6.724   3.596   5.475  0.6310  0.2436 -1.0160
18694TIP3    H277498   6.746   3.519   5.346 -1.1188 -2.1038  0.0338
18695TIP3   OH277499   6.643   2.717  16.864 -0.1900  0.3569  0.1022
18695TIP3    H177500   6.631   2.648  16.799  1.5169  0.5129 -0.4186
18695TIP3    H277501   6.590   2.790  16.832 -1.4279 -0.4465  0.2713
18696TIP3   OH277502   1.995   4.838   1.439 -0.2980  0.3957 -0.2138
18696TIP3    H177503   2.021   4.847   1.531 -1.2450  0.2895  0.0639
18696TIP3    H277504   1.960   4.750   1.432 -2.4831  1.2263 -0.1081
18697TIP3   OH277505   1.840   5.342   3.913  0.5816 -0.6119  0.0725
18697TIP3    H177506   1.796   5.380   3.990 -0.3837 -1.4629 -0.0420
18697TIP3    H277507   1.933   5.360   3.927  0.3005  0.2696  0.8681
18698TIP3   OH277508   3.631   5.936   5.839  0.0201 -0.4851 -0.4225
18698TIP3    H177509   3.653   5.844   5.849  0.3110 -0.2326  1.6246
18698TIP3    H277510   3.563   5.952   5.905  0.8614  1.0340  0.1130
18699TIP3   OH277511   2.316   5.556   0.095 -0.3295  0.2564  0.7429
18699TIP3    H177512   2.300   5.464   0.120 -2.3990  0.0153 -1.2492
18699TIP3    H277513   2.408   5.559   0.070 -0.5072 -1.5768 -0.2386
18700TIP3   OH277514   3.293   3.512  11.955  0.5308  0.4521  0.9457
18700TIP3    H177515   3.241   3.440  11.991 -0.0438  0.4496  0.1403
18700TIP3    H277516   3.281   3.584  12.016  0.6257  0.0397  1.4475
18701TIP3   OH277517   1.283   2.004   1.451 -0.5123 -0.0253  0.1066
18701TIP3    H177518   1.276   2.081   1.394  0.8594 -0.7594 -1.0958
18701TIP3    H277519   1.245   1.933   1.399 -0.9494 -0.3447  0.8571
18702TIP3   OH277520   1.486   4.615   2.623  0.1263 -0.1928  0.2201
18702TIP3    H177521   1.566   4.619   2.569 -0.7673  0.5899 -1.0962
18702TIP3    H277522   1.452   4.705   2.620 -0.4499 -0.3797  1.3089
18703TIP3   OH277523   6.128   0.473   5.177  0.1941  0.2384  0.5815
18703TIP3    H177524   6.056   0.444   5.121  0.0295 -0.5401  1.1883
18703TIP3    H277525   6.151   0.560   5.144  0.4442 -0.4312 -1.0209
18704TIP3   OH277526   2.205   0.403   3.660 -0.0510  0.3436 -0.2132
18704TIP3    H177527   2.189   0.497   3.662 -0.2299  0.3024  2.9598
18704TIP3    H277528   2.124   0.365   3.695  1.4290 -0.7266  2.1551
18705TIP3   OH277529   4.030   4.370  13.299 -0.5231 -0.8773 -0.1383
18705TIP3    H177530   3.959   4.356  13.361 -1.1595 -0.5115 -0.7823
18705TIP3    H277531   4.110   4.356  13.351 -1.0375 -0.2130  0.8420
18706TIP3   OH277532   4.658   4.579   0.320  0.3181 -0.2932 -0.0751
18706TIP3    H177533   4.591   4.523   0.359  0.5896 -0.0735  0.7207
18706TIP3    H277534   4.671   4.544   0.232 -1.9086  0.5471 -0.7822
18707TIP3   OH277535   6.613   0.599  17.190 -0.1960 -0.1344  0.3721
18707TIP3    H177536   6.537   0.638  17.233 -0.7671  0.7220 -1.3625
18707TIP3    H277537   6.608   0.506  17.211 -3.5370 -0.6408 -2.2366
18708TIP3   OH277538   0.053   5.975  14.493  0.4873 -0.2329  0.4481
18708TIP3    H177539  -0.025   5.954  14.443  1.1865 -0.4422 -0.5727
18708TIP3    H277540   0.081   5.892  14.531  0.0604 -0.1088  1.0264
18709TIP3   OH277541   2.833   0.962  14.658 -0.0057  0.0296 -0.2581
18709TIP3    H177542   2.919   1.002  14.668 -0.5023  1.3068 -0.9974
18709TIP3    H277543   2.837   0.884  14.713  1.4580  0.3289  0.0955
18710TIP3   OH277544   5.403   0.543  15.813 -0.7026  0.2140  0.1924
18710TIP3    H177545   5.446   0.554  15.898  0.5300  1.4011 -0.5650
18710TIP3    H277546   5.348   0.620  15.803  2.4588  2.3123 -1.9530
18711TIP3   OH277547   3.146   2.697  12.142 -0.6751  0.5717 -0.5333
18711TIP3    H177548   3.109   2.723  12.227  1.9121 -0.2982  0.9188
18711TIP3    H277549   3.136   2.602  12.140  1.1319  0.3649 -0.2726
18712TIP3   OH277550   0.567   0.993   5.228 -0.0825  0.2798  0.0825
18712TIP3    H177551   0.604   0.929   5.167 -1.7559 -0.3088 -0.3283
18712TIP3    H277552   0.541   0.943   5.304 -0.5993  0.6040  0.1198
18713TIP3   OH277553   0.058   1.298  13.505  0.1262  0.5807 -0.0982
18713TIP3    H177554  -0.024   1.264  13.468  0.0010  0.5771  0.1802
18713TIP3    H277555   0.031   1.372  13.559  0.0521 -0.7769  1.7615
18714TIP3   OH277556   4.035   1.027   5.542  0.4118  0.0359 -0.5848
18714TIP3    H177557   3.951   1.017   5.498 -0.1848 -0.7742  0.7238
18714TIP3    H277558   4.024   1.103   5.598  0.2630 -0.6005  0.2507
18715TIP3   OH277559   0.112   3.316   3.777 -0.2768  0.1207  0.3780
18715TIP3    H177560   0.022   3.309   3.746  0.0979 -2.7834 -0.2490
18715TIP3    H277561   0.105   3.317   3.872 -1.0160  0.9223  0.3200
18716TIP3   OH277562   1.591   5.824   3.064  0.1952 -0.0777  0.3598
18716TIP3    H177563   1.519   5.845   3.123  1.1353  1.1650  1.0982
18716TIP3    H277564   1.569   5.737   3.029 -1.1617 -0.1342  1.3025
18717TIP3   OH277565   1.461   6.251   1.948  0.2837 -0.1940 -0.2595
18717TIP3    H177566   1.517   6.307   1.895  1.2318 -0.9957 -0.1091
18717TIP3    H277567   1.373   6.264   1.911  0.3763  1.8532  0.1678
18718TIP3   OH277568   2.555   4.273   1.494  0.1427 -0.0899  0.1512
18718TIP3    H177569   2.559   4.359   1.537  0.5428  0.6351 -1.3001
18718TIP3    H277570   2.480   4.229   1.534 -1.2031  1.6608 -0.4209
18719TIP3   OH277571   2.111   3.975   5.590  0.2096 -0.4611 -0.1524
18719TIP3    H177572   2.127   3.931   5.507 -1.3651 -1.3111 -0.0162
18719TIP3    H277573   2.109   3.905   5.655 -1.3965 -0.1250  0.1924
18720TIP3   OH277574   2.341   6.258   3.204  0.6443  0.0383 -0.3625
18720TIP3    H177575   2.342   6.350   3.181 -0.3986  0.4300  1.0825
18720TIP3    H277576   2.429   6.240   3.237  0.7618  0.5880 -0.3791
18721TIP3   OH277577   3.645   5.157   4.590 -0.2410 -0.1664 -0.3235
18721TIP3    H177578   3.554   5.142   4.567 -0.4982 -0.5156  0.8558
18721TIP3    H277579   3.666   5.242   4.553 -1.1494  0.0613 -0.3184
18722TIP3   OH277580   2.778   1.756   4.342 -0.1848  0.0735 -0.5771
18722TIP3    H177581   2.834   1.718   4.410 -0.5370  1.5541  0.5684
18722TIP3    H277582   2.717   1.685   4.319  1.3944 -1.1703 -1.0021
18723TIP3   OH277583   4.245   0.620  13.896  0.1132  0.8209  0.0549
18723TIP3    H177584   4.185   0.690  13.868 -3.1161 -1.9394 -0.1947
18723TIP3    H277585   4.294   0.598  13.817 -1.8739 -0.0813 -0.9490
18724TIP3   OH277586   4.336   5.525  16.953  0.1492 -0.5710 -0.5596
18724TIP3    H177587   4.318   5.470  16.878 -1.7157 -0.6646 -0.0647
18724TIP3    H277588   4.258   5.517  17.008  0.6453  1.0545  0.4167
18725TIP3   OH277589   2.424   5.537   4.409  0.2208 -0.1700  0.1868
18725TIP3    H177590   2.355   5.572   4.465 -0.8013 -0.1867 -1.0403
18725TIP3    H277591   2.502   5.536   4.464 -0.2799  1.8261  0.9414
18726TIP3   OH277592   4.447   6.546  14.160 -0.7867 -0.0390 -0.4205
18726TIP3    H177593   4.486   6.629  14.185  0.7238 -0.5374 -1.0667
18726TIP3    H277594   4.363   6.569  14.120 -0.1237  1.1943 -1.0984
18727TIP3   OH277595   3.159   2.798   0.096 -0.2901  0.0535  0.2403
18727TIP3    H177596   3.125   2.740   0.028 -1.3616 -0.4985  1.2354
18727TIP3    H277597   3.119   2.767   0.177  1.4911  0.2866  1.2371
18728TIP3   OH277598   3.738   6.731   0.620  0.1530  0.2273 -0.0789
18728TIP3    H177599   3.685   6.704   0.545 -0.2012 -1.2944  0.6997
18728TIP3    H277600   3.823   6.689   0.606  0.0892 -0.0496  0.3581
18729TIP3   OH277601   3.906   0.266  14.544 -0.4365  0.1043 -0.1210
18729TIP3    H177602   4.001   0.259  14.548 -0.4834 -0.4682 -0.0249
18729TIP3    H277603   3.883   0.240  14.454 -0.4784  0.5407 -0.2416
18730TIP3   OH277604   4.619   4.357   1.935  0.1151  0.5564 -0.1619
18730TIP3    H177605   4.619   4.431   1.995 -0.5381  1.1707 -0.9010
18730TIP3    H277606   4.644   4.395   1.850 -2.3856  0.3806 -1.0364
18731TIP3   OH277607   1.813   5.497   4.589 -0.4140  0.4821  0.0505
18731TIP3    H177608   1.729   5.504   4.634 -0.3592  1.9551 -0.0527
18731TIP3    H277609   1.867   5.445   4.648 -1.6528 -1.2395 -0.2775
18732TIP3   OH277610   0.250   4.861  13.311  0.0031  0.5686  0.4493
18732TIP3    H177611   0.250   4.805  13.389 -0.9008  0.5618  0.4416
18732TIP3    H277612   0.171   4.913  13.318 -0.5088 -0.0088 -0.8850
18733TIP3   OH277613   5.976   0.205  16.149  0.3117  0.2377  0.1760
18733TIP3    H177614   6.009   0.186  16.061  1.9510  2.5314  0.2577
18733TIP3    H277615   6.053   0.197  16.205 -0.4476  0.1469  1.2168
18734TIP3   OH277616   4.218   1.703  17.226  0.1798  0.1611  0.4836
18734TIP3    H177617   4.296   1.702  17.169 -0.6337  3.0549 -0.7352
18734TIP3    H277618   4.165   1.631  17.193  1.8022 -1.1379  0.6020
18735TIP3   OH277619   3.600   0.507  11.255  0.4187 -0.1273  0.4042
18735TIP3    H177620   3.534   0.440  11.273 -0.0408 -0.0822 -1.0910
18735TIP3    H277621   3.551   0.581  11.219  1.2148  0.1343 -0.1509
18736TIP3   OH277622   3.903   3.768   3.343 -0.1029  0.1286  0.0756
18736TIP3    H177623   3.937   3.742   3.257 -0.0175  0.5461 -0.0179
18736TIP3    H277624   3.929   3.860   3.352  0.0325  0.0354  0.6198
18737TIP3   OH277625   6.463   4.227   3.851  0.0294 -0.7566  0.2400
18737TIP3    H177626   6.414   4.303   3.881  0.3391 -1.2003  1.9114
18737TIP3    H277627   6.551   4.260   3.833 -0.4728 -0.2555 -1.3441
18738TIP3   OH277628   3.503   4.833  16.669  0.2080  0.8285  0.9697
18738TIP3    H177629   3.411   4.837  16.645  0.2833  1.9232  0.8517
18738TIP3    H277630   3.538   4.919  16.647  1.9011 -0.4574 -1.6600
18739TIP3   OH277631   6.135   1.287  13.673  0.4792  0.4066  0.7508
18739TIP3    H177632   6.100   1.216  13.620 -1.3848  1.8063  0.0651
18739TIP3    H277633   6.173   1.349  13.610  1.0682  0.5719  1.2603
18740TIP3   OH277634   4.427   0.665   4.815 -0.2950  0.2074 -0.5996
18740TIP3    H177635   4.385   0.661   4.901 -1.1443  1.7616 -0.9332
18740TIP3    H277636   4.494   0.732   4.825  1.6850 -1.7324 -0.2893
18741TIP3   OH277637   1.178   4.935   4.180 -0.4748  0.6369 -0.0469
18741TIP3    H177638   1.124   5.008   4.152 -0.0803  1.2721  0.8078
18741TIP3    H277639   1.197   4.954   4.272 -1.1443 -1.0056  0.4624
18742TIP3   OH277640   3.900   4.340  12.458 -0.4328  0.7881 -0.2343
18742TIP3    H177641   3.986   4.342  12.417 -0.2333  1.0280  0.1876
18742TIP3    H277642   3.918   4.355  12.551 -1.2491  4.8679 -0.6254
18743TIP3   OH277643   3.263   0.610  17.203 -0.4671  0.2914  0.4668
18743TIP3    H177644   3.282   0.569  17.287 -2.2117 -2.0897 -0.2561
18743TIP3    H277645   3.182   0.659  17.218 -0.6376  0.0773  0.2552
18744TIP3   OH277646   0.078   1.982   2.349  0.2222 -0.4202  0.2401
18744TIP3    H177647   0.024   1.903   2.349 -0.5370  0.1006 -0.2220
18744TIP3    H277648   0.021   2.051   2.383  0.2648  0.3484 -1.1974
18745TIP3   OH277649   3.975   5.798  14.638  0.2969  0.3265  0.6742
18745TIP3    H177650   4.051   5.804  14.580 -0.0701 -0.2253  0.1242
18745TIP3    H277651   3.925   5.878  14.620  0.3576  0.3215  0.4810
18746TIP3   OH277652   5.944   3.310  12.188  0.1473  0.0349 -0.1086
18746TIP3    H177653   5.897   3.253  12.129  0.8020 -0.6944  0.0645
18746TIP3    H277654   5.909   3.289  12.275 -1.3907  1.6764 -0.3054
18747TIP3   OH277655   4.319   3.523  12.530 -0.2985  0.0081 -0.2072
18747TIP3    H177656   4.310   3.606  12.577  0.3298 -0.5938  0.9910
18747TIP3    H277657   4.233   3.482  12.537 -0.8343  0.8860 -1.4545
18748TIP3   OH277658   6.759   6.618  16.417  0.3805  0.6083 -0.4964
18748TIP3    H177659   6.835   6.623  16.359  0.0768 -0.3123 -0.9801
18748TIP3    H277660   6.709   6.543  16.385  0.0116  0.3220  0.7171
18749TIP3   OH277661   1.573   2.228  14.308 -0.2409 -0.4435 -0.0790
18749TIP3    H177662   1.505   2.223  14.374 -0.1718 -0.8398 -0.0397
18749TIP3    H277663   1.583   2.139  14.275  0.3047 -0.4070 -0.0335
18750TIP3   OH277664   0.794   0.769  13.924 -0.4575 -0.4349 -0.6164
18750TIP3    H177665   0.709   0.778  13.966 -0.0936 -1.7838  0.4310
18750TIP3    H277666   0.782   0.698  13.860  0.2682 -1.6747  0.5985
18751TIP3   OH277667   3.996   3.867   6.582  0.0805 -0.0321  0.4345
18751TIP3    H177668   3.929   3.858   6.515 -1.2694 -1.2428  1.8922
18751TIP3    H277669   4.042   3.783   6.582  2.1334  1.0345 -1.0515
18752TIP3   OH277670   3.773   2.409  11.157  0.6722 -0.5962 -0.2936
18752TIP3    H177671   3.836   2.337  11.154 -0.4644 -1.6247  0.3863
18752TIP3    H277672   3.690   2.370  11.130  0.2740  0.7254 -1.0522
18753TIP3   OH277673   5.093   5.471   0.324  0.1038 -0.0504 -0.0094
18753TIP3    H177674   5.156   5.539   0.299  0.5261 -0.1073  0.9060
18753TIP3    H277675   5.017   5.520   0.355 -0.1850  0.0121 -0.7855
18754TIP3   OH277676   5.487   3.234  16.438 -0.0464 -0.3501 -0.7982
18754TIP3    H177677   5.497   3.318  16.483 -0.4507 -0.5287 -0.3745
18754TIP3    H277678   5.449   3.175  16.504 -0.3163 -0.7076 -1.2699
18755TIP3   OH277679   4.216   3.423   2.245  0.1928 -0.2213 -0.3144
18755TIP3    H177680   4.234   3.511   2.213  1.3323 -0.4838 -0.4095
18755TIP3    H277681   4.297   3.374   2.228 -0.6598 -1.4551 -0.8679
18756TIP3   OH277682   2.375   2.863  14.737 -0.4326 -0.0074 -0.4313
18756TIP3    H177683   2.398   2.876  14.645 -0.6802  0.7333 -0.3909
18756TIP3    H277684   2.445   2.808  14.771 -0.4110 -0.3972 -1.0951
18757TIP3   OH277685   5.754   1.348  11.457 -0.1242 -0.8784 -0.1925
18757TIP3    H177686   5.769   1.345  11.362  0.6709 -1.4937 -0.0500
18757TIP3    H277687   5.693   1.276  11.473  1.0464 -1.8335 -0.0047
18758TIP3   OH277688   3.260   0.453  14.372  0.1928  0.3123  0.6802
18758TIP3    H177689   3.288   0.379  14.427 -0.2833 -1.6798 -1.6618
18758TIP3    H277690   3.170   0.432  14.348  0.3332  1.2241 -0.7022
18759TIP3   OH277691   0.826   6.033   4.900 -0.0847  0.2995  0.4351
18759TIP3    H177692   0.909   6.001   4.865 -0.6787 -1.2804  0.4142
18759TIP3    H277693   0.850   6.104   4.960  1.1826  0.6489 -0.4751
18760TIP3   OH277694   5.737   4.205   5.617  0.0645 -0.4307  0.5046
18760TIP3    H177695   5.823   4.174   5.587  0.1978  0.0730  0.3533
18760TIP3    H277696   5.757   4.280   5.673 -0.3172  0.2082 -0.2015
18761TIP3   OH277697   3.516   3.612  10.708  0.2855 -0.2983  0.3068
18761TIP3    H177698   3.567   3.550  10.759  1.3402 -0.5858 -1.0694
18761TIP3    H277699   3.574   3.637  10.636 -0.3546  1.7811  0.4610
18762TIP3   OH277700   3.366   5.950   2.254  0.0797  0.1815 -0.1615
18762TIP3    H177701   3.338   6.001   2.178  1.5301 -0.2240 -0.9850
18762TIP3    H277702   3.406   5.871   2.216  0.8826  0.0100  1.0273
18763TIP3   OH277703   2.847   4.506  15.021  0.4946  0.1074 -0.0316
18763TIP3    H177704   2.799   4.588  15.024  1.9047  0.9913 -0.9414
18763TIP3    H277705   2.935   4.531  14.991  1.2912 -1.5573  0.8485
18764TIP3   OH277706   6.652   4.605   3.030  0.2407 -0.4916 -0.2989
18764TIP3    H177707   6.688   4.517   3.023  0.2147 -0.5512  0.3081
18764TIP3    H277708   6.557   4.591   3.034  0.2359 -0.4357 -0.2177
18765TIP3   OH277709   1.285   2.519  11.979 -0.1977  0.0727 -0.4799
18765TIP3    H177710   1.283   2.430  12.013 -0.0036  0.6326  1.0638
18765TIP3    H277711   1.242   2.571  12.046  1.9942  1.5243 -0.1195
18766TIP3   OH277712   0.942   0.650   5.767  0.4389 -0.1662 -0.4812
18766TIP3    H177713   0.926   0.696   5.684 -2.0385  0.6127  0.3932
18766TIP3    H277714   0.980   0.717   5.824  2.0257 -0.6704 -0.9158
18767TIP3   OH277715   3.826   3.775   3.870 -0.1615  0.1533  0.8914
18767TIP3    H177716   3.737   3.771   3.903 -0.2440 -1.9202  0.4940
18767TIP3    H277717   3.872   3.706   3.918  0.8011  0.0772 -0.1352
18768TIP3   OH277718   0.879   5.204   1.482  0.4462  0.2003  0.0366
18768TIP3    H177719   0.912   5.260   1.552  2.3070 -0.4741 -0.2687
18768TIP3    H277720   0.850   5.265   1.415  0.8325  0.8251  0.4310
18769TIP3   OH277721   1.081   4.754   1.554  0.2159 -0.1731  0.2682
18769TIP3    H177722   0.991   4.727   1.537  0.5536 -0.9239 -0.3382
18769TIP3    H277723   1.113   4.787   1.470  0.8260 -0.8100  0.2498
18770TIP3   OH277724   5.080   1.164   6.780 -0.5671  0.4603 -0.3454
18770TIP3    H177725   5.011   1.158   6.714 -1.0137 -0.9726  0.2442
18770TIP3    H277726   5.119   1.077   6.784 -0.0139  0.7334  0.7204
18771TIP3   OH277727   0.705   0.060   1.508 -0.2109 -0.1104 -0.1619
18771TIP3    H177728   0.647   0.060   1.584 -0.2051  0.8497 -0.1481
18771TIP3    H277729   0.651   0.092   1.436  0.2108  0.4971 -0.2155
18772TIP3   OH277730   1.523   0.337   0.183 -0.3971  0.0735 -0.3480
18772TIP3    H177731   1.438   0.369   0.154  0.3140  2.1056 -0.2705
18772TIP3    H277732   1.567   0.311   0.102 -0.7572 -0.1579 -0.4706
18773TIP3   OH277733   4.704   6.101  14.129  0.1277 -0.7280 -0.1584
18773TIP3    H177734   4.645   6.026  14.126  1.0193 -1.4487  0.1434
18773TIP3    H277735   4.789   6.066  14.103  0.5461  0.1815 -0.0389
18774TIP3   OH277736   2.968   4.565   1.944 -0.4131  0.0289 -0.4336
18774TIP3    H177737   2.963   4.660   1.935 -1.1853 -0.0656 -1.0641
18774TIP3    H277738   2.952   4.532   1.856 -0.0667 -0.6904 -0.2337
18775TIP3   OH277739   4.815   0.384   3.787  0.2142  0.0484 -0.2898
18775TIP3    H177740   4.759   0.461   3.795  0.0160 -0.3119  2.6069
18775TIP3    H277741   4.754   0.311   3.778  0.3194 -0.0097 -0.5259
18776TIP3   OH277742   5.701   3.297  13.703 -0.2722  0.3016 -1.0389
18776TIP3    H177743   5.790   3.295  13.738  1.1096  0.8955 -4.2895
18776TIP3    H277744   5.673   3.388  13.714 -1.2392 -0.2743  1.6396
18777TIP3   OH277745   5.876   1.462  11.917  0.6904  0.1152  1.2325
18777TIP3    H177746   5.784   1.485  11.908  0.5978 -1.5963 -3.3484
18777TIP3    H277747   5.877   1.367  11.928  1.8907  0.2923  3.0076
18778TIP3   OH277748   0.762   4.098  11.195 -0.2953 -0.2912  0.1937
18778TIP3    H177749   0.774   4.125  11.286  1.2770 -0.5475  0.0820
18778TIP3    H277750   0.733   4.177  11.150 -0.0987  0.0875  0.7296
18779TIP3   OH277751   0.765   2.069   6.053 -0.0955 -0.3687  0.1184
18779TIP3    H177752   0.838   2.122   6.084  0.4470 -1.0056 -0.0532
18779TIP3    H277753   0.801   1.980   6.047 -1.0365 -0.7870  0.5671
18780TIP3   OH277754   0.121   3.864   2.893  0.7602  0.0819  0.2730
18780TIP3    H177755   0.130   3.918   2.814  2.6304 -1.0272 -0.3049
18780TIP3    H277756   0.034   3.824   2.885 -0.2304  2.1629  0.2017
18781TIP3   OH277757   6.485   3.973   2.316 -0.5956  0.4451 -0.1218
18781TIP3    H177758   6.541   3.914   2.264  0.8986  2.1420 -0.4919
18781TIP3    H277759   6.396   3.948   2.292 -0.0965 -3.1273  1.3530
18782TIP3   OH277760   3.981   3.822  10.567 -0.2457  0.1714 -1.0011
18782TIP3    H177761   3.899   3.774  10.563 -0.4851  0.3165  1.2329
18782TIP3    H277762   4.047   3.759  10.540 -1.0418 -0.0243 -2.5438
18783TIP3   OH277763   1.780   1.723   3.312  0.3045 -0.4718  0.1195
18783TIP3    H177764   1.728   1.764   3.381 -0.1881 -1.4850  0.3645
18783TIP3    H277765   1.868   1.759   3.324 -0.2988  1.1876 -0.2389
18784TIP3   OH277766   0.456   5.027   2.491 -0.0982 -0.2817  0.4814
18784TIP3    H177767   0.390   5.045   2.558 -1.8497 -0.5633 -1.1411
18784TIP3    H277768   0.482   4.936   2.508 -0.4635 -0.3189  0.8599
18785TIP3   OH277769   6.350   5.166   6.092 -0.6171 -0.5040 -0.1320
18785TIP3    H177770   6.386   5.081   6.117 -0.0243 -0.2646 -0.1486
18785TIP3    H277771   6.364   5.170   5.997  0.0760 -0.0565 -0.0122
18786TIP3   OH277772   1.165   0.132  16.966 -0.0340  0.4631  0.0871
18786TIP3    H177773   1.075   0.139  16.936 -0.2167 -2.1044 -0.0680
18786TIP3    H277774   1.214   0.191  16.909 -1.5249  1.5094 -0.1408
18787TIP3   OH277775   4.425   4.248  16.225 -0.5859 -0.3502  0.5203
18787TIP3    H177776   4.346   4.286  16.262  0.3120  2.1157 -0.0126
18787TIP3    H277777   4.484   4.237  16.299 -0.7883 -0.5579  0.6508
18788TIP3   OH277778   0.621   5.621  13.036 -0.3611  0.2652 -0.5616
18788TIP3    H177779   0.697   5.567  13.010 -0.2721 -0.5010  1.2490
18788TIP3    H277780   0.648   5.710  13.014  2.0590  0.2892  2.2196
18789TIP3   OH277781   5.839   3.786   3.759 -0.3668 -0.4795  0.0671
18789TIP3    H177782   5.907   3.810   3.696 -0.3523  1.4791  0.7903
18789TIP3    H277783   5.764   3.840   3.734 -0.0509  1.0603  2.2880
18790TIP3   OH277784   4.704   1.423   1.652  0.4285 -0.0685 -0.5470
18790TIP3    H177785   4.621   1.412   1.607  0.9728 -0.3736 -1.4979
18790TIP3    H277786   4.696   1.506   1.699 -0.1485  0.2602 -1.2171
18791TIP3   OH277787   5.590   4.930   0.650  0.2487 -0.0455 -0.0872
18791TIP3    H177788   5.620   4.882   0.573 -0.0547  0.5060 -0.5466
18791TIP3    H277789   5.669   4.943   0.702  0.3768 -0.8313 -0.0720
18792TIP3   OH277790   2.155   2.419   1.369 -0.0834 -0.1208 -0.5356
18792TIP3    H177791   2.092   2.348   1.377 -0.4682  0.3961  1.1717
18792TIP3    H277792   2.239   2.375   1.354 -0.6684 -0.8330 -1.8098
18793TIP3   OH277793   1.285   5.893  13.806  0.0995  0.8204  0.1171
18793TIP3    H177794   1.338   5.932  13.737  2.9895 -0.8317  1.3043
18793TIP3    H277795   1.235   5.824  13.762  1.6815 -0.0089 -0.4160
18794TIP3   OH277796   0.769   1.703   4.411 -0.2458  0.4449  0.3865
18794TIP3    H177797   0.840   1.760   4.440 -0.9645  0.5258  2.0623
18794TIP3    H277798   0.799   1.615   4.434  1.5489 -0.1296 -3.5786
18795TIP3   OH277799   1.235   0.126  11.953  0.0403 -0.0236 -0.4377
18795TIP3    H177800   1.142   0.105  11.947 -0.6369  2.2454  1.4597
18795TIP3    H277801   1.277   0.065  11.893 -2.8803  0.3011 -2.9284
18796TIP3   OH277802   6.555   2.154   2.974  0.3515  0.2889 -0.1140
18796TIP3    H177803   6.540   2.201   2.892 -2.4054 -0.6460 -0.1833
18796TIP3    H277804   6.585   2.222   3.035 -1.7072  1.8062 -0.7456
18797TIP3   OH277805   0.255   3.482   5.012 -0.0811 -0.0736  0.2613
18797TIP3    H177806   0.207   3.561   4.988  0.4107  0.1763  0.0843
18797TIP3    H277807   0.267   3.436   4.929 -1.9930 -1.2614  0.6228
18798TIP3   OH277808   5.433   3.323  13.429  0.6857  0.3508 -0.4945
18798TIP3    H177809   5.412   3.278  13.511 -1.0279 -0.8803 -1.5750
18798TIP3    H277810   5.438   3.416  13.453 -1.5797  0.2017  0.6956
18799TIP3   OH277811   3.314   2.042  11.123  0.9925  0.0373  0.2893
18799TIP3    H177812   3.400   2.056  11.084  0.5471 -0.0131 -0.7257
18799TIP3    H277813   3.301   2.117  11.180  1.6699  0.0871  0.3834
18800TIP3   OH277814   5.856   6.578  14.025 -0.2869  0.5609 -0.3208
18800TIP3    H177815   5.930   6.588  14.085 -0.5848 -1.2285  0.4032
18800TIP3    H277816   5.892   6.595  13.938  0.3107  2.5071  0.2796
18801TIP3   OH277817   6.672   4.361   1.771 -0.2058  0.6418  0.4216
18801TIP3    H177818   6.600   4.409   1.810 -1.7213 -0.0277 -1.4520
18801TIP3    H277819   6.698   4.413   1.695 -0.7090 -0.5925 -0.6186
18802TIP3   OH277820   2.394   3.481   5.800  0.8942 -0.4076 -0.0262
18802TIP3    H177821   2.387   3.401   5.853  0.9382  1.2589  2.5534
18802TIP3    H277822   2.305   3.496   5.769  0.6859 -0.8974  0.3124
18803TIP3   OH277823   1.168   2.601  13.668  0.3207  0.0779 -0.3870
18803TIP3    H177824   1.149   2.521  13.717 -1.2358  0.1087 -0.9177
18803TIP3    H277825   1.113   2.596  13.590 -1.0183  2.3738  0.3330
18804TIP3   OH277826   5.742   1.948  12.065 -0.2155 -0.2714 -0.3190
18804TIP3    H177827   5.765   1.892  11.991  2.7184  2.5898 -1.6989
18804TIP3    H277828   5.667   2.000  12.035 -0.2189 -0.4352 -0.5867
18805TIP3   OH277829   0.418   2.717   3.246 -0.3657  0.3426  0.0218
18805TIP3    H177830   0.496   2.663   3.255 -0.4420  0.3802  1.0694
18805TIP3    H277831   0.452   2.806   3.234 -0.2396  0.0388 -1.9728
18806TIP3   OH277832   5.973   1.816   0.685 -0.2605  0.0696 -0.2490
18806TIP3    H177833   6.047   1.859   0.728  0.3148 -0.9698 -0.1829
18806TIP3    H277834   5.963   1.862   0.602 -0.3567  1.0487  0.3054
18807TIP3   OH277835   6.760   3.044  10.949 -0.5426 -0.6003 -0.4557
18807TIP3    H177836   6.834   3.071  11.003  0.7256 -0.0781 -2.3970
18807TIP3    H277837   6.727   3.126  10.911 -1.5141 -0.9397 -0.3593
18808TIP3   OH277838   0.547   6.559   5.172  0.2681  0.5836  0.1692
18808TIP3    H177839   0.502   6.497   5.228 -1.2227  0.5155 -1.0522
18808TIP3    H277840   0.476   6.608   5.129  1.3627  1.0329 -1.1712
18809TIP3   OH277841   1.616   2.611   0.852  0.5834 -0.0032 -0.3358
18809TIP3    H177842   1.627   2.688   0.795  2.3781 -0.1354 -0.2061
18809TIP3    H277843   1.698   2.563   0.842  0.0840 -1.1002  0.7925
18810TIP3   OH277844   5.408   4.230  12.089 -0.0663 -0.3029 -0.4145
18810TIP3    H177845   5.480   4.286  12.118 -1.8979  1.5302  0.7684
18810TIP3    H277846   5.384   4.263  12.003 -0.1452 -0.2571 -0.3753
18811TIP3   OH277847   4.013   0.642   6.276  0.7472  0.0415 -0.4981
18811TIP3    H177848   4.096   0.614   6.314 -0.0447 -0.2932  1.0468
18811TIP3    H277849   3.953   0.569   6.293 -1.0814  2.1592  2.6841
18812TIP3   OH277850   6.382   1.385  15.384 -0.1461  0.5467 -0.0584
18812TIP3    H177851   6.290   1.361  15.377 -0.0132  0.2906 -0.9325
18812TIP3    H277852   6.428   1.325  15.325  0.5138  1.0543 -0.0765
18813TIP3   OH277853   1.003   4.596  11.421 -0.2918  0.1159 -0.3204
18813TIP3    H177854   1.048   4.680  11.411  0.5051 -0.5659 -2.9903
18813TIP3    H277855   1.069   4.536  11.455 -0.9305  0.5867  1.8404
18814TIP3   OH277856   5.073   6.643   4.617  0.2602 -0.7915  0.0209
18814TIP3    H177857   5.087   6.613   4.707 -2.4809  1.2393  1.1856
18814TIP3    H277858   5.150   6.695   4.597  0.0878  0.2209  1.8719
18815TIP3   OH277859   3.685   5.433  16.239  0.0354 -0.2904 -0.1970
18815TIP3    H177860   3.702   5.490  16.314 -0.6855  1.6648 -1.4908
18815TIP3    H277861   3.591   5.440  16.223  0.3343  0.1299 -1.9126
18816TIP3   OH277862   6.151   6.559  12.351 -0.0920 -0.4186 -0.0388
18816TIP3    H177863   6.204   6.538  12.428  0.0334 -0.2373 -0.0756
18816TIP3    H277864   6.210   6.607  12.294 -0.4788  0.3311  0.1910
18817TIP3   OH277865   3.214   3.558   2.975  0.3317  0.2979 -0.2849
18817TIP3    H177866   3.249   3.617   3.042  1.4858 -1.7470  0.9544
18817TIP3    H277867   3.268   3.575   2.898  0.2089  1.3426 -0.1458
18818TIP3   OH277868   0.150   2.069   0.588 -0.6702  0.2967  0.1648
18818TIP3    H177869   0.227   2.100   0.636 -2.0686  0.5115  2.3540
18818TIP3    H277870   0.105   2.148   0.561  0.7038  0.1975 -2.6083
18819TIP3   OH277871   4.064   2.780   2.570 -0.1532  0.0955  0.0521
18819TIP3    H177872   4.074   2.699   2.618 -0.0405  0.0968  0.0332
18819TIP3    H277873   4.015   2.838   2.628 -3.4085 -1.1799 -1.3468
18820TIP3   OH277874   2.955   3.110   6.191 -0.3722 -0.0079 -0.1617
18820TIP3    H177875   2.959   3.199   6.156 -0.3664 -0.1079 -0.4220
18820TIP3    H277876   2.866   3.101   6.224 -0.0710  0.4352  0.7948
18821TIP3   OH277877   0.880   3.889   5.679  0.6496  0.0624 -0.0662
18821TIP3    H177878   0.837   3.814   5.721  1.1936  1.0439  2.3668
18821TIP3    H277879   0.820   3.962   5.694  1.3944  0.6666  0.0111
18822TIP3   OH277880   0.324   0.467   2.618  0.2752 -0.4277  0.1437
18822TIP3    H177881   0.266   0.399   2.650  0.6462 -0.1149  1.5223
18822TIP3    H277882   0.327   0.531   2.689  1.6855 -0.0686 -0.2272
18823TIP3   OH277883   4.162   4.437  12.138 -0.2034 -0.1668 -0.3553
18823TIP3    H177884   4.149   4.448  12.232  1.9904  1.7168 -0.2295
18823TIP3    H277885   4.117   4.511  12.098  0.0508 -0.1986 -0.7056
18824TIP3   OH277886   1.143   5.623  15.013  0.1210 -0.0765  0.6626
18824TIP3    H177887   1.187   5.590  15.091 -0.6466  0.1511  1.1958
18824TIP3    H277888   1.211   5.670  14.965  0.8187 -0.9831  0.7390
18825TIP3   OH277889   2.756   0.460  14.194  0.2356 -0.4261 -0.2771
18825TIP3    H177890   2.664   0.473  14.218 -0.6893 -2.2158 -2.6319
18825TIP3    H277891   2.755   0.382  14.138  2.7942  1.0667 -2.5248
18826TIP3   OH277892   5.917   4.663   3.921 -0.6899 -0.1729  0.5669
18826TIP3    H177893   5.896   4.602   3.991 -0.3719 -1.0656 -0.1134
18826TIP3    H277894   5.868   4.742   3.943 -0.2196 -0.2778  2.0483
18827TIP3   OH277895   2.039   2.601  12.605 -0.1191 -0.6995  0.3344
18827TIP3    H177896   2.124   2.560  12.625  0.8507  1.6184  1.1293
18827TIP3    H277897   1.992   2.600  12.688  0.6354  1.4230  0.8077
18828TIP3   OH277898   6.074   4.867  14.159 -0.6346 -0.0817 -0.7130
18828TIP3    H177899   6.055   4.884  14.067  1.2016  3.9517 -0.4501
18828TIP3    H277900   6.010   4.921  14.207 -0.7840 -1.1922  0.3696
18829TIP3   OH277901   6.609   4.891   4.045 -0.4368  0.0840 -0.3401
18829TIP3    H177902   6.677   4.940   4.090 -0.0079 -1.3861  0.6626
18829TIP3    H277903   6.656   4.829   3.989 -0.9264 -0.7997  0.2053
18830TIP3   OH277904   3.990   0.662  13.491  0.3803  0.1772 -0.1804
18830TIP3    H177905   4.000   0.602  13.564 -1.4418 -0.4289 -0.4004
18830TIP3    H277906   4.074   0.657  13.444  1.2587 -0.0289  1.3996
18831TIP3   OH277907   1.638   2.450  15.422  0.3020  0.2922  0.0620
18831TIP3    H177908   1.707   2.495  15.471  0.3373 -0.2482  0.5226
18831TIP3    H277909   1.565   2.443  15.484  0.2989 -0.2792 -0.0017
18832TIP3   OH277910   0.120   5.786  11.109  0.4986  0.1615  1.0416
18832TIP3    H177911   0.181   5.815  11.177  0.8929 -0.5149  0.9769
18832TIP3    H277912   0.167   5.717  11.062  0.1069  0.4053  0.2826
18833TIP3   OH277913   6.240   3.628   5.574  0.4168  0.5399 -0.3248
18833TIP3    H177914   6.322   3.594   5.610  0.9467  2.1378  0.0510
18833TIP3    H277915   6.217   3.701   5.632 -0.5326  0.9802 -1.2326
18834TIP3   OH277916   3.147   5.645  14.795  0.3911  0.1927  0.0836
18834TIP3    H177917   3.215   5.626  14.730 -2.0953  1.0168 -2.8599
18834TIP3    H277918   3.065   5.619  14.753 -1.3921  1.6426  2.5261
18835TIP3   OH277919   2.791   2.795   3.491 -0.3887  0.6049 -0.0260
18835TIP3    H177920   2.831   2.837   3.567  1.8818 -0.9032 -0.3257
18835TIP3    H277921   2.818   2.848   3.416  1.5321 -0.6391 -0.2754
18836TIP3   OH277922   3.808   2.996   2.516  0.2662 -0.3080 -0.0642
18836TIP3    H177923   3.797   3.029   2.427 -2.6874 -0.4230  0.2176
18836TIP3    H277924   3.729   3.022   2.562  0.5186 -2.5878  1.7979
18837TIP3   OH277925   4.975   1.647  12.134  0.4208 -0.0371  0.0500
18837TIP3    H177926   5.067   1.620  12.126  1.1864  2.6946 -0.6909
18837TIP3    H277927   4.929   1.591  12.071  1.7386 -0.6883 -0.3676
18838TIP3   OH277928   6.470   1.066   0.902  0.4310  0.7024  0.2914
18838TIP3    H177929   6.422   0.987   0.926 -0.5897  1.3068  0.2805
18838TIP3    H277930   6.497   1.052   0.811  1.4474 -0.2039  0.7265
18839TIP3   OH277931   1.034   0.241  15.193 -0.6775  0.1047  0.3316
18839TIP3    H177932   1.087   0.198  15.260 -0.3396 -0.7410 -0.4605
18839TIP3    H277933   1.010   0.325  15.231 -0.5364 -0.3939  1.5321
18840TIP3   OH277934   4.719   0.540  13.983  0.0029  0.6680 -0.6965
18840TIP3    H177935   4.791   0.584  13.938  0.7876  0.5245  0.3952
18840TIP3    H277936   4.705   0.459  13.933  1.9404 -0.2716  0.2185
18841TIP3   OH277937   4.650   4.360   5.026  0.0202 -0.6469  0.2472
18841TIP3    H177938   4.605   4.342   4.943  0.1760 -0.1684  0.0572
18841TIP3    H277939   4.595   4.425   5.070  0.8233  0.3908 -0.2538
18842TIP3   OH277940   5.202   4.591   3.373  0.0412 -0.7516  0.3052
18842TIP3    H177941   5.208   4.684   3.392  0.4982 -0.7737  0.2741
18842TIP3    H277942   5.274   4.551   3.422 -0.5029 -1.1645  0.7792
18843TIP3   OH277943   6.569   6.614   0.644  0.0579  0.1581 -0.7323
18843TIP3    H177944   6.589   6.708   0.645 -1.0711  0.4113  1.2801
18843TIP3    H277945   6.474   6.610   0.638  0.2083 -0.9131 -2.7332
18844TIP3   OH277946   1.740   1.678  13.478 -0.6480 -0.0059 -0.1121
18844TIP3    H177947   1.732   1.661  13.384  0.0504  0.1349 -0.2046
18844TIP3    H277948   1.715   1.596  13.520 -0.2893 -0.2934 -0.4496
18845TIP3   OH277949   4.754   6.741  13.164  0.6326  0.4689  0.5843
18845TIP3    H177950   4.712   6.659  13.187 -0.6005  0.6910 -0.8022
18845TIP3    H277951   4.837   6.715  13.123 -0.0302 -0.1201 -0.4126
18846TIP3   OH277952   2.106   1.773   0.554  0.1477 -0.2296  0.2137
18846TIP3    H177953   2.084   1.734   0.639  0.6551  3.1831  1.9975
18846TIP3    H277954   2.152   1.703   0.507  1.1179 -1.7591  3.2711
18847TIP3   OH277955   0.569   2.744  14.245 -0.6678  0.2145  0.3445
18847TIP3    H177956   0.579   2.835  14.218 -0.1417 -0.2175 -0.9508
18847TIP3    H277957   0.585   2.745  14.339 -1.6690  1.6136  0.5222
18848TIP3   OH277958   4.997   5.348  15.057 -0.5502  1.0790 -0.7588
18848TIP3    H177959   4.934   5.391  15.115  0.1215 -1.0828  1.6867
18848TIP3    H277960   4.966   5.258  15.052  1.1412  0.5267 -1.3095
18849TIP3   OH277961   6.314   4.424  14.996 -0.2057 -0.3545 -0.0703
18849TIP3    H177962   6.390   4.448  15.049 -0.2978  0.3991 -0.2728
18849TIP3    H277963   6.338   4.340  14.956  0.5507 -0.0847 -0.1952
18850TIP3   OH277964   6.355   3.997  14.622  0.5732  0.7973  0.0995
18850TIP3    H177965   6.449   4.012  14.616  0.4887  0.8339 -1.2346
18850TIP3    H277966   6.342   3.957  14.708  1.5649  2.6586  1.1371
18851TIP3   OH277967   4.951   5.120   0.331 -0.6208  0.1600  0.0986
18851TIP3    H177968   4.980   5.036   0.368 -0.0144 -0.9113 -2.6330
18851TIP3    H277969   4.867   5.100   0.290  0.3064  0.4386 -2.0175
18852TIP3   OH277970   3.641   6.577  11.124 -0.1713  0.2684  0.4500
18852TIP3    H177971   3.564   6.520  11.131 -0.0545 -0.0347 -0.6679
18852TIP3    H277972   3.618   6.655  11.176 -1.3054  0.2546 -0.0135
18853TIP3   OH277973   6.569   4.386  16.953  0.2222  0.7176  0.2991
18853TIP3    H177974   6.552   4.410  16.862  2.3994  1.4449  0.0457
18853TIP3    H277975   6.497   4.424  17.002 -0.6764  0.8004 -1.0606
18854TIP3   OH277976   1.060   2.041   4.962  0.3072  0.2577  0.6246
18854TIP3    H177977   1.043   2.116   5.018 -0.5745  0.3099  0.2976
18854TIP3    H277978   0.974   2.000   4.950  0.5637 -0.0285 -0.2769
18855TIP3   OH277979   5.747   0.521  17.125  0.4266  0.0578  0.1487
18855TIP3    H177980   5.720   0.471  17.048  2.7597 -2.2801  0.7798
18855TIP3    H277981   5.774   0.454  17.189  1.2978  2.0504  1.9307
18856TIP3   OH277982   6.167   1.822  11.452 -0.5263 -0.5870 -0.3842
18856TIP3    H177983   6.257   1.850  11.469 -0.5278 -0.0024 -1.3124
18856TIP3    H277984   6.165   1.804  11.358 -1.9244  1.4276 -0.7680
18857TIP3   OH277985   0.981   1.926  15.863 -0.4915  0.1866  0.2394
18857TIP3    H177986   1.007   1.840  15.897 -3.1808 -0.0571  1.8085
18857TIP3    H277987   0.980   1.914  15.768 -0.0445 -1.3080  0.4092
18858TIP3   OH277988   6.469   1.980  13.540  0.0797  0.5916  0.1909
18858TIP3    H177989   6.488   1.937  13.456  0.1757 -0.3413  0.6872
18858TIP3    H277990   6.482   2.073  13.522 -0.6887  0.4773 -1.0446
18859TIP3   OH277991   0.952   6.370  14.223 -0.4165 -0.3351 -0.4271
18859TIP3    H177992   0.968   6.463  14.241  0.8114  0.0200 -3.1539
18859TIP3    H277993   0.864   6.367  14.187 -0.4766 -0.2322 -0.2888
18860TIP3   OH277994   2.204   6.547   4.627  0.3498  0.1014  0.0446
18860TIP3    H177995   2.181   6.462   4.664  0.2040 -0.0179 -0.3220
18860TIP3    H277996   2.222   6.602   4.703 -0.7971  0.1004  0.3178
18861TIP3   OH277997   2.966   2.705  16.953  0.6391  0.7844 -0.1824
18861TIP3    H177998   2.892   2.734  16.901 -0.9697 -0.0409  1.5927
18861TIP3    H277999   3.039   2.702  16.891 -1.2514 -0.3692 -2.4488
18862TIP3   OH278000   5.422   5.379   3.900 -0.0891 -0.2056 -0.0658
18862TIP3    H178001   5.336   5.407   3.868  0.0764  1.1635  0.6488
18862TIP3    H278002   5.429   5.419   3.987  2.0280  1.1968 -0.8451
18863TIP3   OH278003   4.613   5.688   2.266  0.2227  0.0733  0.0054
18863TIP3    H178004   4.706   5.676   2.247  0.0818 -1.0160 -0.0317
18863TIP3    H278005   4.573   5.605   2.242 -0.8729  0.7829 -0.6804
18864TIP3   OH278006   0.867   5.136   4.528 -0.0189 -0.0546 -0.4100
18864TIP3    H178007   0.783   5.095   4.509 -0.5308  0.5860  0.3962
18864TIP3    H278008   0.849   5.192   4.604  1.3028 -0.4560  0.2096
18865TIP3   OH278009   5.154   6.764   0.811  0.1689  0.3459 -0.0793
18865TIP3    H178010   5.164   6.686   0.756  0.0115  0.6570 -0.5433
18865TIP3    H278011   5.106   6.826   0.757 -1.4532  0.0451  0.9746
18866TIP3   OH278012   0.591   1.733   4.218 -0.2363 -0.6479  0.4645
18866TIP3    H178013   0.658   1.755   4.283  0.1764 -0.2463 -0.0914
18866TIP3    H278014   0.589   1.809   4.160 -1.4542 -0.4830  0.7088
18867TIP3   OH278015   0.612   2.034  11.697  0.0296  0.5446 -0.2256
18867TIP3    H178016   0.632   1.941  11.686  0.0634  0.3732  1.2235
18867TIP3    H278017   0.549   2.036  11.769  1.0157  1.7542  0.6147
18868TIP3   OH278018   0.861   4.650  16.041  0.0404  0.1110 -0.2610
18868TIP3    H178019   0.780   4.643  16.091 -0.8680  0.5742 -1.6338
18868TIP3    H278020   0.837   4.700  15.963  1.3043 -1.0429 -1.4209
18869TIP3   OH278021   2.423   5.618   4.133  0.3808 -0.1381  0.2793
18869TIP3    H178022   2.369   5.694   4.154  2.6071  1.2657  1.0027
18869TIP3    H278023   2.431   5.570   4.215  0.3101 -0.3130  0.1857
18870TIP3   OH278024   3.132   2.423  14.374  0.0623 -0.0952  0.2371
18870TIP3    H178025   3.168   2.357  14.315 -0.5205  0.2828 -0.5541
18870TIP3    H278026   3.138   2.384  14.461  1.9354 -0.2240  0.0648
18871TIP3   OH278027   0.763   6.039   3.012 -0.2217 -0.4826  0.2280
18871TIP3    H178028   0.722   6.067   3.094 -0.2775 -1.4331  0.5315
18871TIP3    H278029   0.724   6.096   2.946  0.8027  1.1827  1.0276
18872TIP3   OH278030   4.277   1.346  16.176  0.3526  0.4382 -0.7923
18872TIP3    H178031   4.252   1.386  16.092 -0.5843 -1.5962 -1.5040
18872TIP3    H278032   4.346   1.284  16.154  0.7338  0.5520  0.0717
18873TIP3   OH278033   3.790   3.173   3.840  0.1859 -0.3614  0.2709
18873TIP3    H178034   3.781   3.252   3.787  0.2149 -1.1777 -0.9691
18873TIP3    H278035   3.880   3.143   3.824  0.0918 -0.7886  0.5232
18874TIP3   OH278036   1.378   5.009   5.310 -0.0814 -0.1989 -0.2534
18874TIP3    H178037   1.429   4.937   5.272  0.2979  1.0403 -2.1042
18874TIP3    H278038   1.376   5.076   5.243  0.9933  2.2392  2.0810
18875TIP3   OH278039   0.049   0.576  12.701  0.4970 -0.1918 -0.1012
18875TIP3    H178040  -0.001   0.562  12.620  0.7499 -2.0579  0.0509
18875TIP3    H278041   0.121   0.633  12.675  1.5243 -2.1100 -1.5844
18876TIP3   OH278042   1.967   1.224   3.756  0.1725  0.2960 -0.2318
18876TIP3    H178043   1.939   1.153   3.698  3.7308 -1.3468 -0.1054
18876TIP3    H278044   1.935   1.199   3.842  0.4929 -0.6309 -0.3735
18877TIP3   OH278045   4.414   6.742  14.798 -0.5899  0.5826  0.4833
18877TIP3    H178046   4.442   6.700  14.717  1.3824  0.9233  0.9837
18877TIP3    H278047   4.336   6.793  14.773 -0.0793  0.5698 -1.1511
18878TIP3   OH278048   1.747   6.626  12.810 -0.2443  0.0336  0.0130
18878TIP3    H178049   1.661   6.659  12.837 -1.3380 -1.4760 -1.5433
18878TIP3    H278050   1.765   6.669  12.727  1.0384  1.1946  0.8637
18879TIP3   OH278051   0.225   2.033   1.407 -0.0172  0.4537  0.0525
18879TIP3    H178052   0.189   2.093   1.341  0.6822  1.1662  0.3243
18879TIP3    H278053   0.152   2.018   1.467 -2.2823 -4.0082 -3.4507
18880TIP3   OH278054   4.959   4.908  15.245 -0.7901 -0.6805 -0.3459
18880TIP3    H178055   4.977   4.977  15.310 -1.0678  0.2579 -1.2483
18880TIP3    H278056   4.870   4.880  15.263 -0.8587 -0.4396 -0.3076
18881TIP3   OH278057   0.557   1.399  14.882  0.5297  0.2638 -0.3819
18881TIP3    H178058   0.637   1.348  14.873 -0.9751 -2.4720  1.0520
18881TIP3    H278059   0.503   1.374  14.807  0.6329  1.4023 -0.8498
18882TIP3   OH278060   2.712   2.958  14.785  0.5870  0.0668 -0.2310
18882TIP3    H178061   2.797   3.003  14.782  0.7757 -0.3128 -0.6533
18882TIP3    H278062   2.680   2.974  14.874  1.3698 -0.2726  0.1161
18883TIP3   OH278063   3.240   4.184   1.975  0.3627 -0.5129  0.6501
18883TIP3    H178064   3.293   4.264   1.978  2.2686 -1.7285  0.1966
18883TIP3    H278065   3.194   4.183   2.059  2.3825 -0.2898  1.8001
18884TIP3   OH278066   3.225   1.135  15.412  0.3395  0.2801 -0.2298
18884TIP3    H178067   3.191   1.079  15.483  0.5196  2.1577  1.3858
18884TIP3    H278068   3.268   1.074  15.353 -0.8876 -1.4917  0.6368
18885TIP3   OH278069   4.142   6.497  12.340  0.1502 -0.1143 -0.1961
18885TIP3    H178070   4.169   6.580  12.301 -0.5101 -0.6892 -1.9077
18885TIP3    H278071   4.167   6.431  12.276 -0.5582 -1.1197  0.5437
18886TIP3   OH278072   3.229   0.678   3.049  0.2267  0.2593  0.3812
18886TIP3    H178073   3.226   0.586   3.076 -0.7662 -0.0384 -0.7119
18886TIP3    H278074   3.193   0.726   3.124  0.3830 -0.2782  0.8071
18887TIP3   OH278075   1.458   4.369   3.951 -0.5932 -0.3548 -0.2105
18887TIP3    H178076   1.485   4.338   4.037  0.0215  0.3794 -0.1320
18887TIP3    H278077   1.444   4.463   3.962 -2.6823 -0.6236 -0.3851
18888TIP3   OH278078   0.219   1.098  14.183  0.1191  0.8019 -0.5074
18888TIP3    H178079   0.175   1.136  14.259  0.3457 -0.8460  0.4766
18888TIP3    H278080   0.309   1.129  14.190  0.3368 -0.0024  0.3676
18889TIP3   OH278081   4.604   4.173   3.514  0.4842 -0.4535  0.0186
18889TIP3    H178082   4.638   4.199   3.600  1.3952  1.4008 -0.8724
18889TIP3    H278083   4.586   4.079   3.523 -3.2619  0.4470  3.4432
18890TIP3   OH278084   1.949   4.991  16.031 -0.0937 -0.0420 -0.2195
18890TIP3    H178085   1.946   4.898  16.057 -1.2510  0.3454  1.1155
18890TIP3    H278086   2.030   5.023  16.069 -0.5804 -0.0825  0.8840
18891TIP3   OH278087   5.312   1.614  13.812  0.0407 -0.6292 -0.4163
18891TIP3    H178088   5.355   1.600  13.727  0.3786 -1.6541 -0.0859
18891TIP3    H278089   5.244   1.547  13.815 -0.2445 -0.3220 -0.0538
18892TIP3   OH278090   2.473   5.009   5.556  0.2882  0.4233 -0.4639
18892TIP3    H178091   2.412   4.999   5.483 -0.3098 -0.2162  0.1137
18892TIP3    H278092   2.419   5.046   5.626  0.5594 -0.1504  0.0484
18893TIP3   OH278093   3.122   2.628   1.458 -0.2256  0.0217  0.1886
18893TIP3    H178094   3.112   2.696   1.391 -0.0469  0.5353  0.6710
18893TIP3    H278095   3.141   2.677   1.538 -4.4575 -0.3142  1.5260
18894TIP3   OH278096   5.466   2.913  14.435  0.3720 -0.0318 -0.2598
18894TIP3    H178097   5.474   3.003  14.402  1.4588  0.2873  0.8335
18894TIP3    H278098   5.485   2.858  14.358  0.1447  0.6755 -0.8320
18895TIP3   OH278099   3.891   1.416  12.516 -0.2655 -0.0747 -0.1230
18895TIP3    H178100   3.830   1.490  12.515 -1.5083 -1.0816 -0.9671
18895TIP3    H278101   3.837   1.342  12.543  0.5186 -1.0513 -1.2134
18896TIP3   OH278102   1.476   4.928   6.419  0.1398 -0.5234  0.2092
18896TIP3    H178103   1.477   4.875   6.498  0.2136  0.6423  0.9943
18896TIP3    H278104   1.443   5.013   6.447  1.5807  0.3606 -0.7056
18897TIP3   OH278105   4.233   0.884  16.709 -0.0660 -0.1790 -0.1772
18897TIP3    H178106   4.306   0.839  16.665 -0.8564 -0.8068 -0.8630
18897TIP3    H278107   4.233   0.847  16.798  1.8949  1.5118  0.5533
18898TIP3   OH278108   2.840   1.358   3.463  0.3908  0.1086  0.2832
18898TIP3    H178109   2.903   1.313   3.520  0.5339 -0.3408 -0.2220
18898TIP3    H278110   2.772   1.389   3.522 -0.1893 -1.5721  0.5470
18899TIP3   OH278111   3.177   6.393   0.957  0.7511 -0.1837  0.0072
18899TIP3    H178112   3.098   6.432   0.995  0.9870  0.4377 -0.1482
18899TIP3    H278113   3.214   6.341   1.029  0.5229 -0.0018  0.2589
18900TIP3   OH278114   5.663   0.133  11.118  0.6090  1.1400 -0.1839
18900TIP3    H178115   5.740   0.161  11.069  0.1094 -0.1212 -1.7276
18900TIP3    H278116   5.696   0.064  11.177  0.2864 -1.0113 -2.4488
18901TIP3   OH278117   4.181   0.090   5.110  0.2800 -0.4432 -0.0058
18901TIP3    H178118   4.231   0.045   5.043 -0.3765 -2.8258  1.0684
18901TIP3    H278119   4.092   0.056   5.101  0.1315 -0.6123  1.9030
18902TIP3   OH278120   6.697   1.641  12.496  0.4788  0.1710 -0.0716
18902TIP3    H178121   6.674   1.658  12.405  0.6232  0.9062  0.0301
18902TIP3    H278122   6.678   1.548  12.508 -1.0104  0.4287 -0.4079
18903TIP3   OH278123   5.689   3.544  12.200  0.1770  0.7398  0.0636
18903TIP3    H178124   5.783   3.534  12.193 -0.0552 -1.5985 -0.0609
18903TIP3    H278125   5.670   3.528  12.292 -0.1959  0.1987 -0.1045
18904TIP3   OH278126   3.893   6.543  14.510 -0.3187 -0.0098 -0.2762
18904TIP3    H178127   3.927   6.614  14.456 -1.4675  0.3212 -0.5782
18904TIP3    H278128   3.842   6.489  14.450 -1.5844  0.3536  0.4460
18905TIP3   OH278129   3.150   1.165   2.361  0.0143 -0.2423  0.1031
18905TIP3    H178130   3.100   1.176   2.280 -2.4849 -2.1648  1.3253
18905TIP3    H278131   3.233   1.125   2.333  0.0148  0.9762 -1.7086
18906TIP3   OH278132   0.982   5.456   6.708 -0.8767  0.2732 -0.1489
18906TIP3    H178133   1.053   5.499   6.659  1.0780 -2.1608  0.4128
18906TIP3    H278134   0.947   5.390   6.647 -1.0679 -0.1049  0.3627
18907TIP3   OH278135   5.231   6.090   2.165 -0.5600 -0.0594 -0.2311
18907TIP3    H178136   5.241   6.177   2.129  0.2271 -0.5394 -1.1921
18907TIP3    H278137   5.215   6.034   2.089 -0.1438 -0.8866  0.2827
18908TIP3   OH278138   2.287   5.253   4.034 -0.1960  0.3142  0.3958
18908TIP3    H178139   2.255   5.291   4.116 -0.7797  0.2307  0.2143
18908TIP3    H278140   2.375   5.221   4.054  0.3009  1.7399  0.5613
18909TIP3   OH278141   5.587   1.844  11.608  0.2914  0.4929 -0.0561
18909TIP3    H178142   5.643   1.891  11.670  0.1872  0.8640 -0.2417
18909TIP3    H278143   5.647   1.814  11.540  0.0918  2.0008 -0.9251
18910TIP3   OH278144   5.691   3.479   0.739  0.2578 -0.2563 -0.0346
18910TIP3    H178145   5.666   3.387   0.726  0.5587 -0.1362 -1.6284
18910TIP3    H278146   5.764   3.492   0.679  1.6597  0.4353  1.8000
18911TIP3   OH278147   6.030   4.981   5.098 -0.5308  0.1724  0.1335
18911TIP3    H178148   5.952   5.035   5.102 -1.8286 -1.6403 -0.2685
18911TIP3    H278149   5.998   4.892   5.081  1.5418 -0.7335  0.7148
18912TIP3   OH278150   1.742   5.391  15.098 -0.5924  0.4073  0.7582
18912TIP3    H178151   1.731   5.353  15.185  0.1386 -0.4978  0.4520
18912TIP3    H278152   1.765   5.483  15.115  0.8268 -0.0858  1.5358
18913TIP3   OH278153   3.015   6.345  13.058  0.0139 -0.0124 -0.3065
18913TIP3    H178154   3.032   6.397  13.137  2.8625  0.7670 -1.3738
18913TIP3    H278155   3.042   6.402  12.986 -2.1412 -0.8811 -1.8616
18914TIP3   OH278156   4.239   0.178   2.812  0.4067 -0.0919 -0.2902
18914TIP3    H178157   4.168   0.237   2.786  1.1089  1.7642  1.8582
18914TIP3    H278158   4.195   0.095   2.830 -0.8259  0.2290 -1.7288
18915TIP3   OH278159   5.058   1.363   5.617  0.5443  0.1153  0.4134
18915TIP3    H178160   5.037   1.441   5.669  0.7047  0.2954  0.2049
18915TIP3    H278161   5.060   1.292   5.681  0.9610  0.3740  0.6844
18916TIP3   OH278162   6.045   2.821  16.788  1.0427  0.2025  0.2682
18916TIP3    H178163   6.032   2.787  16.877  0.1090  0.9554  0.4289
18916TIP3    H278164   5.959   2.816  16.748  1.1708  1.1505 -0.1411
18917TIP3   OH278165   5.993   2.691  13.340  0.7308  0.2625 -0.5103
18917TIP3    H178166   5.964   2.601  13.349  0.7769  0.2220 -0.7517
18917TIP3    H278167   5.916   2.744  13.361  0.9923  0.1837  0.6827
18918TIP3   OH278168   2.699   1.643  12.114  0.7056 -0.2688  0.0974
18918TIP3    H178169   2.726   1.552  12.104  0.5070 -0.2963 -0.1650
18918TIP3    H278170   2.623   1.653  12.058  2.2136  0.7075 -1.8332
18919TIP3   OH278171   2.021   1.444  11.638  0.4260 -0.5688  0.0518
18919TIP3    H178172   2.047   1.376  11.701  2.4261 -0.6728 -0.8465
18919TIP3    H278173   2.069   1.522  11.666 -0.7074  0.1011  0.1839
18920TIP3   OH278174   4.000   6.614  11.641  0.4162 -0.5968 -0.7576
18920TIP3    H178175   4.070   6.596  11.578  1.1480  2.2243 -0.8124
18920TIP3    H278176   3.967   6.700  11.615 -0.9735 -0.5284  1.1877
18921TIP3   OH278177   0.260   3.487  11.598  0.3377  0.2525 -0.4606
18921TIP3    H178178   0.293   3.564  11.644 -2.7032  1.3045  0.0793
18921TIP3    H278179   0.188   3.520  11.545 -2.5001 -2.5682  1.4625
18922TIP3   OH278180   5.474   4.144   0.777 -0.4905  0.0622  0.2381
18922TIP3    H178181   5.407   4.209   0.758 -0.8751 -0.4120 -0.0269
18922TIP3    H278182   5.469   4.132   0.871 -2.4109 -1.7354 -0.0648
18923TIP3   OH278183   0.274   5.567  16.379 -0.0715 -0.0949  0.5314
18923TIP3    H178184   0.250   5.485  16.421 -0.8296  0.4061  1.0697
18923TIP3    H278185   0.366   5.555  16.353 -0.2964 -1.2397  0.2834
18924TIP3   OH278186   5.899   2.853  12.987 -0.1019 -0.3939  0.1832
18924TIP3    H178187   5.939   2.894  13.063 -0.6309 -1.2848  0.9533
18924TIP3    H278188   5.867   2.768  13.019  0.8338 -1.3462 -1.3396
18925TIP3   OH278189   1.269   4.478  11.497 -0.3596  0.3369 -0.9544
18925TIP3    H178190   1.211   4.423  11.549  2.0666 -1.3014  0.1492
18925TIP3    H278191   1.296   4.421  11.425  1.0652  0.5297 -0.5909
18926TIP3   OH278192   0.892   6.177   4.484  0.3080 -0.4985  0.8641
18926TIP3    H178193   0.974   6.129   4.494  0.3590 -0.5430  0.2718
18926TIP3    H278194   0.845   6.130   4.415 -0.0891 -0.3062  1.0036
18927TIP3   OH278195   3.133   3.087  16.805 -0.1837  0.6558 -0.6021
18927TIP3    H178196   3.109   3.050  16.720 -1.1094  0.5778 -0.3126
18927TIP3    H278197   3.061   3.146  16.826 -0.5065 -0.1657  0.6393
18928TIP3   OH278198   1.442   0.889  11.646 -0.2413  0.1696  0.9493
18928TIP3    H178199   1.380   0.829  11.603  1.0314  1.2021 -2.5272
18928TIP3    H278200   1.404   0.975  11.632  0.2889  0.5325  1.7754
18929TIP3   OH278201   2.096   3.497   3.355 -0.3869  0.2127  0.0766
18929TIP3    H178202   2.031   3.533   3.294 -2.6536 -1.8230  1.1850
18929TIP3    H278203   2.095   3.557   3.429  0.1353  1.0285 -0.5700
18930TIP3   OH278204   3.351   6.475  16.168 -0.2461  0.4189 -0.5681
18930TIP3    H178205   3.389   6.511  16.089 -0.3640  3.8722  0.8850
18930TIP3    H278206   3.256   6.485  16.157 -0.3128 -0.0260 -0.4227
18931TIP3   OH278207   0.994   4.017  13.873  0.2092  0.1990 -0.3146
18931TIP3    H178208   1.014   3.952  13.806  0.4252 -0.3744  0.2930
18931TIP3    H278209   1.020   4.101  13.835  2.2682 -0.3423 -0.1558
18932TIP3   OH278210   5.889   1.889  15.533  0.1979 -0.5580  0.0686
18932TIP3    H178211   5.961   1.828  15.551 -0.3088 -1.5967 -1.4112
18932TIP3    H278212   5.857   1.864  15.447 -1.0908  0.7518  0.1581
18933TIP3   OH278213   6.315   2.963   0.156 -0.6877 -0.3307 -0.0006
18933TIP3    H178214   6.303   2.938   0.064 -2.0254  1.0331 -0.2200
18933TIP3    H278215   6.256   2.906   0.205 -0.8358 -0.2631 -0.1006
18934TIP3   OH278216   0.927   3.381   4.077  0.5140  0.2907  0.2429
18934TIP3    H178217   0.910   3.287   4.081 -0.4495  0.1764 -3.8630
18934TIP3    H278218   1.009   3.393   4.124  0.0573 -2.4255  1.8020
18935TIP3   OH278219   4.334   1.862  15.758  0.5779  0.2991  0.3450
18935TIP3    H178220   4.343   1.850  15.663  1.4693  2.4667  0.1127
18935TIP3    H278221   4.405   1.921  15.781  0.1266  0.1076  2.3117
18936TIP3   OH278222   5.502   0.484   4.510  0.2472 -0.7902 -0.2780
18936TIP3    H178223   5.592   0.517   4.508  0.8075 -2.2855 -0.3959
18936TIP3    H278224   5.448   0.561   4.492  1.5629 -0.1072 -1.4240
18937TIP3   OH278225   0.410   1.801   0.908 -0.0942 -0.0097  0.2606
18937TIP3    H178226   0.369   1.874   0.953 -0.2993  0.1673 -0.2078
18937TIP3    H278227   0.343   1.770   0.847 -0.1913 -0.9122  0.8187
18938TIP3   OH278228   1.067   6.694  11.674  0.2116  0.5502 -0.5802
18938TIP3    H178229   1.035   6.728  11.757 -2.6757  0.6491 -1.6805
18938TIP3    H278230   1.149   6.740  11.659  0.6343  0.7325  2.0583
18939TIP3   OH278231   0.811   5.084  14.812  0.2680  0.0411  0.6662
18939TIP3    H178232   0.901   5.087  14.781  0.4539 -0.8000  1.1069
18939TIP3    H278233   0.807   5.149  14.882  0.3998  0.4270  0.3202
18940TIP3   OH278234   6.700   4.181  16.695  0.2106  0.1835  0.0530
18940TIP3    H178235   6.728   4.144  16.612  1.9451  0.3141  0.5717
18940TIP3    H278236   6.659   4.107  16.742 -0.5256  0.0499 -0.7872
18941TIP3   OH278237   2.779   6.346  11.418 -0.0886 -0.3455 -0.8600
18941TIP3    H178238   2.760   6.396  11.497  1.6109  1.8179 -1.7574
18941TIP3    H278239   2.756   6.256  11.440 -1.4658  0.5224  1.4305
18942TIP3   OH278240   0.471   1.458   1.616  0.3459 -0.1169  0.4128
18942TIP3    H178241   0.556   1.436   1.577  0.1136  1.3619 -1.0124
18942TIP3    H278242   0.472   1.554   1.620 -1.6425 -0.0303 -0.5439
18943TIP3   OH278243   3.894   4.147   0.352  0.7069 -0.3362 -0.4758
18943TIP3    H178244   3.845   4.160   0.271  1.3545 -1.0247 -0.9871
18943TIP3    H278245   3.836   4.093   0.406 -0.4067  1.4586  0.1803
18944TIP3   OH278246   2.205   3.246  15.399 -0.4019  0.6072  0.4336
18944TIP3    H178247   2.167   3.251  15.311  0.0906 -2.5957 -0.0245
18944TIP3    H278248   2.131   3.221  15.455  0.0878 -1.5051  0.2038
18945TIP3   OH278249   5.753   5.881  15.268  0.7998 -0.5910  0.4400
18945TIP3    H178250   5.755   5.816  15.197 -1.7455  0.0871 -0.3176
18945TIP3    H278251   5.688   5.946  15.239  2.9041  2.0285  1.4102
18946TIP3   OH278252   3.525   4.120   1.315 -0.5024  0.4345  0.1242
18946TIP3    H178253   3.454   4.057   1.322 -1.0223  1.2063  2.1500
18946TIP3    H278254   3.484   4.205   1.331  0.5461  1.0893 -0.5771
18947TIP3   OH278255   0.780   3.897   2.103  0.5491  0.1366 -0.2716
18947TIP3    H178256   0.752   3.868   2.190 -2.0825  1.3258 -0.6904
18947TIP3    H278257   0.816   3.985   2.118  0.4725  0.1784 -0.3374
18948TIP3   OH278258   1.777   2.317  13.984 -0.0778 -0.2041  0.1716
18948TIP3    H178259   1.730   2.352  14.059 -2.3174 -1.4209 -0.6051
18948TIP3    H278260   1.711   2.313  13.914  1.3893 -1.2141 -1.1919
18949TIP3   OH278261   6.419   4.277   5.309  1.0528  0.3275  0.6002
18949TIP3    H178262   6.514   4.265   5.310  1.0973  0.2935 -1.7781
18949TIP3    H278263   6.404   4.340   5.238 -0.7335  0.0671  0.7342
18950TIP3   OH278264   3.927   1.699  11.879 -0.1329 -0.3715  0.1603
18950TIP3    H178265   3.968   1.614  11.861  0.1360 -0.1322 -0.3864
18950TIP3    H278266   3.894   1.728  11.793  0.1377  0.2621  0.2686
18951TIP3   OH278267   1.585   0.726  14.417 -0.1256 -0.0887 -0.0673
18951TIP3    H178268   1.662   0.774  14.387  0.5028 -1.6569 -1.0098
18951TIP3    H278269   1.596   0.718  14.511 -0.0851  1.3400  0.0572
18952TIP3   OH278270   3.610   4.298  11.415  0.2114 -0.1739  0.6532
18952TIP3    H178271   3.700   4.316  11.441  0.6701 -0.2291 -0.8282
18952TIP3    H278272   3.596   4.350  11.336 -0.5688 -1.2648  0.0425
18953TIP3   OH278273   1.314   0.934   4.743 -0.3002  0.0407  0.2349
18953TIP3    H178274   1.315   0.844   4.711  0.2412 -0.4624  1.5996
18953TIP3    H278275   1.222   0.960   4.740 -0.5131 -0.6967  0.2104
18954TIP3   OH278276   4.674   3.969  14.010  0.4176  0.1768 -0.4155
18954TIP3    H178277   4.758   3.965  13.964  0.4458 -0.5365 -0.3041
18954TIP3    H278278   4.662   3.881  14.045 -0.2026  0.3804 -0.1179
18955TIP3   OH278279   6.774   5.310  10.735  0.0852  0.2195 -0.1314
18955TIP3    H178280   6.720   5.253  10.788 -0.8001  1.3601  0.2088
18955TIP3    H278281   6.770   5.272  10.647  2.2854 -2.1779  0.7617
18956TIP3   OH278282   2.460   2.967   2.101 -0.0994 -0.1857 -0.1073
18956TIP3    H178283   2.531   2.903   2.106  0.4335  0.1979 -2.2086
18956TIP3    H278284   2.417   2.949   2.018 -2.4092 -0.3322  1.0833
18957TIP3   OH278285   3.626   6.192   4.285  0.0713  0.3779 -0.7177
18957TIP3    H178286   3.646   6.116   4.339  1.8814  1.2834 -0.0741
18957TIP3    H278287   3.578   6.251   4.343 -0.6598  0.0598 -0.9945
18958TIP3   OH278288   1.422   6.611  12.282 -1.0901 -0.3628  0.0703
18958TIP3    H178289   1.454   6.531  12.325  1.7846  0.7344  0.0899
18958TIP3    H278290   1.473   6.616  12.201  0.3672  2.5571  1.0993
18959TIP3   OH278291   3.161   0.503  15.717 -0.0770 -0.0908  0.1102
18959TIP3    H178292   3.184   0.410  15.730  0.4099  0.1560  1.0682
18959TIP3    H278293   3.242   0.550  15.739 -0.0947  0.5206 -1.1117
18960TIP3   OH278294   4.598   2.304  15.671 -0.2065 -0.2267  0.3438
18960TIP3    H178295   4.580   2.389  15.630  1.6120 -0.6969 -1.4801
18960TIP3    H278296   4.545   2.242  15.621  1.2031 -0.6501 -0.6523
18961TIP3   OH278297   0.328   2.976   3.787  0.6832 -0.0489  0.0042
18961TIP3    H178298   0.354   3.057   3.744  0.8118 -1.0531 -1.8547
18961TIP3    H278299   0.248   2.950   3.742 -0.9479  0.4864  2.4678
18962TIP3   OH278300   5.272   5.085  16.918  0.5446  0.9079 -0.3578
18962TIP3    H178301   5.306   5.059  16.833  0.9956 -1.5223  0.4972
18962TIP3    H278302   5.318   5.166  16.940  2.3513  0.1625 -1.2891
18963TIP3   OH278303   3.624   1.085  14.881  0.2388 -0.3442 -0.3987
18963TIP3    H178304   3.591   1.041  14.959 -0.4307  0.7840 -0.0305
18963TIP3    H278305   3.714   1.110  14.903 -0.0208  0.1631  0.1043
18964TIP3   OH278306   2.065   5.235   1.571  0.3519 -0.4281  0.1215
18964TIP3    H178307   2.060   5.273   1.484 -1.3062 -1.0707 -0.0900
18964TIP3    H278308   2.159   5.230   1.590  0.7610 -0.7335 -1.8256
18965TIP3   OH278309   6.345   0.995   2.031 -0.6275 -0.4066  0.1519
18965TIP3    H178310   6.366   1.088   2.035  1.1462 -0.8240  1.0593
18965TIP3    H278311   6.290   0.979   2.108 -1.2792 -0.0565 -0.2270
18966TIP3   OH278312   2.468   4.218  16.355  0.8054 -0.3044  0.1700
18966TIP3    H178313   2.551   4.201  16.312  0.4625 -0.6375 -0.3577
18966TIP3    H278314   2.475   4.308  16.387  1.9619 -0.8328  1.4789
18967TIP3   OH278315   5.532   2.584  15.843 -0.9054  0.2403  0.3813
18967TIP3    H178316   5.460   2.566  15.783 -0.0663  1.0700 -0.9137
18967TIP3    H278317   5.563   2.671  15.818 -1.0049  0.9333  2.5211
18968TIP3   OH278318   3.936   3.820  17.111  0.5565  0.1434  0.2964
18968TIP3    H178319   3.952   3.850  17.200  0.7131  0.1694  0.2620
18968TIP3    H278320   3.996   3.872  17.057  1.0152 -0.4089  0.2633
18969TIP3   OH278321   6.200   3.270  11.477  0.7029 -0.2647  0.0186
18969TIP3    H178322   6.150   3.223  11.409 -0.2767 -1.0976  1.2964
18969TIP3    H278323   6.184   3.362  11.458  0.5898 -0.4832 -1.0035
18970TIP3   OH278324   1.419   6.216  16.671 -0.5157 -0.3446 -0.4218
18970TIP3    H178325   1.335   6.255  16.692 -0.9270 -1.1858 -0.4757
18970TIP3    H278326   1.403   6.164  16.593  0.0469 -0.5364 -0.4147
18971TIP3   OH278327   0.160   2.216   2.183 -0.0532 -0.0770 -0.3586
18971TIP3    H178328   0.168   2.122   2.164  0.6247 -0.5347  1.9420
18971TIP3    H278329   0.250   2.248   2.183 -0.1861  0.2993  0.1518
18972TIP3   OH278330   6.601   4.166   6.500  0.6052  0.3598 -0.2980
18972TIP3    H178331   6.642   4.220   6.568  0.0514  0.9977 -0.4794
18972TIP3    H278332   6.673   4.146   6.440  1.3837 -1.1856  1.0763
18973TIP3   OH278333   3.548   1.010  15.493  0.3670 -0.7925 -0.4070
18973TIP3    H178334   3.489   1.047  15.427  0.8251 -1.8768 -1.4436
18973TIP3    H278335   3.531   1.062  15.572  0.0937  0.7812 -1.4718
18974TIP3   OH278336   3.796   2.368  15.498  0.1193 -0.4771  0.1900
18974TIP3    H178337   3.816   2.283  15.459 -0.6291 -1.0892  1.1345
18974TIP3    H278338   3.706   2.360  15.529  0.0968  0.6093  0.4187
18975TIP3   OH278339   6.609   6.040   0.721  0.2321  0.2441  0.2134
18975TIP3    H178340   6.695   6.060   0.684 -1.5453  2.0033 -3.1655
18975TIP3    H278341   6.562   6.123   0.719 -2.6274 -1.3097 -1.0429
18976TIP3   OH278342   0.989   0.268  17.185 -0.6687  0.1296  0.0612
18976TIP3    H178343   0.963   0.345  17.134 -1.6341 -1.2422 -1.5570
18976TIP3    H278344   1.067   0.235  17.140 -0.8143 -0.3844  0.1896
18977TIP3   OH278345   5.453   2.577   1.174 -0.4095  0.5039 -0.4151
18977TIP3    H178346   5.410   2.655   1.209 -1.7394 -0.1702 -0.5308
18977TIP3    H278347   5.456   2.591   1.080 -0.7488  0.3644 -0.4463
18978TIP3   OH278348   1.112   4.565   4.709  0.5071 -0.5587  0.3641
18978TIP3    H178349   1.107   4.613   4.627 -0.5640 -1.0139  0.1486
18978TIP3    H278350   1.150   4.480   4.685  1.9200 -0.0125  0.6564
18979TIP3   OH278351   3.549   1.106   0.158 -0.0151 -0.0254  0.2985
18979TIP3    H178352   3.506   1.051   0.093  2.6868 -1.2414 -0.5404
18979TIP3    H278353   3.578   1.183   0.110 -2.0397  1.2604  1.0664
18980TIP3   OH278354   4.228   1.934   5.859  0.0897  0.1013  0.1371
18980TIP3    H178355   4.188   1.880   5.791  0.2358 -1.6314  1.4145
18980TIP3    H278356   4.154   1.966   5.910  0.0396  0.6965 -0.3016
18981TIP3   OH278357   5.384   0.156  14.964 -0.1628  0.6058  0.1656
18981TIP3    H178358   5.426   0.070  14.958  0.4171  0.8130  1.2502
18981TIP3    H278359   5.453   0.214  14.997 -0.8542  1.2700  0.4478
18982TIP3   OH278360   0.900   3.261   4.525 -0.4382  0.0862  0.0415
18982TIP3    H178361   0.884   3.271   4.619  1.1358 -0.3233  0.3752
18982TIP3    H278362   0.863   3.175   4.503 -0.8887  0.2217  0.2707
18983TIP3   OH278363   6.721   4.096   2.544  0.2490 -0.4383 -0.1595
18983TIP3    H178364   6.794   4.074   2.486  1.1383  0.7425  0.5015
18983TIP3    H278365   6.703   4.016   2.592  0.9093 -0.8112 -0.5351
18984TIP3   OH278366   1.954   3.543  13.531  0.4572 -0.3096 -0.2323
18984TIP3    H178367   1.861   3.556  13.552  0.2403 -0.5069 -1.0650
18984TIP3    H278368   1.990   3.502  13.610  0.3416  1.8226  0.9533
18985TIP3   OH278369   3.024   5.074  11.693 -0.2748 -0.4109  0.1633
18985TIP3    H178370   3.008   5.096  11.602  0.5467  0.2287  0.1595
18985TIP3    H278371   3.120   5.073  11.701 -0.3379 -0.3385  1.0370
18986TIP3   OH278372   3.872   4.678  13.974  0.3210 -0.0743  0.6624
18986TIP3    H178373   3.844   4.706  14.062  0.2639  0.3147  0.5216
18986TIP3    H278374   3.949   4.732  13.955 -0.3694  0.6986 -0.0146
18987TIP3   OH278375   2.931   1.907   2.319 -0.5172 -0.3127 -0.9827
18987TIP3    H178376   2.838   1.887   2.326 -0.5147 -0.1942 -0.5983
18987TIP3    H278377   2.965   1.842   2.258 -0.3559 -1.9768  0.8504
18988TIP3   OH278378   3.212   2.794   5.110 -0.1005  0.5507  0.0860
18988TIP3    H178379   3.252   2.860   5.167 -0.6900  0.6863  0.3509
18988TIP3    H278380   3.131   2.770   5.155 -0.1164 -0.0099 -0.2467
18989TIP3   OH278381   4.466   6.327  11.767 -0.4374  0.1460 -0.0752
18989TIP3    H178382   4.397   6.291  11.822 -0.0713 -0.8570 -0.2594
18989TIP3    H278383   4.535   6.351  11.829 -0.4136 -0.0867 -0.0104
18990TIP3   OH278384   0.134   1.903   4.854 -0.2199  0.0774 -0.0240
18990TIP3    H178385   0.164   1.913   4.945 -0.2750 -0.4102  0.0448
18990TIP3    H278386   0.212   1.919   4.802 -0.4509  1.5787  0.0654
18991TIP3   OH278387   1.473   0.581  15.903 -0.1218 -0.9006  0.2535
18991TIP3    H178388   1.458   0.589  15.809  1.6227 -1.1929 -0.0723
18991TIP3    H278389   1.387   0.590  15.942 -1.0608 -2.0911 -1.4671
18992TIP3   OH278390   0.208   0.676   1.365 -0.6912 -0.6587 -1.0024
18992TIP3    H178391   0.163   0.669   1.449  0.6807  0.0545 -0.1840
18992TIP3    H278392   0.272   0.746   1.378  0.1176 -1.1203 -2.3689
18993TIP3   OH278393   4.166   0.915  14.181 -1.0684  0.3911 -0.2442
18993TIP3    H178394   4.217   0.973  14.124  0.5283 -0.2976  0.4821
18993TIP3    H278395   4.075   0.937  14.160 -0.5024  1.5321 -1.6462
18994TIP3   OH278396   0.246   2.720   0.062  0.2887 -0.2840  0.0066
18994TIP3    H178397   0.306   2.766   0.120 -0.5825  0.5730  0.2337
18994TIP3    H278398   0.276   2.741  -0.026  0.7201 -0.4020  0.1225
18995TIP3   OH278399   1.192   3.952  15.277  0.2691 -0.0324 -0.1761
18995TIP3    H178400   1.122   3.887  15.281  1.7401 -1.6862 -0.7566
18995TIP3    H278401   1.256   3.915  15.217  2.7390  0.3742  2.1239
18996TIP3   OH278402   0.735   0.266  12.326 -0.1928 -0.0722  0.3883
18996TIP3    H178403   0.805   0.279  12.389  0.6840  0.6178 -0.7061
18996TIP3    H278404   0.740   0.342  12.268 -1.3778 -0.3773 -0.1342
18997TIP3   OH278405   1.561   3.405   3.733  0.4531 -0.1403  0.1920
18997TIP3    H178406   1.598   3.489   3.706  1.3146 -0.2733  0.9161
18997TIP3    H278407   1.609   3.382   3.813  0.1330 -1.2479  0.0806
18998TIP3   OH278408   6.723   2.988   4.878 -0.3939 -0.3316  0.5142
18998TIP3    H178409   6.707   2.944   4.961 -0.0852  1.2253  1.4170
18998TIP3    H278410   6.637   3.023   4.853 -0.5871 -1.2109 -0.0766
18999TIP3   OH278411   6.373   5.310  15.684  0.2958 -0.6563  0.3133
18999TIP3    H178412   6.305   5.353  15.633 -0.2953 -0.8020  0.9824
18999TIP3    H278413   6.349   5.217  15.684  0.5900 -0.7364  0.4064
19000TIP3   OH278414   6.773   6.493  15.773  0.5853 -0.2102 -0.2440
19000TIP3    H178415   6.726   6.463  15.851 -0.1927 -1.8635 -1.3071
19000TIP3    H278416   6.826   6.566  15.803 -0.6932  0.0122  1.5562
19001TIP3   OH278417   3.263   1.206   0.372 -0.2868 -0.1889 -0.2386
19001TIP3    H178418   3.254   1.277   0.309 -2.1168 -0.5757 -0.4305
19001TIP3    H278419   3.355   1.179   0.364 -0.1767  0.6016 -1.8173
19002TIP3   OH278420   5.375   6.533   2.487 -0.0295 -0.1029 -0.0161
19002TIP3    H178421   5.457   6.580   2.479  0.0168 -0.1901 -0.0431
19002TIP3    H278422   5.372   6.475   2.410  0.5460 -1.1298  0.7340
19003TIP3   OH278423   3.550   6.781  12.315  0.0981 -0.4120 -0.2268
19003TIP3    H178424   3.604   6.759  12.390  0.8508  0.5348 -0.4774
19003TIP3    H278425   3.460   6.769  12.346  0.3891  0.3098  0.9476
19004TIP3   OH278426   4.962   1.849   5.148  0.0519 -0.0152  0.1974
19004TIP3    H178427   4.979   1.759   5.119  2.6381  1.0027 -1.6709
19004TIP3    H278428   4.964   1.844   5.243  2.4120 -1.5903  0.1240
19005TIP3   OH278429   1.704   1.986  16.792  0.2614 -0.4579  0.1055
19005TIP3    H178430   1.752   1.935  16.858  0.6507 -0.8175 -0.4567
19005TIP3    H278431   1.668   1.920  16.733  1.1185 -0.0690 -0.8626
19006TIP3   OH278432   4.293   3.215   0.265 -0.4984  0.3455 -0.6921
19006TIP3    H178433   4.387   3.233   0.272 -0.3788 -1.0832  1.5995
19006TIP3    H278434   4.287   3.119   0.264 -1.9557  0.4283 -0.6449
19007TIP3   OH278435   5.721   5.667   3.755  0.1166 -0.2490 -0.3657
19007TIP3    H178436   5.799   5.655   3.809 -0.7051 -2.2956  0.4083
19007TIP3    H278437   5.663   5.721   3.809  1.1691  1.7392 -1.1588
19008TIP3   OH278438   1.766   0.416  16.500  0.4629  0.0735  0.6989
19008TIP3    H178439   1.701   0.416  16.570 -0.3062  0.4747 -0.0109
19008TIP3    H278440   1.842   0.459  16.538 -0.6636  2.1523  0.6339
19009TIP3   OH278441   5.797   6.430  11.874  0.8579  0.2375 -0.3939
19009TIP3    H178442   5.836   6.460  11.792  1.2324 -0.5245 -0.4927
19009TIP3    H278443   5.857   6.461  11.942  0.7850  0.4671 -0.4324
19010TIP3   OH278444   5.654   4.024   4.537 -0.7017 -0.2131 -0.3155
19010TIP3    H178445   5.573   4.071   4.558 -0.3415  0.1246  0.3590
19010TIP3    H278446   5.716   4.093   4.513 -0.5425 -0.4463 -0.5785
19011TIP3   OH278447   1.121   1.934   5.280  0.3804  0.2373  0.4148
19011TIP3    H178448   1.133   1.980   5.197  3.1064 -0.3115  0.4680
19011TIP3    H278449   1.138   2.000   5.347 -2.5590  0.8754  0.5916
19012TIP3   OH278450   5.872   1.183  14.648  0.4338  0.0487  0.1182
19012TIP3    H178451   5.842   1.250  14.708  2.4316 -0.0734  1.2907
19012TIP3    H278452   5.834   1.101  14.682  1.8612 -0.0769  1.4621
19013TIP3   OH278453   5.514   0.519  13.264 -0.5440  0.2277  0.1627
19013TIP3    H178454   5.599   0.565  13.265 -1.1305  1.4620 -1.9744
19013TIP3    H278455   5.455   0.577  13.311 -0.6015  0.2042  0.1185
19014TIP3   OH278456   3.597   2.143  11.094  0.5118 -0.5974 -0.0261
19014TIP3    H178457   3.631   2.119  11.007 -0.7011 -0.1987 -0.6260
19014TIP3    H278458   3.650   2.091  11.155  1.3885 -0.8797 -0.9975
19015TIP3   OH278459   2.986   4.665  13.035  0.4076 -0.0712 -0.4678
19015TIP3    H178460   2.911   4.716  13.068  1.0588  1.0561 -0.7007
19015TIP3    H278461   2.987   4.586  13.089 -0.6429  0.1420 -0.1229
19016TIP3   OH278462   5.974   1.365   0.290 -0.4202 -0.0498 -0.6355
19016TIP3    H178463   5.974   1.404   0.202  2.9671 -1.4797 -1.3435
19016TIP3    H278464   6.041   1.414   0.338  0.8161 -2.1117 -0.2129
19017TIP3   OH278465   1.424   3.109   4.901 -0.2078 -0.2295  0.2521
19017TIP3    H178466   1.454   3.185   4.950  0.3275 -1.2000  1.4412
19017TIP3    H278467   1.421   3.139   4.810 -0.0203  1.2085  0.7079
19018TIP3   OH278468   2.485   3.641  11.842 -0.2783 -0.3158  0.4235
19018TIP3    H178469   2.552   3.657  11.775  0.7022 -1.5429  1.0854
19018TIP3    H278470   2.413   3.698  11.817 -0.2928 -1.3760 -2.2171
19019TIP3   OH278471   2.619   1.176  12.526  0.1170  0.0637  0.5312
19019TIP3    H178472   2.698   1.230  12.531 -1.0951  1.8537  0.4452
19019TIP3    H278473   2.564   1.217  12.459 -1.2993 -0.6408  1.2282
19020TIP3   OH278474   2.087   4.386   0.826  0.1704 -0.2949  0.1412
19020TIP3    H178475   2.154   4.446   0.859 -0.1672  0.2167 -0.0927
19020TIP3    H278476   2.117   4.299   0.853  1.3246 -0.1448 -0.6473
19021TIP3   OH278477   5.136   4.463   2.373 -0.2214  0.0616  0.1577
19021TIP3    H178478   5.210   4.439   2.429 -0.5321 -2.3352 -0.4043
19021TIP3    H278479   5.080   4.385   2.373 -2.5172  1.6613  0.1668
19022TIP3   OH278480   3.531   3.034  15.486 -0.0109  0.7677 -0.2607
19022TIP3    H178481   3.443   3.003  15.507 -0.9596  3.3519 -0.2209
19022TIP3    H278482   3.523   3.129  15.484  3.0622  1.1301  0.9957
19023TIP3   OH278483   4.093   0.685   2.168 -0.3824  0.8744 -0.0849
19023TIP3    H178484   4.101   0.780   2.162  1.0687  0.8215  0.6886
19023TIP3    H278485   4.115   0.652   2.081 -1.1192  1.2662 -0.4140
19024TIP3   OH278486   3.030   4.278   4.305  0.0049  0.5833 -0.3259
19024TIP3    H178487   3.031   4.235   4.391  0.8646  0.4345 -0.4088
19024TIP3    H278488   3.008   4.369   4.325 -1.6352  0.1628 -0.1347
19025TIP3   OH278489   3.395   6.754  10.452 -0.1982 -0.3956 -0.5459
19025TIP3    H178490   3.490   6.753  10.454 -0.1823 -2.2980 -1.2642
19025TIP3    H278491   3.372   6.722  10.365 -1.4918  0.7450 -0.6463
19026TIP3   OH278492   0.208   5.580  11.339  0.2552 -0.5995  0.2361
19026TIP3    H178493   0.216   5.565  11.433 -1.0370  2.1375  0.8256
19026TIP3    H278494   0.297   5.598  11.309  0.7445 -1.9754  0.8129
19027TIP3   OH278495   0.569   1.328   1.102  0.1958  1.0565  0.5650
19027TIP3    H178496   0.622   1.274   1.044 -0.4694  0.6569  0.3220
19027TIP3    H278497   0.536   1.399   1.047 -2.3842 -0.6380 -0.1390
19028TIP3   OH278498   4.463   4.855   0.937  0.0936 -0.0329  0.1427
19028TIP3    H178499   4.384   4.856   0.990  0.5589  2.3435  0.8524
19028TIP3    H278500   4.439   4.905   0.858  0.5796 -0.1749 -0.0943
19029TIP3   OH278501   0.980   2.009  11.434 -0.1524 -0.1299 -0.0948
19029TIP3    H178502   0.911   1.998  11.368 -1.2293  0.1525  0.9753
19029TIP3    H278503   0.934   2.035  11.513  0.9991 -2.0183  1.2178
19030TIP3   OH278504   6.428   0.275   2.707  0.0548 -0.1571  0.2582
19030TIP3    H178505   6.463   0.202   2.656 -1.0580 -0.5344  0.0096
19030TIP3    H278506   6.363   0.234   2.765 -0.5293  0.6316  0.1616
19031TIP3   OH278507   1.041   0.419  12.911  0.0361  0.1700  0.5971
19031TIP3    H178508   1.134   0.440  12.923  0.8097 -1.5613 -1.9781
19031TIP3    H278509   1.016   0.465  12.832 -0.4912 -1.6832 -0.3461
19032TIP3   OH278510   4.122   4.441   3.629  0.4362 -0.4323  0.0924
19032TIP3    H178511   4.207   4.396   3.629  0.6692 -0.0196 -0.7491
19032TIP3    H278512   4.109   4.468   3.720  1.5046  0.0331  0.1212
19033TIP3   OH278513   1.227   1.931  13.855 -0.1418 -0.5143 -0.0992
19033TIP3    H178514   1.297   1.880  13.897  0.2235 -0.1319 -0.2356
19033TIP3    H278515   1.192   1.986  13.925 -1.8132 -2.2894  0.5108
19034TIP3   OH278516   1.398   1.859  10.945  0.1448 -0.0743  0.0851
19034TIP3    H178517   1.338   1.785  10.942  2.2332 -1.7562 -3.3925
19034TIP3    H278518   1.388   1.895  11.033 -2.5028 -3.1388  1.1209
19035TIP3   OH278519   5.673   3.724  12.001 -0.2809  0.2884 -0.4652
19035TIP3    H178520   5.629   3.806  12.022 -0.2845  0.3469 -0.7032
19035TIP3    H278521   5.679   3.678  12.085  1.2121  1.2461 -0.0266
19036TIP3   OH278522   4.948   4.437   0.166 -0.0616  0.0272  0.2476
19036TIP3    H178523   4.863   4.465   0.131 -0.6325 -0.5123  1.1758
19036TIP3    H278524   4.927   4.404   0.254  1.0299 -0.6207  0.2620
19037TIP3   OH278525   6.048   2.284   1.756 -0.4997 -0.5072 -0.2864
19037TIP3    H178526   5.998   2.338   1.694  0.4703 -1.5551 -1.9858
19037TIP3    H278527   6.118   2.342   1.786 -1.2451  0.1550  0.2243
19038TIP3   OH278528   5.220   3.020  11.767 -0.8266 -0.1031  0.2702
19038TIP3    H178529   5.301   3.072  11.764 -2.0968  1.8308 -1.9293
19038TIP3    H278530   5.226   2.963  11.690  0.2670 -2.8968  2.3299
19039TIP3   OH278531   2.799   0.961  12.487 -0.6673  0.6070 -0.5397
19039TIP3    H178532   2.858   0.997  12.421  0.6044  0.9199  0.7501
19039TIP3    H278533   2.733   1.029  12.501  0.0170  1.2208 -0.2809
19040TIP3   OH278534   6.506   5.082   1.338  0.3746 -0.2799 -1.0768
19040TIP3    H178535   6.537   4.993   1.355  0.0598  0.0393  1.3147
19040TIP3    H278536   6.583   5.137   1.351 -0.2079  0.1145  0.9750
19041TIP3   OH278537   1.648   6.276  11.415 -0.5547 -0.1704 -0.0650
19041TIP3    H178538   1.656   6.294  11.321 -1.2777 -0.8288 -0.2615
19041TIP3    H278539   1.680   6.186  11.424 -0.5142 -0.1173  0.3200
19042TIP3   OH278540   2.397   3.559   1.591 -0.0540 -0.0529 -0.7375
19042TIP3    H178541   2.309   3.527   1.613  0.1086 -0.4379 -0.6415
19042TIP3    H278542   2.447   3.551   1.672  0.7108 -2.0430 -1.3596
19043TIP3   OH278543   0.874   6.691  12.875  0.2199  0.1435  0.0586
19043TIP3    H178544   0.820   6.669  12.799 -0.5396 -0.8459  0.8662
19043TIP3    H278545   0.896   6.607  12.914  1.4102  0.6008  0.3895
19044TIP3   OH278546   0.182   4.096   3.220 -0.1853  0.3264  0.2262
19044TIP3    H178547   0.091   4.071   3.201  0.2608 -1.3064  0.1570
19044TIP3    H278548   0.202   4.164   3.156 -0.4119 -1.3950 -1.7257
19045TIP3   OH278549   0.578   5.268   1.778 -0.5110  0.4798  0.3121
19045TIP3    H178550   0.639   5.195   1.782 -1.8653 -0.8358 -2.0918
19045TIP3    H278551   0.618   5.330   1.718 -1.5788 -0.4603 -1.4001
19046TIP3   OH278552   2.319   4.976  11.552  0.7383  0.2292 -0.0407
19046TIP3    H178553   2.308   5.070  11.538  0.0053  0.3795  1.4548
19046TIP3    H278554   2.345   4.968  11.644  1.8391 -0.9597 -0.4385
19047TIP3   OH278555   5.260   3.183  12.032  0.4864 -0.2126 -0.3846
19047TIP3    H178556   5.192   3.223  11.978  0.5814 -0.9130 -1.0265
19047TIP3    H278557   5.215   3.157  12.112 -0.1537 -1.2803 -1.0800
19048TIP3   OH278558   5.078   1.545   6.419  0.5614 -0.1334  0.3279
19048TIP3    H178559   5.120   1.469   6.378  0.2502 -0.0200 -0.1980
19048TIP3    H278560   5.107   1.541   6.510 -0.8857 -1.9248  0.7369
19049TIP3   OH278561   0.723   2.790   3.854  0.0928  0.3747 -0.1020
19049TIP3    H178562   0.644   2.799   3.908 -0.7399 -2.4395 -0.7923
19049TIP3    H278563   0.756   2.879   3.846 -2.2479  1.4301  1.3462
19050TIP3   OH278564   1.872   3.833  12.223  0.0350  0.1664 -0.1757
19050TIP3    H178565   1.869   3.927  12.209  0.7911 -0.0156 -1.7409
19050TIP3    H278566   1.918   3.822  12.306  0.6912  1.1591 -0.3988
19051TIP3   OH278567   3.903   3.879  16.374 -0.1900 -0.0210 -0.1974
19051TIP3    H178568   3.957   3.803  16.353  0.8727  0.1100  1.9079
19051TIP3    H278569   3.852   3.895  16.295  1.2929 -1.4653 -1.4792
19052TIP3   OH278570   1.343   4.671   0.509 -0.0112 -0.3609  0.2330
19052TIP3    H178571   1.409   4.709   0.567 -0.0417 -1.2223  0.8414
19052TIP3    H278572   1.260   4.706   0.541  0.1536  1.0773 -0.8069
19053TIP3   OH278573   2.834   5.992  11.277 -1.0602  0.3531  0.7231
19053TIP3    H178574   2.814   6.061  11.213 -3.3294  0.3076  1.3438
19053TIP3    H278575   2.879   5.925  11.226 -2.6084  0.4292 -0.7962
19054TIP3   OH278576   4.591   5.794  12.724  0.3012  0.5958 -0.0391
19054TIP3    H178577   4.587   5.699  12.728 -1.7427  0.6417 -0.4345
19054TIP3    H278578   4.652   5.813  12.652 -0.2776 -0.4250 -0.8075
19055TIP3   OH278579   1.858   5.744  10.718 -0.0036 -0.0422  0.0586
19055TIP3    H178580   1.878   5.697  10.637  0.0188 -0.6630  0.4229
19055TIP3    H278581   1.937   5.733  10.771  0.2675  0.9967 -0.1317
19056TIP3   OH278582   5.976   2.105  13.602  0.0915 -0.0871  0.4466
19056TIP3    H178583   5.916   2.043  13.559 -0.6272  0.6751  0.3419
19056TIP3    H278584   5.997   2.168  13.533 -0.9459  1.0572  1.1545
19057TIP3   OH278585   2.296   1.415   2.131 -0.3878 -0.1142 -0.3917
19057TIP3    H178586   2.209   1.453   2.120 -0.7744 -0.9241 -0.2331
19057TIP3    H278587   2.281   1.337   2.185  0.6603  0.6415  1.0524
19058TIP3   OH278588   6.622   2.098  12.558  0.0870 -0.0959  0.4933
19058TIP3    H178589   6.611   2.084  12.464 -1.2800 -0.1833  0.6679
19058TIP3    H278590   6.673   2.022  12.587 -1.4042 -1.2361  0.2056
19059TIP3   OH278591   0.868   4.381   1.413 -0.5658  0.1728  0.5806
19059TIP3    H178592   0.915   4.304   1.381 -0.1287  0.9460 -0.6706
19059TIP3    H278593   0.814   4.348   1.484  0.3384 -1.1158  0.6905
19060TIP3   OH278594   3.514   2.257  15.338  0.5719 -0.0387 -0.4529
19060TIP3    H178595   3.526   2.318  15.265  0.7051  2.5577  1.6835
19060TIP3    H278596   3.419   2.247  15.346  0.5154  0.8045 -0.0667
19061TIP3   OH278597   5.780   3.694  12.568  0.2565  0.2636 -0.0459
19061TIP3    H178598   5.748   3.753  12.499  0.0434 -1.4514 -1.4373
19061TIP3    H278599   5.703   3.676  12.622  0.1139  0.5145 -0.1629
19062TIP3   OH278600   4.630   2.035  17.230  0.4325 -0.0123 -0.5061
19062TIP3    H178601   4.701   2.022  17.168 -0.4783  1.4852 -1.9062
19062TIP3    H278602   4.550   2.028  17.177 -0.4248 -0.4173  0.8052
19063TIP3   OH278603   1.589   1.029  11.919 -0.1606 -0.2602  0.9770
19063TIP3    H178604   1.572   1.105  11.864 -1.7502 -1.0628  0.3320
19063TIP3    H278605   1.683   1.016  11.914 -0.4776 -1.6178 -3.3014
19064TIP3   OH278606   0.389   3.640  12.262  0.0670  0.4982 -0.3615
19064TIP3    H178607   0.394   3.600  12.349 -1.0842  1.8566  0.3456
19064TIP3    H278608   0.378   3.733  12.279 -3.2047  0.4692 -1.8920
19065TIP3   OH278609   6.559   2.200   4.314 -0.5472  0.1817 -0.2885
19065TIP3    H178610   6.590   2.236   4.398  0.5049 -0.8250 -0.2348
19065TIP3    H278611   6.466   2.184   4.328 -1.2632  3.6214 -0.5752
19066TIP3   OH278612   2.294   0.305  15.659 -0.1919  0.0289  0.5910
19066TIP3    H178613   2.294   0.267  15.571 -2.7887  1.7482 -0.2118
19066TIP3    H278614   2.361   0.256  15.706 -0.6319 -2.7510 -1.5456
19067TIP3   OH278615   4.505   0.573   0.803 -0.1221 -0.0636  0.6849
19067TIP3    H178616   4.592   0.553   0.837  0.1571 -1.5674 -0.8283
19067TIP3    H278617   4.522   0.627   0.726 -0.5833  0.6347  1.0771
19068TIP3   OH278618   1.962   0.405   3.888 -0.7816  0.0200 -0.4710
19068TIP3    H178619   1.970   0.357   3.970 -1.1095  0.3703 -0.2350
19068TIP3    H278620   1.944   0.337   3.823 -2.9350 -0.0143  0.1341
19069TIP3   OH278621   3.873   2.225   6.157  0.5781 -0.0020 -0.3878
19069TIP3    H178622   3.890   2.248   6.249  2.0275 -0.1396 -0.6091
19069TIP3    H278623   3.819   2.146   6.163  0.7795 -0.0938  0.3573
19070TIP3   OH278624   6.218   1.533   4.771  0.1022 -0.4014 -0.1492
19070TIP3    H178625   6.247   1.470   4.837  0.9035 -0.4492 -0.5442
19070TIP3    H278626   6.130   1.559   4.800  0.0386 -1.1874  0.3817
19071TIP3   OH278627   2.890   3.416  14.461  0.8726  0.2688  0.3198
19071TIP3    H178628   2.926   3.382  14.379 -0.5182 -0.7935  0.1464
19071TIP3    H278629   2.823   3.479  14.433  1.0952  0.6530  0.6443
19072TIP3   OH278630   3.331   0.061   1.827 -0.1258  0.5119 -0.6983
19072TIP3    H178631   3.373   0.125   1.885  1.4802 -2.5607  1.7057
19072TIP3    H278632   3.257   0.029   1.878  0.8371 -1.6582 -0.6217
19073TIP3   OH278633   4.807   0.515  15.673 -0.4518  0.1633 -0.4677
19073TIP3    H178634   4.740   0.468  15.723  0.5376 -2.5282 -1.5689
19073TIP3    H278635   4.889   0.491  15.715  0.1229  0.4865 -1.4040
19074TIP3   OH278636   4.424   2.152   3.576 -0.0143 -0.2045 -0.3374
19074TIP3    H178637   4.364   2.186   3.642 -1.0305 -1.5937 -0.5490
19074TIP3    H278638   4.498   2.118   3.627 -1.2277 -2.1492  0.1535
19075TIP3   OH278639   2.514   0.005  15.526  0.2223  0.2221 -0.2871
19075TIP3    H178640   2.575  -0.041  15.468  0.3566  0.1387 -0.0763
19075TIP3    H278641   2.561   0.016  15.608  0.8491  2.3391 -0.9097
19076TIP3   OH278642   0.919   0.790  12.903 -0.7225  0.7927  0.4826
19076TIP3    H178643   1.014   0.782  12.902 -0.7241  0.4312  2.5135
19076TIP3    H278644   0.893   0.776  12.811  0.9132 -2.5744  0.4555
19077TIP3   OH278645   6.026   1.682   3.068  0.1725  0.6508 -0.2102
19077TIP3    H178646   6.073   1.659   2.988 -0.6002  2.2181 -1.1331
19077TIP3    H278647   6.083   1.746   3.112  1.0012 -0.8545  0.9387
19078TIP3   OH278648   4.084   2.345   2.020 -0.0555 -0.1216 -0.4381
19078TIP3    H178649   4.138   2.382   2.090 -0.0081 -1.1024  0.0515
19078TIP3    H278650   3.995   2.375   2.039 -0.0730 -0.5426  0.1580
19079TIP3   OH278651   2.731   6.224   1.197  0.2278  0.1475  1.1945
19079TIP3    H178652   2.762   6.298   1.250  0.3514  2.2074 -1.6753
19079TIP3    H278653   2.636   6.223   1.210  0.3449  0.1006  2.0929
19080TIP3   OH278654   3.658   4.075   3.892 -0.1257  0.1245  0.4543
19080TIP3    H178655   3.716   4.031   3.830  1.8606  1.4884  1.3008
19080TIP3    H278656   3.574   4.031   3.882  0.8760 -1.4315 -1.2950
19081TIP3   OH278657   5.926   4.111   0.490 -0.1469  0.1072 -0.3167
19081TIP3    H178658   5.943   4.205   0.499  0.0519 -0.0840  1.6143
19081TIP3    H278659   6.005   4.076   0.448  0.7347  0.4990  0.9522
19082TIP3   OH278660   6.488   0.538   2.182  0.6966  0.2455 -0.1428
19082TIP3    H178661   6.550   0.544   2.255  1.4311  1.1747 -0.8387
19082TIP3    H278662   6.501   0.619   2.132 -1.7345  0.9489  0.2433
19083TIP3   OH278663   6.624   1.119   0.431 -0.3622 -0.1349 -0.2317
19083TIP3    H178664   6.647   1.034   0.395  1.1738  0.1855 -0.0520
19083TIP3    H278665   6.553   1.151   0.375  0.0998 -0.8619 -1.2359
19084TIP3   OH278666   5.135   3.657  14.459 -0.0910  0.2313  0.0726
19084TIP3    H178667   5.106   3.666  14.550  0.0926  0.0034  0.1563
19084TIP3    H278668   5.108   3.568  14.434  1.4340 -0.3634  0.4821
19085TIP3   OH278669   4.435   2.104   1.735 -0.4916  0.5676 -1.1292
19085TIP3    H178670   4.449   2.177   1.674  0.8677  1.6601  0.4365
19085TIP3    H278671   4.419   2.028   1.678 -0.7767  1.8491 -2.8072
19086TIP3   OH278672   4.745   2.776  15.244  0.2011  0.0526  0.6424
19086TIP3    H178673   4.683   2.804  15.177  0.2724 -0.4605  0.3635
19086TIP3    H278674   4.749   2.681  15.235  2.7772  0.2620 -0.8590
19087TIP3   OH278675   1.950   5.256   0.040  0.0219  0.0117 -0.2308
19087TIP3    H178676   1.870   5.274   0.089  0.9907  2.5571  0.4890
19087TIP3    H278677   1.946   5.314  -0.036  1.9522  1.4090  0.6963
19088TIP3   OH278678   3.604   6.525   1.595  0.5334 -0.4169  0.0543
19088TIP3    H178679   3.571   6.589   1.658 -1.2396 -1.6096  0.3917
19088TIP3    H278680   3.588   6.440   1.636  2.7195 -1.1051 -0.4484
19089TIP3   OH278681   2.504   6.152  13.118  0.3699 -0.2096 -0.7047
19089TIP3    H178682   2.493   6.215  13.189 -0.1211 -2.2143  1.0857
19089TIP3    H278683   2.417   6.146  13.078  0.3909  0.1763 -0.8039
19090TIP3   OH278684   1.810   4.988   4.279  0.3906  0.6951 -0.2299
19090TIP3    H178685   1.720   4.986   4.244 -0.3625  2.7389  1.4944
19090TIP3    H278686   1.860   5.036   4.213 -0.3352  1.7079 -0.0642
19091TIP3   OH278687   4.051   5.019  14.155  0.1098  0.5644  0.2818
19091TIP3    H178688   4.015   4.961  14.222  2.1565 -2.7939 -1.3913
19091TIP3    H278689   4.114   5.074  14.202 -0.1658 -0.1595  1.5152
19092TIP3   OH278690   3.265   2.155   1.210  0.4263  0.9766 -0.2475
19092TIP3    H178691   3.209   2.212   1.263 -0.3209 -2.4333  2.7655
19092TIP3    H278692   3.206   2.121   1.142 -0.6393 -0.8628  1.5699
19093TIP3   OH278693   3.465   1.682   4.456 -0.2125  0.0137 -0.4227
19093TIP3    H178694   3.554   1.686   4.421 -0.2925 -0.7464 -0.7119
19093TIP3    H278695   3.467   1.611   4.520 -0.0169  1.5241  1.2743
19094TIP3   OH278696   6.372   0.791   1.830  0.1530  0.4146  0.0640
19094TIP3    H178697   6.375   0.851   1.904  1.1780  2.2335 -1.4246
19094TIP3    H278698   6.411   0.839   1.757 -4.0713 -0.0026 -2.6493
19095TIP3   OH278699   6.040   2.464   1.394 -0.1480  0.3641 -0.6885
19095TIP3    H178700   6.095   2.540   1.410 -0.8800  0.5184  1.2978
19095TIP3    H278701   6.093   2.389   1.424 -0.2470  0.3100 -0.6476
19096TIP3   OH278702   3.874   1.912  11.046 -0.0817  0.0419  0.2744
19096TIP3    H178703   3.914   1.971  10.983  0.3838 -0.2803  0.2639
19096TIP3    H278704   3.935   1.838  11.051 -1.1397 -0.9019 -0.4607
19097TIP3   OH278705   3.787   1.451  13.290  0.6866  0.1606 -0.4025
19097TIP3    H178706   3.728   1.520  13.322 -0.1764 -1.2862  1.2135
19097TIP3    H278707   3.741   1.414  13.214 -0.3886 -0.7556  0.6649
19098TIP3   OH278708   4.646   4.909  15.963 -0.3057  0.4117 -0.2306
19098TIP3    H178709   4.604   4.995  15.952 -0.5898  0.2355 -0.5365
19098TIP3    H278710   4.586   4.848  15.920 -0.2544  0.0200  0.2515
19099TIP3   OH278711   1.096   1.780   5.878  0.8527  0.3264  0.1134
19099TIP3    H178712   1.085   1.874   5.889 -2.0604 -0.1097  1.2036
19099TIP3    H278713   1.076   1.764   5.786 -0.9873  0.4682  0.4848
19100TIP3   OH278714   0.448   6.729   5.947 -0.5814 -0.4062  0.3398
19100TIP3    H178715   0.518   6.772   5.996 -0.0807 -0.0693 -0.6586
19100TIP3    H278716   0.370   6.738   6.003 -0.3086  1.1265  0.4921
19101TIP3   OH278717   3.402   5.332  12.066 -0.8869 -0.6951 -0.0990
19101TIP3    H178718   3.439   5.262  12.012 -0.1937 -0.1081 -0.3901
19101TIP3    H278719   3.307   5.320  12.059 -0.8854  0.7603 -3.2825
19102TIP3   OH278720   1.621   0.549  11.960 -0.0972  0.1029  0.4995
19102TIP3    H178721   1.582   0.635  11.978 -1.3601 -0.6943  1.7170
19102TIP3    H278722   1.549   0.497  11.925  0.1566 -1.0275  1.6176
19103TIP3   OH278723   4.159   4.519   1.432  0.0618 -0.5411 -0.0254
19103TIP3    H178724   4.169   4.608   1.397  0.9924 -1.2656 -1.6789
19103TIP3    H278725   4.243   4.501   1.475  0.6657 -1.3538 -1.4898
19104TIP3   OH278726   6.184   0.822   1.546  0.2897  0.4250 -0.0428
19104TIP3    H178727   6.138   0.844   1.627 -0.9273  0.3034 -0.6920
19104TIP3    H278728   6.195   0.727   1.550  3.2363  0.7569  1.5361
19105TIP3   OH278729   1.227   5.908  14.611 -0.4419  0.1045  0.3924
19105TIP3    H178730   1.259   5.981  14.558  1.1345 -0.5707  0.3832
19105TIP3    H278731   1.241   5.830  14.556  1.1255 -0.5947  1.7432
19106TIP3   OH278732   3.250   1.687  11.064  0.0761 -0.5661 -0.4183
19106TIP3    H178733   3.293   1.748  11.004 -1.6066 -0.6108 -1.7008
19106TIP3    H278734   3.292   1.603  11.047  0.8953 -0.2163 -0.1772
19107TIP3   OH278735   3.666   5.359  14.789  0.1665  0.5081  0.4309
19107TIP3    H178736   3.698   5.434  14.739 -0.9585  0.5887 -0.1906
19107TIP3    H278737   3.715   5.285  14.754 -0.4169  0.6052 -0.6235
19108TIP3   OH278738   4.120   5.752   1.479 -0.1606  1.0686 -0.8058
19108TIP3    H178739   4.077   5.792   1.554  0.8883  0.2394  0.2461
19108TIP3    H278740   4.051   5.748   1.412 -1.6764  0.0300  0.7543
19109TIP3   OH278741   3.183   4.029  13.403 -0.5791 -0.0371 -0.1652
19109TIP3    H178742   3.239   3.956  13.378 -0.2399 -0.2692  1.2176
19109TIP3    H278743   3.203   4.044  13.495 -0.6412  1.8203 -0.4430
19110TIP3   OH278744   2.652   5.294   5.888  0.6834 -0.0395 -0.0628
19110TIP3    H178745   2.666   5.343   5.969 -0.4295 -2.5741  1.7102
19110TIP3    H278746   2.722   5.228   5.887  1.0920  0.3937 -1.5137
19111TIP3   OH278747   0.851   6.252  14.501  0.3278  0.6123  0.0707
19111TIP3    H178748   0.833   6.346  14.493 -0.2375  0.4687 -0.3392
19111TIP3    H278749   0.766   6.210  14.489  0.6772  0.0158 -0.3248
19112TIP3   OH278750   0.729   2.102   5.248 -0.0826  0.2854 -0.0219
19112TIP3    H178751   0.760   2.100   5.339  0.3206  1.7872 -0.1125
19112TIP3    H278752   0.784   2.038   5.203 -0.4069 -0.6083  0.8104
19113TIP3   OH278753   2.719   3.337   2.306  0.1029 -0.6116  0.1033
19113TIP3    H178754   2.753   3.426   2.315  1.6996 -1.3201  1.3520
19113TIP3    H278755   2.637   3.348   2.258 -0.7638  1.7646  1.9853
19114TIP3   OH278756   5.127   5.814   1.503  0.0488 -0.0680  0.5127
19114TIP3    H178757   5.094   5.781   1.587 -0.9758  0.4513  0.3201
19114TIP3    H278758   5.192   5.879   1.528  2.4396 -2.5242  0.8998
19115TIP3   OH278759   4.066   0.697  12.324  0.0808  0.5005 -0.0429
19115TIP3    H178760   3.979   0.696  12.285 -0.0084  2.0626  0.0594
19115TIP3    H278761   4.122   0.655  12.259 -1.5880 -5.9064  2.2483
19116TIP3   OH278762   2.837   5.079   4.246  0.2606 -0.4831 -0.1168
19116TIP3    H178763   2.868   5.168   4.233 -1.1522  0.1113  0.5040
19116TIP3    H278764   2.860   5.033   4.165  3.0100 -0.1700  0.4436
19117TIP3   OH278765   0.298   5.524   2.916 -0.7279 -0.1817  0.5126
19117TIP3    H178766   0.349   5.576   2.978  0.1859 -0.9030  0.3813
19117TIP3    H278767   0.320   5.433   2.937  1.1987 -0.4238 -2.1517
19118TIP3   OH278768   4.367   2.115  13.158 -0.5040  0.2113 -0.1112
19118TIP3    H178769   4.311   2.038  13.167  1.0703 -1.0312 -0.5909
19118TIP3    H278770   4.338   2.157  13.077 -1.1731 -0.0447 -0.0025
19119TIP3   OH278771   4.464   1.852   5.272 -0.2124 -0.3070  0.0108
19119TIP3    H178772   4.393   1.804   5.315 -0.4062  2.3083  2.7371
19119TIP3    H278773   4.535   1.852   5.336 -0.3812  3.3746  0.2950
19120TIP3   OH278774   2.292   5.693  11.295 -0.0276 -0.1630  0.2394
19120TIP3    H178775   2.335   5.616  11.258 -0.5851 -1.2510  1.7909
19120TIP3    H278776   2.242   5.730  11.222  0.3954 -1.1518 -0.5672
19121TIP3   OH278777   0.760   6.161  11.502  0.0163  0.5330  0.1963
19121TIP3    H178778   0.833   6.175  11.562 -0.8415  1.9655  0.9205
19121TIP3    H278779   0.798   6.174  11.415  1.2097 -1.3318  0.4055
19122TIP3   OH278780   0.875   0.509  13.797 -0.0170  0.1944 -0.1525
19122TIP3    H178781   0.933   0.580  13.824 -0.2885 -0.2405  1.6285
19122TIP3    H278782   0.931   0.432  13.794 -0.1599  0.0866 -0.0507
19123TIP3   OH278783   0.296   3.674   5.709  0.1805 -0.0037 -0.9790
19123TIP3    H178784   0.359   3.629   5.764 -2.4827 -3.4361 -0.5988
19123TIP3    H278785   0.318   3.647   5.620 -0.6472 -1.1207 -0.8550
19124TIP3   OH278786   0.199   5.498  15.305  0.3696 -0.2179  0.4409
19124TIP3    H178787   0.253   5.571  15.336  1.0461 -0.5948  0.1539
19124TIP3    H278788   0.250   5.420  15.325 -0.4065 -0.6252  0.8426
19125TIP3   OH278789   0.533   2.118  12.852  0.0719  0.2010  0.1838
19125TIP3    H178790   0.526   2.077  12.938 -0.3312  1.0383  0.5503
19125TIP3    H278791   0.575   2.202  12.869  0.4815  0.1398 -0.5075
19126TIP3   OH278792   4.745   6.302   2.527  0.3657  0.2234 -0.3557
19126TIP3    H178793   4.823   6.270   2.572  0.0107  3.0933  2.4542
19126TIP3    H278794   4.672   6.274   2.582 -0.0721  3.8123  1.0654
19127TIP3   OH278795   4.957   4.746   3.572  0.7364  0.7551  0.0191
19127TIP3    H178796   5.023   4.795   3.523  0.6287  0.9747  0.0935
19127TIP3    H278797   4.922   4.683   3.509  1.9224 -0.2326  0.3341
19128TIP3   OH278798   0.212   1.134  11.898  0.1637  0.2313 -0.0613
19128TIP3    H178799   0.255   1.067  11.951  0.8555  0.0746 -0.8147
19128TIP3    H278800   0.126   1.096  11.878  0.9323 -0.8979 -1.3564
19129TIP3   OH278801   1.017   5.932   0.334 -0.1227 -0.1207 -0.1364
19129TIP3    H178802   1.112   5.926   0.348  0.1296 -0.8494 -1.9840
19129TIP3    H278803   1.008   5.942   0.239 -1.8496  1.1313  0.1501
19130TIP3   OH278804   6.426   4.518   5.133  0.2139  0.0959  0.7332
19130TIP3    H178805   6.445   4.580   5.203  0.4010  1.9429 -0.9245
19130TIP3    H278806   6.351   4.555   5.087  1.4149  0.0384 -1.3673
19131TIP3   OH278807   4.560   5.977  12.930  0.2057  0.4080  0.0001
19131TIP3    H178808   4.564   5.906  12.867  0.8150  0.7427 -0.3351
19131TIP3    H278809   4.608   5.945  13.006  0.6751  0.5554 -0.2377
19132TIP3   OH278810   6.313   1.732   3.405 -0.4169 -0.3229  0.6590
19132TIP3    H178811   6.355   1.814   3.427 -0.9571 -0.2168  1.2905
19132TIP3    H278812   6.378   1.685   3.352  0.0112  0.3647  0.5752
19133TIP3   OH278813   2.796   2.437  11.065  0.1391  0.1316  0.1998
19133TIP3    H178814   2.891   2.426  11.067  0.2843  1.3642  0.5812
19133TIP3    H278815   2.783   2.532  11.065 -1.0592  0.0020 -2.1143
19134TIP3   OH278816   2.476   4.776   0.978 -0.5207  0.9076  0.2637
19134TIP3    H178817   2.482   4.731   1.062  0.1401  0.4357 -0.0225
19134TIP3    H278818   2.503   4.866   0.996  2.3160  0.1628  0.0741
19135TIP3   OH278819   6.222   4.011  17.199  0.3231  0.1030  0.0049
19135TIP3    H178820   6.185   3.976  17.280 -0.1971  0.9674  0.1593
19135TIP3    H278821   6.239   4.103  17.219 -1.6281  0.8187 -1.4525
19136TIP3   OH278822   4.349   5.694  16.211  0.4796 -0.2719  0.2188
19136TIP3    H178823   4.372   5.731  16.296  0.2734  1.5087 -0.4700
19136TIP3    H278824   4.382   5.758  16.148  2.1949 -2.3905 -1.1274
19137TIP3   OH278825   5.870   5.206   3.151  0.0750  0.3481  0.9078
19137TIP3    H178826   5.925   5.132   3.125  2.0979  1.4800  1.8578
19137TIP3    H278827   5.896   5.276   3.091  0.5937  1.2616  2.1964
19138TIP3   OH278828   4.823   0.438   5.099 -0.2270  0.7578  0.1275
19138TIP3    H178829   4.779   0.420   5.016  0.8682 -0.9452 -0.0858
19138TIP3    H278830   4.844   0.352   5.135  0.5462  1.5089  1.5100
19139TIP3   OH278831   4.679   6.724  12.193  0.0359 -0.7565  0.2928
19139TIP3    H178832   4.642   6.766  12.271 -1.2109 -0.2499 -0.5622
19139TIP3    H278833   4.631   6.642  12.184 -2.4299  0.8364 -1.9993
19140TIP3   OH278834   5.601   5.510  11.758  0.4813  0.6641 -0.0783
19140TIP3    H178835   5.575   5.486  11.846  1.1046 -0.9314 -0.3045
19140TIP3    H278836   5.671   5.575  11.770 -0.1100  1.1847  0.5748
19141TIP3   OH278837   4.896   2.524  16.279  0.0336 -0.0345 -0.1748
19141TIP3    H178838   4.855   2.581  16.344  1.4403  0.2900  0.4463
19141TIP3    H278839   4.869   2.435  16.304 -1.0621  0.2401 -0.3497
19142TIP3   OH278840   4.797   3.592  11.241  0.1444 -0.1519  0.1469
19142TIP3    H178841   4.724   3.603  11.180 -0.0158 -0.4036  0.2922
19142TIP3    H278842   4.825   3.502  11.228  0.6469  0.0428 -0.1483
19143TIP3   OH278843   3.734   2.726   5.381 -0.0002  0.1995 -0.1347
19143TIP3    H178844   3.773   2.704   5.465  0.5368 -0.3734 -0.5307
19143TIP3    H278845   3.791   2.684   5.316 -0.1049  1.0744 -0.8073
19144TIP3   OH278846   0.086   2.119   3.895 -0.1817 -0.0934 -0.5141
19144TIP3    H178847   0.064   2.060   3.967 -1.7812  0.9985 -0.0636
19144TIP3    H278848   0.157   2.174   3.930 -0.1287 -0.3684 -0.1913
19145TIP3   OH278849   5.054   3.278  12.728 -0.7331 -0.1050 -0.9274
19145TIP3    H178850   5.001   3.231  12.663 -1.1844 -0.5981 -0.2197
19145TIP3    H278851   5.040   3.229  12.809  1.5282 -0.8005 -0.9099
19146TIP3   OH278852   3.156   0.592  16.128 -0.3394 -0.1984  0.8459
19146TIP3    H178853   3.150   0.679  16.088  0.8027 -0.6639 -0.3637
19146TIP3    H278854   3.249   0.572  16.130 -0.6320 -1.6708  0.4934
19147TIP3   OH278855   4.045   4.592  14.641 -0.2911 -0.2536 -0.5111
19147TIP3    H178856   3.956   4.621  14.621  0.0634 -0.0701 -1.8739
19147TIP3    H278857   4.096   4.672  14.647 -0.3143 -0.3329  0.7721
19148TIP3   OH278858   4.084   0.789  15.724  0.2806  0.1469 -1.1059
19148TIP3    H178859   4.161   0.836  15.757  0.4400  0.9444 -2.5652
19148TIP3    H278860   4.017   0.856  15.714 -0.5104 -0.4902 -0.1841
19149TIP3   OH278861   3.928   0.465  16.339  0.0845 -0.0460  0.1182
19149TIP3    H178862   3.892   0.383  16.306  0.0631  0.7130 -1.8074
19149TIP3    H278863   3.990   0.493  16.272 -0.9783  2.2283  0.0215
19150TIP3   OH278864   6.613   3.647   4.600 -0.2384  1.1404 -0.2427
19150TIP3    H178865   6.540   3.681   4.651 -0.8332 -0.2518 -0.1489
19150TIP3    H278866   6.621   3.555   4.626 -0.3106  0.4998 -2.3642
19151TIP3   OH278867   2.586   5.313  14.933  0.4166  0.2971  0.4074
19151TIP3    H178868   2.595   5.386  14.994  1.5835 -0.8943  1.6924
19151TIP3    H278869   2.664   5.258  14.949 -0.6232 -1.4169 -0.2570
19152TIP3   OH278870   2.047   0.922  14.983 -0.2119 -0.0274  0.0833
19152TIP3    H178871   2.040   0.877  15.067  0.8380  0.3223  0.3556
19152TIP3    H278872   1.985   0.995  14.989  0.3653  0.4043  0.8085
19153TIP3   OH278873   1.373   2.944  15.078 -0.0621  0.5087 -0.0458
19153TIP3    H178874   1.468   2.938  15.089 -0.3740 -2.5305  1.3423
19153TIP3    H278875   1.341   2.972  15.164 -0.6390 -1.2175  0.3108
19154TIP3   OH278876   5.968   2.727  11.244 -0.0783 -1.0003  0.2243
19154TIP3    H178877   5.932   2.791  11.183  1.6246  0.1501  0.3920
19154TIP3    H278878   6.046   2.694  11.200  0.9832 -0.3926  1.6306
19155TIP3   OH278879   5.190   0.866   2.754  0.2151  0.2712  0.4434
19155TIP3    H178880   5.246   0.801   2.795 -0.1829  0.1258  0.7679
19155TIP3    H278881   5.225   0.877   2.666 -1.5019 -2.6230 -0.6852
19156TIP3   OH278882   3.642   4.735   5.002 -0.2749  0.1453  0.2621
19156TIP3    H178883   3.570   4.681   5.035 -0.0961  1.0768  2.2039
19156TIP3    H278884   3.721   4.689   5.031 -0.1208  1.1905  1.5477
19157TIP3   OH278885   4.299   6.429  11.203 -0.0319  1.2717  0.4514
19157TIP3    H178886   4.227   6.426  11.140 -0.8814 -0.4527  1.4533
19157TIP3    H278887   4.259   6.458  11.285  0.1227 -0.9539  1.3512
19158TIP3   OH278888   5.847   3.485   1.600  0.9183 -0.1432  0.1172
19158TIP3    H178889   5.845   3.568   1.648 -1.2294  1.2155 -2.2070
19158TIP3    H278890   5.803   3.504   1.517  2.5239 -3.0087 -1.4708
19159TIP3   OH278891   1.784   5.035   1.426  0.1687 -0.1461 -0.3559
19159TIP3    H178892   1.858   4.979   1.450  0.4909  0.1189 -0.7136
19159TIP3    H278893   1.804   5.119   1.467  0.8561  0.3913 -1.7534
19160TIP3   OH278894   5.638   6.607   0.248 -0.3184  0.4717 -0.1830
19160TIP3    H178895   5.691   6.528   0.243  1.1712  1.3839  0.8239
19160TIP3    H278896   5.634   6.639   0.158  0.0787 -0.1112 -0.4082
19161TIP3   OH278897   6.090   2.896  13.182 -0.1715  0.0277 -0.0025
19161TIP3    H178898   6.171   2.879  13.134  0.7222  0.5578  1.2962
19161TIP3    H278899   6.079   2.819  13.238  0.7595  1.0297  1.6016
19162TIP3   OH278900   0.614   4.838   0.843  0.1433  0.0052  0.0131
19162TIP3    H178901   0.700   4.800   0.823 -0.5626 -2.1845  0.9350
19162TIP3    H278902   0.585   4.876   0.760  0.6814 -1.9374 -1.1062
19163TIP3   OH278903   5.326   3.462   0.555 -0.3927  0.3684  0.1822
19163TIP3    H178904   5.254   3.401   0.536  0.0237 -0.2070  0.4342
19163TIP3    H278905   5.391   3.444   0.487 -0.9405  1.6474 -0.7020
19164TIP3   OH278906   0.773   1.833  12.977  0.6023  0.1682  0.1637
19164TIP3    H178907   0.698   1.869  12.929 -0.0598 -0.2911  0.8448
19164TIP3    H278908   0.817   1.777  12.913  2.1815  2.8406 -1.2011
19165TIP3   OH278909   0.664   4.483   4.341  0.4158 -0.2192 -0.3231
19165TIP3    H178910   0.707   4.479   4.256 -0.1085 -0.7236 -0.5702
19165TIP3    H278911   0.573   4.504   4.321  0.5394  0.8443  0.1937
19166TIP3   OH278912   2.842   4.428  12.415 -0.2393  0.7591  0.0935
19166TIP3    H178913   2.784   4.396  12.346  1.0635  0.1562 -0.7459
19166TIP3    H278914   2.908   4.480  12.368  0.0512  1.2276  1.0065
19167TIP3   OH278915   4.641   3.620   1.124  0.4201 -0.1182  0.2872
19167TIP3    H178916   4.688   3.546   1.163  2.3617  1.0450  0.2536
19167TIP3    H278917   4.606   3.668   1.199 -0.8997 -1.0797  0.3068
19168TIP3   OH278918   6.292   6.049   6.530  0.2899  0.3094 -0.3280
19168TIP3    H178919   6.342   5.990   6.586 -2.7134 -0.4983  1.6457
19168TIP3    H278920   6.253   5.991   6.464 -1.4328  0.2383  0.7081
19169TIP3   OH278921   1.067   4.881  14.486  0.3288  0.2508  0.2381
19169TIP3    H178922   1.138   4.909  14.429 -1.2675  0.6060 -1.6234
19169TIP3    H278923   1.039   4.796  14.450 -1.9934  1.3936 -0.7689
19170TIP3   OH278924   1.104   3.095  17.214 -0.3087  0.3167 -0.1004
19170TIP3    H178925   1.088   3.118  17.123 -0.0671 -1.1893 -0.5344
19170TIP3    H278926   1.028   3.042  17.239 -0.2754  0.5521  0.5166
19171TIP3   OH278927   5.077   5.922  17.218  0.5076 -0.1584 -0.3089
19171TIP3    H178928   5.047   5.906  17.308  0.0301  0.6985 -0.3121
19171TIP3    H278929   5.000   5.956  17.172  1.5613  2.5564 -0.1864
19172TIP3   OH278930   5.126   4.864   1.754 -0.5494  0.0213  0.0341
19172TIP3    H178931   5.213   4.883   1.787  0.2242 -2.0303 -0.7446
19172TIP3    H278932   5.140   4.809   1.677 -2.4597  1.3580 -1.3404
19173TIP3   OH278933   6.412   3.811   3.368 -0.3235 -0.0580  0.3061
19173TIP3    H178934   6.489   3.757   3.387 -0.0168  0.2964  0.0779
19173TIP3    H278935   6.348   3.750   3.330  0.2715 -0.1351 -0.5870
19174TIP3   OH278936   5.386   4.932   4.930  0.3718 -0.2215  0.4748
19174TIP3    H178937   5.352   5.014   4.893 -2.3478 -1.3142  0.4530
19174TIP3    H278938   5.434   4.891   4.858 -1.0369 -0.1870 -0.4946
19175TIP3   OH278939   0.915   5.146   3.811 -0.1038 -0.2952  0.1470
19175TIP3    H178940   0.827   5.121   3.840  0.1815  0.0696  1.3430
19175TIP3    H278941   0.952   5.194   3.885  0.6288  0.6840 -0.8363
19176TIP3   OH278942   0.811   0.581   0.778  0.2718  0.1531  0.3455
19176TIP3    H178943   0.724   0.566   0.741  0.0430 -0.7476  1.2388
19176TIP3    H278944   0.856   0.497   0.770  1.5807  0.9780 -1.4330
19177TIP3   OH278945   3.226   3.529  12.463 -0.2471 -0.4276 -0.8781
19177TIP3    H178946   3.243   3.488  12.378  2.5059 -0.3439 -0.4174
19177TIP3    H278947   3.254   3.463  12.527 -1.0191  0.0418 -0.0568
19178TIP3   OH278948   0.711   1.595   5.828  0.0609  0.4844 -0.6553
19178TIP3    H178949   0.648   1.628   5.763  0.2597  1.1631 -0.5036
19178TIP3    H278950   0.662   1.593   5.910 -0.9921 -2.8212 -1.2635
19179TIP3   OH278951   5.603   3.253  14.034  0.3570  0.0491 -0.6513
19179TIP3    H178952   5.590   3.247  14.128 -1.9507  0.9868 -0.8887
19179TIP3    H278953   5.574   3.168  14.000  0.0963  0.1270 -0.6231
19180TIP3   OH278954   6.573   2.907   6.000 -0.8586  0.1622  0.0930
19180TIP3    H178955   6.568   2.859   6.082 -0.2969  0.4107  0.2765
19180TIP3    H278956   6.573   2.999   6.025 -3.5634  0.3220 -0.3426
19181TIP3   OH278957   1.321   1.627  14.442 -0.7869 -0.1143 -0.3347
19181TIP3    H178958   1.247   1.675  14.478 -0.4757  0.3799 -0.3418
19181TIP3    H278959   1.391   1.692  14.436  0.7785 -1.3631  3.0157
19182TIP3   OH278960   1.798   1.464  11.470  0.0278 -0.0122 -0.4140
19182TIP3    H178961   1.886   1.441  11.500  0.6126 -0.9420 -2.7715
19182TIP3    H278962   1.812   1.523  11.397 -1.3510  1.1403  0.2376
19183TIP3   OH278963   6.287   5.625  15.772 -0.1087 -0.8938  0.1343
19183TIP3    H178964   6.241   5.680  15.835 -1.9283 -2.9854  0.6971
19183TIP3    H278965   6.379   5.628  15.800 -0.2384  1.4460  0.4157
19184TIP3   OH278966   1.315   2.934   6.103 -0.0810  0.2543  0.2922
19184TIP3    H178967   1.360   2.889   6.174 -1.4136  2.1222  2.3672
19184TIP3    H278968   1.240   2.976   6.144 -1.8487 -0.0125 -2.5223
19185TIP3   OH278969   5.327   6.547   2.206 -0.4420 -0.1475 -0.6633
19185TIP3    H178970   5.392   6.546   2.136  0.3483 -2.6221  0.0409
19185TIP3    H278971   5.243   6.556   2.161  0.0818 -1.4394 -1.9518
19186TIP3   OH278972   0.157   2.109  16.472  0.1785  0.7356 -0.1045
19186TIP3    H178973   0.193   2.076  16.389  0.3886  0.7673 -0.0267
19186TIP3    H278974   0.152   2.032  16.528  1.1933  0.9376  0.2663
19187TIP3   OH278975   4.591   1.099   2.616  0.2448  0.5217 -0.4377
19187TIP3    H178976   4.545   1.132   2.539  2.0460  1.5279 -1.0927
19187TIP3    H278977   4.639   1.022   2.584  0.2708  0.4015 -0.1113
19188TIP3   OH278978   3.112   3.338   4.467 -0.3911 -0.1087  0.1361
19188TIP3    H178979   3.166   3.345   4.545  1.0947  0.1300 -0.8854
19188TIP3    H278980   3.030   3.382   4.489  0.4514  0.9528  1.1541
19189TIP3   OH278981   3.693   4.918  13.169  0.0864 -0.1497 -0.7014
19189TIP3    H178982   3.781   4.946  13.196  0.5311  0.7152 -2.9720
19189TIP3    H278983   3.654   4.995  13.129 -2.2376 -0.1407  1.4175
19190TIP3   OH278984   0.838   6.146  13.555  0.9540  0.3153 -0.3004
19190TIP3    H178985   0.812   6.077  13.494 -0.3387  0.1080  0.4636
19190TIP3    H278986   0.921   6.117  13.591  0.0316 -1.2371  0.6202
19191TIP3   OH278987   2.053   5.690   6.770  0.0837  0.6726  0.2843
19191TIP3    H178988   2.002   5.684   6.689 -0.0058 -1.6654  0.4796
19191TIP3    H278989   2.053   5.600   6.804  2.5228  1.0859  1.4061
19192TIP3   OH278990   4.953   1.764   4.438 -0.4828 -0.5650 -0.0537
19192TIP3    H178991   4.967   1.806   4.354  0.6820 -1.4963 -0.3477
19192TIP3    H278992   4.982   1.829   4.503 -0.1398 -0.3344 -0.4344
19193TIP3   OH278993   5.765   4.646   3.226  0.3176 -0.7804 -0.2435
19193TIP3    H178994   5.819   4.593   3.167  1.3906 -0.3323  0.3175
19193TIP3    H278995   5.805   4.633   3.312  0.2687  0.5264 -0.0248
19194TIP3   OH278996   1.281   1.726   3.553  0.6089  0.3021  0.4818
19194TIP3    H178997   1.227   1.652   3.580  0.3897  0.2733 -0.0232
19194TIP3    H278998   1.218   1.794   3.528  0.8051  1.0548  1.9675
19195TIP3   OH278999   5.339   2.987   5.992 -0.3841  0.6652  0.9669
19195TIP3    H179000   5.386   3.039   5.927  1.4979 -0.9254  1.0292
19195TIP3    H279001   5.407   2.942   6.042 -1.8998 -0.2117  2.3174
19196TIP3   OH279002   0.994   3.976  11.684  0.2784  0.0972  0.6140
19196TIP3    H179003   1.035   4.062  11.670  1.5539 -0.1769  2.4653
19196TIP3    H279004   1.064   3.921  11.716 -0.7525 -1.4046  0.3346
19197TIP3   OH279005   1.963   4.395  10.784 -0.2120 -0.0514 -0.7654
19197TIP3    H179006   2.010   4.354  10.856 -0.5436 -1.0076 -1.0793
19197TIP3    H279007   1.907   4.325  10.749 -3.3418  1.5520  0.8362
19198TIP3   OH279008   6.484   6.219  16.639 -0.0269  0.0471  0.2838
19198TIP3    H179009   6.480   6.247  16.548  1.9622  1.2410  0.5162
19198TIP3    H279010   6.574   6.240  16.666 -0.9013  0.7031  2.8125
19199TIP3   OH279011   0.816   0.970  10.862 -0.4761  0.6016 -0.1748
19199TIP3    H179012   0.859   1.049  10.830  0.8541 -0.5753 -1.4181
19199TIP3    H279013   0.843   0.963  10.953  3.0302 -0.7374 -1.2403
19200TIP3   OH279014   2.623   6.085  16.361 -0.2656  0.5580 -0.0591
19200TIP3    H179015   2.564   6.159  16.372 -0.3314  0.4282  0.4572
19200TIP3    H279016   2.581   6.013  16.408 -0.0303  0.2826 -0.2661
19201TIP3   OH279017   1.247   2.485  11.260 -0.0630  0.3530  0.0834
19201TIP3    H179018   1.317   2.442  11.210 -0.1641  0.5380 -0.2161
19201TIP3    H279019   1.171   2.428  11.247 -0.2078  0.6423 -0.3469
19202TIP3   OH279020   3.772   5.150  14.365 -0.2393 -0.5454 -0.0761
19202TIP3    H179021   3.794   5.234  14.404 -0.9805 -0.1055 -0.5972
19202TIP3    H279022   3.814   5.085  14.422 -1.1281  0.0882  1.3049
19203TIP3   OH279023   5.744   2.036   4.635 -0.3078  0.4194  0.5841
19203TIP3    H179024   5.711   1.953   4.670 -0.0893  0.6389  1.3233
19203TIP3    H279025   5.826   2.013   4.592 -2.5282 -0.5402 -3.3402
19204TIP3   OH279026   6.582   4.604   3.834  0.0422 -0.3827  0.3896
19204TIP3    H179027   6.637   4.568   3.903 -0.1580 -0.8215  0.3267
19204TIP3    H279028   6.642   4.656   3.780 -0.2638  2.0776  2.3240
19205TIP3   OH279029   2.345   5.011   4.801  0.1118  0.2257  0.6321
19205TIP3    H179030   2.401   4.979   4.871  0.0887 -0.4232  0.3583
19205TIP3    H279031   2.308   4.932   4.761  0.4282  0.5684 -0.3612
19206TIP3   OH279032   5.134   5.060   0.101 -0.0423  0.0090  0.3079
19206TIP3    H179033   5.097   5.146   0.119 -1.8985 -0.5610 -0.6153
19206TIP3    H279034   5.117   5.010   0.181  0.6776  0.3675  0.6926
19207TIP3   OH279035   5.792   3.496   3.362 -0.0154  0.0064  0.4777
19207TIP3    H179036   5.767   3.515   3.271  0.7782  2.4166  0.7327
19207TIP3    H279037   5.858   3.427   3.355  1.8903  1.9259 -0.9636
19208TIP3   OH279038   1.098   5.341  16.923  0.3601 -0.4214  0.2807
19208TIP3    H179039   1.145   5.265  16.957  1.1892  0.5788  1.4551
19208TIP3    H279040   1.157   5.377  16.856  0.2541 -0.4462  0.1728
19209TIP3   OH279041   3.085   3.624  16.796 -0.1359 -0.4480  0.6153
19209TIP3    H179042   3.154   3.687  16.814 -0.6397  0.2053  0.2845
19209TIP3    H279043   3.018   3.642  16.862 -0.3117 -0.5835  0.4737
19210TIP3   OH279044   5.206   2.311  16.080  0.7449  0.1561  0.0178
19210TIP3    H179045   5.234   2.223  16.105 -0.6538 -0.2437  0.2367
19210TIP3    H279046   5.283   2.366  16.093  1.5082 -0.9717  0.2665
19211TIP3   OH279047   1.724   1.792  10.953 -0.2363 -0.6274 -0.1830
19211TIP3    H179048   1.748   1.856  10.887 -2.2550  0.3852  0.0291
19211TIP3    H279049   1.760   1.709  10.921  1.1764  0.3491 -1.1525
19212TIP3   OH279050   4.838   3.837  11.698  0.2224 -0.6397 -0.0578
19212TIP3    H179051   4.761   3.876  11.739  0.6765 -1.3727  1.5144
19212TIP3    H279052   4.805   3.758  11.656 -0.1229 -0.2309 -0.5715
19213TIP3   OH279053   4.751   0.144   1.790 -0.4482 -0.1546 -0.1974
19213TIP3    H179054   4.695   0.074   1.824  0.3265  0.3904  2.2876
19213TIP3    H279055   4.817   0.098   1.738 -0.4447 -1.2256  0.7249
19214TIP3   OH279056   2.440   5.757  14.619 -0.2620  0.0872 -0.2466
19214TIP3    H179057   2.474   5.826  14.563  0.8193  0.6066  1.0211
19214TIP3    H279058   2.509   5.690  14.618  0.6516  0.9556  1.9894
19215TIP3   OH279059   2.862   2.213   1.003 -0.1051  0.2211 -0.1177
19215TIP3    H179060   2.805   2.182   1.074 -0.6204 -2.2089 -1.5209
19215TIP3    H279061   2.933   2.259   1.047 -1.0490 -0.1952  1.9038
19216TIP3   OH279062   2.250   5.589   0.909  0.5684 -0.3883 -0.6993
19216TIP3    H179063   2.279   5.666   0.959 -1.8204 -0.3126  0.6227
19216TIP3    H279064   2.329   5.535   0.901  1.6095  0.8418  0.8590
19217TIP3   OH279065   3.422   1.829   4.689 -0.3004  0.1689  0.1699
19217TIP3    H179066   3.500   1.878   4.714  0.2040 -1.2097  1.3588
19217TIP3    H279067   3.442   1.795   4.601  0.5921 -0.4943  0.6257
19218TIP3   OH279068   6.160   3.458   5.078  0.0155 -0.0305  0.1470
19218TIP3    H179069   6.199   3.512   5.146 -0.5930  0.2539  0.2780
19218TIP3    H279070   6.073   3.435   5.112 -0.6209  0.7981 -0.8730
19219TIP3   OH279071   5.534   4.450   4.917  0.2761  0.1712 -0.3919
19219TIP3    H179072   5.536   4.392   4.994 -2.0216  0.1756 -0.2712
19219TIP3    H279073   5.507   4.535   4.953 -0.4641  0.2599 -1.1540
19220TIP3   OH279074   5.608   1.819  12.614 -0.3073  0.3076 -0.3219
19220TIP3    H179075   5.649   1.854  12.693 -0.9853 -1.7469  0.9752
19220TIP3    H279076   5.679   1.774  12.568 -0.4895 -0.9548  0.5885
19221TIP3   OH279077   4.482   0.337   0.358  0.2146  0.4747 -0.3496
19221TIP3    H179078   4.407   0.289   0.322  0.6736  1.0455 -2.1394
19221TIP3    H279079   4.556   0.277   0.350  0.4953  0.9277 -1.2116
19222TIP3   OH279080   3.380   5.482  11.237 -0.4010  0.1842  0.2145
19222TIP3    H179081   3.416   5.537  11.167 -0.7272 -2.4311 -2.0876
19222TIP3    H279082   3.454   5.430  11.267 -0.6157  0.1960  0.7712
19223TIP3   OH279083   6.348   0.590   0.411  0.1870  0.4085 -0.7243
19223TIP3    H179084   6.324   0.554   0.496 -0.5538  0.2260 -1.0072
19223TIP3    H279085   6.302   0.673   0.406  0.9874  0.8684 -0.5543
19224TIP3   OH279086   5.422   1.342  13.922 -0.3401  0.2599  0.6637
19224TIP3    H179087   5.371   1.346  14.003  2.6153 -1.2372  2.7062
19224TIP3    H279088   5.375   1.279  13.867 -0.7900 -1.0151  2.4522
19225TIP3   OH279089   1.673   5.260  15.327 -0.2061 -0.5562  0.1133
19225TIP3    H179090   1.766   5.237  15.327 -0.1738 -0.5605  2.8703
19225TIP3    H279091   1.628   5.178  15.306  0.2074 -1.8363  3.9244
19226TIP3   OH279092   0.419   3.881  15.259 -0.0962 -0.0639  0.4883
19226TIP3    H179093   0.478   3.843  15.194  0.9755 -0.4486  1.6615
19226TIP3    H279094   0.378   3.956  15.215  0.5695 -0.3679 -0.6387
19227TIP3   OH279095   4.499   0.625  16.336  0.2337 -0.3772  0.3240
19227TIP3    H179096   4.452   0.566  16.277  0.2807 -1.0108  0.9111
19227TIP3    H279097   4.537   0.692  16.278 -0.2218 -0.6507 -0.2958
19228TIP3   OH279098   3.321   1.547  16.861  0.2062  0.4266 -0.6077
19228TIP3    H179099   3.277   1.483  16.916  1.2789 -0.6276 -0.9462
19228TIP3    H279100   3.398   1.574  16.911  0.4277  0.5244 -0.9916
19229TIP3   OH279101   0.175   0.709  11.795 -0.4328  0.1605  0.7072
19229TIP3    H179102   0.230   0.715  11.873 -0.6002  1.5380  0.7332
19229TIP3    H279103   0.207   0.778  11.738 -0.2995 -0.8570 -0.4592
19230TIP3   OH279104   1.167   5.254  12.110  0.0554 -0.0110 -0.2422
19230TIP3    H179105   1.241   5.210  12.068  1.8346  1.6288  1.0657
19230TIP3    H279106   1.186   5.247  12.204 -1.0139  1.1678  0.0730
19231TIP3   OH279107   3.977   1.319  11.355  0.7620  0.5483 -0.6021
19231TIP3    H179108   4.041   1.304  11.424 -0.7974  1.5147  1.1094
19231TIP3    H279109   3.924   1.392  11.387 -2.7230 -1.7402 -0.7681
19232TIP3   OH279110   4.493   1.596  12.028  0.3810 -0.4845 -0.1122
19232TIP3    H179111   4.508   1.588  12.122  0.8075 -2.6479 -0.3252
19232TIP3    H279112   4.578   1.616  11.991 -0.0325  1.6948  0.0758
19233TIP3   OH279113   4.761   2.308   5.199  0.0816 -0.5178  0.3423
19233TIP3    H179114   4.688   2.250   5.177 -0.6885  0.0862  1.2189
19233TIP3    H279115   4.740   2.340   5.287 -0.0313  1.8618 -0.5063
19234TIP3   OH279116   1.214   0.609   5.820  0.2000 -0.1077  0.4520
19234TIP3    H179117   1.228   0.603   5.915  0.0179  0.5441  0.5219
19234TIP3    H279118   1.213   0.703   5.802  1.8704 -0.2499 -0.4375
19235TIP3   OH279119   5.010   4.437  11.594 -0.3971  0.0592 -0.0255
19235TIP3    H179120   5.039   4.500  11.528 -0.3998  0.6152  0.5072
19235TIP3    H279121   4.998   4.488  11.673 -1.7289 -0.3673  0.0576
19236TIP3   OH279122   0.436   2.764  10.626  0.4202  0.7330  0.0793
19236TIP3    H179123   0.492   2.817  10.683  0.7049  0.1556  0.3388
19236TIP3    H279124   0.495   2.702  10.585 -0.1039 -0.2185  0.7542
19237TIP3   OH279125   2.364   5.659  14.915 -0.0665 -0.9786 -0.4414
19237TIP3    H179126   2.299   5.627  14.852  2.4060 -4.1915 -1.5298
19237TIP3    H279127   2.357   5.600  14.990  0.3939 -0.2433  0.1930
19238TIP3   OH279128   5.997   5.095  10.858 -0.1536  0.0743  0.5081
19238TIP3    H179129   6.043   5.084  10.941  0.8411  1.4438  0.1543
19238TIP3    H279130   6.038   5.032  10.799 -0.7802 -0.8143  1.0064
19239TIP3   OH279131   2.888   6.284   5.581 -0.5067  0.4218  0.0613
19239TIP3    H179132   2.891   6.301   5.487  1.6486  0.8162  0.1745
19239TIP3    H279133   2.846   6.199   5.589 -0.2530  0.1625 -1.2908
19240TIP3   OH279134   2.209   5.329   4.605 -0.1533  0.6711 -0.3117
19240TIP3    H179135   2.284   5.278   4.577 -0.3673 -0.5258  1.2068
19240TIP3    H279136   2.213   5.410   4.554 -0.0607 -1.0366 -3.0592
19241TIP3   OH279137   2.031   5.348   3.101  0.4505 -0.1547 -0.3934
19241TIP3    H179138   2.105   5.352   3.040  1.4911 -2.5606  0.6550
19241TIP3    H279139   2.065   5.304   3.178 -1.1334  1.9406  1.5843
19242TIP3   OH279140   5.455   0.494   3.347  0.0830 -0.5570  0.0631
19242TIP3    H179141   5.513   0.429   3.388 -0.7037  0.3075  2.6291
19242TIP3    H279142   5.513   0.562   3.314  0.7396 -1.3240 -0.3660
19243TIP3   OH279143   0.363   3.407  12.121  0.0506  0.2908 -0.2853
19243TIP3    H179144   0.360   3.452  12.037 -2.4601  0.7177 -0.0101
19243TIP3    H279145   0.393   3.474  12.183 -1.1969  0.8780 -0.3066
19244TIP3   OH279146   5.321   1.167   4.663 -0.0529 -0.5547  0.0852
19244TIP3    H179147   5.336   1.122   4.579 -1.2996 -2.3308  0.7797
19244TIP3    H279148   5.245   1.222   4.648 -0.4852 -1.1345  0.1401
19245TIP3   OH279149   2.265   2.803  12.573 -0.4752  0.4283  0.1537
19245TIP3    H179150   2.359   2.806  12.555 -0.2143  0.7212  1.5347
19245TIP3    H279151   2.224   2.823  12.488  0.6560 -1.8266 -0.9520
19246TIP3   OH279152   0.654   5.559   0.166 -0.4235  0.1803  0.0469
19246TIP3    H179153   0.675   5.528   0.254 -2.3993  0.9604  0.8003
19246TIP3    H279154   0.562   5.584   0.170  0.1089  2.5585 -1.5833
19247TIP3   OH279155   0.781   1.754  13.885 -0.1956  0.0500  0.4223
19247TIP3    H179156   0.759   1.712  13.802  0.9471  1.2771 -0.5426
19247TIP3    H279157   0.875   1.739  13.895  0.2907  2.4814 -0.0631
19248TIP3   OH279158   3.794   2.805  11.489 -0.9294 -0.8201 -0.2678
19248TIP3    H179159   3.733   2.840  11.553  0.9005 -0.7118  1.4801
19248TIP3    H279160   3.871   2.861  11.497  0.1458 -2.1670 -0.9844
19249TIP3   OH279161   5.346   1.742   5.724 -0.2074 -0.4895 -0.1952
19249TIP3    H179162   5.372   1.774   5.811  1.6233 -0.6216 -0.6853
19249TIP3    H279163   5.369   1.813   5.665 -1.0259 -0.5930 -0.6423
19250TIP3   OH279164   0.619   6.008  15.695 -0.5483 -0.0978  0.4139
19250TIP3    H179165   0.665   6.091  15.684 -1.7887  0.5726  0.1845
19250TIP3    H279166   0.631   5.987  15.788  0.5538 -0.1368  0.2662
19251TIP3   OH279167   2.595   1.135  16.631  0.7299 -0.4261  0.5932
19251TIP3    H179168   2.687   1.155  16.650  0.3549  0.6089  1.3468
19251TIP3    H279169   2.573   1.064  16.690  0.8307 -0.1659  0.9445
19252TIP3   OH279170   5.301   4.797  13.592 -0.0607 -0.0585 -0.4373
19252TIP3    H179171   5.310   4.778  13.686 -1.8454 -1.4375 -0.5050
19252TIP3    H279172   5.284   4.891  13.588  2.6321  0.5047  0.4128
19253TIP3   OH279173   3.034   3.635   2.707  0.1633  0.1566 -0.4542
19253TIP3    H179174   2.996   3.646   2.794  0.2197 -0.8991 -0.2952
19253TIP3    H279175   3.113   3.688   2.709  0.4689 -0.3156  0.3364
19254TIP3   OH279176   5.058   0.617  12.892 -0.8719 -0.5506 -0.6056
19254TIP3    H179177   5.131   0.574  12.937  0.5403 -0.1834 -2.4586
19254TIP3    H279178   4.981   0.596  12.945  0.5763 -0.9251  1.4258
19255TIP3   OH279179   4.851   0.491   4.513  0.6329 -0.0964  0.2624
19255TIP3    H179180   4.838   0.403   4.549 -0.3712 -0.9463 -2.0617
19255TIP3    H279181   4.944   0.493   4.489  0.2567 -1.2391 -1.4015
19256TIP3   OH279182   3.327   2.816   1.817  0.4840 -0.4329 -0.3631
19256TIP3    H179183   3.274   2.809   1.738  0.4796  0.8169 -0.4881
19256TIP3    H279184   3.322   2.730   1.858 -1.8730 -0.2657 -0.2225
19257TIP3   OH279185   6.747   4.504  12.046  1.0233 -0.2330 -0.3509
19257TIP3    H179186   6.800   4.459  12.111  1.2322  0.4870 -0.0210
19257TIP3    H279187   6.697   4.569  12.096 -0.5694 -1.2558 -0.5821
19258TIP3   OH279188   5.853   5.942   5.488  0.2019 -0.2456 -0.3428
19258TIP3    H179189   5.947   5.929   5.500  0.1170 -2.6325 -1.8949
19258TIP3    H279190   5.813   5.900   5.564  0.3225 -1.0926 -0.7386
19259TIP3   OH279191   3.086   1.921  11.568 -0.6071 -0.0339  0.4681
19259TIP3    H179192   3.130   1.904  11.485  4.3328 -0.3402  2.9749
19259TIP3    H279193   3.072   2.016  11.569 -1.4281 -0.1269 -1.0042
19260TIP3   OH279194   6.075   0.974   2.950  0.0356  0.8186 -0.1058
19260TIP3    H179195   6.081   0.959   2.855  1.4659 -0.6073  0.1895
19260TIP3    H279196   6.165   0.996   2.976 -0.6291  2.6175  0.6991
19261TIP3   OH279197   1.220   5.432   6.235  0.0747 -0.9458 -0.6595
19261TIP3    H179198   1.144   5.375   6.222  0.5780 -1.4952 -1.2408
19261TIP3    H279199   1.292   5.372   6.254  0.0233 -0.3232  1.5574
19262TIP3   OH279200   3.591   6.127   2.900 -0.1878 -0.5279 -0.1465
19262TIP3    H179201   3.629   6.040   2.908  0.6278  0.0037  2.0513
19262TIP3    H279202   3.507   6.121   2.946 -0.5250 -0.3725 -0.7299
19263TIP3   OH279203   2.272   2.465  15.228  0.1768 -0.3589  0.0554
19263TIP3    H179204   2.253   2.558  15.227  1.6277 -0.0523  0.2512
19263TIP3    H279205   2.356   2.456  15.184 -0.5799 -1.7315 -1.1615
19264TIP3   OH279206   3.746   6.652  12.945 -0.7061 -0.4186 -0.4422
19264TIP3    H179207   3.667   6.690  12.984 -1.8947 -0.8337 -2.3901
19264TIP3    H279208   3.806   6.726  12.935 -1.1126  0.0303  0.4048
19265TIP3   OH279209   4.299   1.165  16.658 -0.0899 -0.4605  0.2759
19265TIP3    H179210   4.343   1.154  16.574 -0.5743  0.4384 -0.1064
19265TIP3    H279211   4.263   1.078  16.677 -0.3438 -0.5670 -0.6588
19266TIP3   OH279212   2.916   2.725  16.149 -0.0019  0.2182  0.5785
19266TIP3    H179213   2.879   2.681  16.226  2.1717 -2.7339  0.0159
19266TIP3    H279214   2.888   2.670  16.075 -0.0151  1.6540 -0.4988
19267TIP3   OH279215   1.366   3.200  13.591  0.0844  0.1312  0.0927
19267TIP3    H179216   1.435   3.143  13.624 -0.3835 -0.4444  0.0812
19267TIP3    H279217   1.400   3.236  13.509  0.3998 -0.0885  0.1295
19268TIP3   OH279218   5.542   5.229   5.848 -0.0353 -0.1376 -0.2079
19268TIP3    H179219   5.571   5.234   5.939 -0.8713 -1.4598  0.1359
19268TIP3    H279220   5.614   5.186   5.802 -0.8510 -2.1700  0.3886
19269TIP3   OH279221   2.901   0.339  13.425 -0.4852 -0.2280 -0.4303
19269TIP3    H179222   2.870   0.402  13.490  0.2118 -0.1611 -0.1644
19269TIP3    H279223   2.821   0.313  13.378 -0.6234  1.7667 -1.3775
19270TIP3   OH279224   5.278   4.357  17.136  0.4577 -0.2441  0.5841
19270TIP3    H179225   5.320   4.439  17.160 -1.1881  0.7243  0.2405
19270TIP3    H279226   5.287   4.352  17.041 -0.5347  0.1623  0.4643
19271TIP3   OH279227   6.078   6.635   5.789  0.2334 -0.0945  0.5079
19271TIP3    H179228   6.112   6.624   5.878  2.8363 -0.7012 -0.5292
19271TIP3    H279229   6.123   6.713   5.756 -1.0511  0.3862 -0.1558
19272TIP3   OH279230   4.233   2.685  14.054  0.0293 -0.0254 -0.0320
19272TIP3    H179231   4.252   2.598  14.090 -3.2526 -1.3997 -1.3839
19272TIP3    H279232   4.300   2.700  13.988  0.7532 -1.4221  0.3794
19273TIP3   OH279233   3.260   0.440  12.202  0.0544  0.0898 -0.6157
19273TIP3    H179234   3.247   0.346  12.189 -1.1101  0.3153 -1.1870
19273TIP3    H279235   3.250   0.452  12.296  1.5824 -0.5499 -0.3604
19274TIP3   OH279236   4.633   5.770  11.169  0.7005  0.2012  0.6234
19274TIP3    H179237   4.691   5.734  11.102 -0.7133 -2.1574  0.6474
19274TIP3    H279238   4.646   5.865  11.162  4.2546 -0.2425  0.3858
19275TIP3   OH279239   3.851   0.929  15.519  0.0586 -0.0543  0.2578
19275TIP3    H179240   3.864   0.992  15.590 -1.9436  1.1595 -0.4019
19275TIP3    H279241   3.759   0.902  15.529  0.3589 -1.4389 -0.6306
19276TIP3   OH279242   4.772   1.377   0.756 -0.3517  0.2889 -0.1151
19276TIP3    H179243   4.699   1.434   0.732 -0.5233 -1.0054 -2.8757
19276TIP3    H279244   4.740   1.288   0.737  1.7966 -0.3165 -1.0203
19277TIP3   OH279245   1.827   1.842   4.726  0.4099 -0.2699 -0.5129
19277TIP3    H179246   1.851   1.758   4.687  0.1185  0.5676 -2.5753
19277TIP3    H279247   1.806   1.821   4.817  1.2937 -2.2655 -0.7386
19278TIP3   OH279248   0.157   0.386  14.053  0.2171 -0.2256  0.1549
19278TIP3    H179249   0.149   0.293  14.032  1.1329  0.1904 -2.1241
19278TIP3    H279250   0.215   0.422  13.986  2.8030  1.3146  3.0433
19279TIP3   OH279251   4.893   2.140   1.436 -0.2442  0.3563 -0.1014
19279TIP3    H179252   4.894   2.205   1.506  0.7074 -2.6898  2.7895
19279TIP3    H279253   4.979   2.148   1.395  0.7234 -0.6154  1.7146
19280TIP3   OH279254   1.135   6.180  13.011  0.5140 -0.5049 -0.6283
19280TIP3    H179255   1.182   6.121  12.953  0.8785 -1.4256  0.5732
19280TIP3    H279256   1.050   6.195  12.968  0.3720 -2.0106 -0.8763
19281TIP3   OH279257   0.891   2.452  15.565 -0.5808 -0.1888 -0.3262
19281TIP3    H179258   0.947   2.377  15.585  1.9280  1.5331 -0.6812
19281TIP3    H279259   0.862   2.484  15.650  2.0079  1.1285  0.0897
19282TIP3   OH279260   5.478   4.421   4.407  0.6387  0.0673  0.2418
19282TIP3    H179261   5.498   4.429   4.500  0.1898 -0.0853  0.3521
19282TIP3    H279262   5.462   4.328   4.393 -0.3967  0.2314  0.2454
19283TIP3   OH279263   4.769   4.107  16.604 -0.2476  0.2950 -0.5176
19283TIP3    H179264   4.780   4.016  16.579 -0.5092 -0.1821  1.0422
19283TIP3    H279265   4.682   4.111  16.644  0.9668  0.5545  2.2374
19284TIP3   OH279266   4.361   2.443  11.192 -0.6798  0.0305 -0.1281
19284TIP3    H179267   4.408   2.413  11.115  0.4138 -0.0846  0.5709
19284TIP3    H279268   4.320   2.525  11.165  0.4780  0.4818 -0.5587
19285TIP3   OH279269   6.400   1.022  13.373  0.1062  0.1865 -0.6383
19285TIP3    H179270   6.324   1.011  13.316  0.3428 -2.0043 -0.5569
19285TIP3    H279271   6.370   0.993  13.459  1.3398 -1.7317 -0.8401
19286TIP3   OH279272   0.675   3.763  12.606 -0.2782  0.4960  0.6313
19286TIP3    H179273   0.723   3.823  12.549 -2.4773  0.6373 -1.1254
19286TIP3    H279274   0.680   3.803  12.693  1.4311  1.2968  0.1770
19287TIP3   OH279275   6.094   4.192   3.570 -0.1677 -0.1452 -0.2415
19287TIP3    H179276   6.124   4.265   3.624 -0.0751 -1.7981  2.0231
19287TIP3    H279277   6.047   4.233   3.498  0.3496  2.1632  0.6917
19288TIP3   OH279278   1.836   0.631  14.218 -1.0072 -0.2271  0.2134
19288TIP3    H179279   1.856   0.680  14.298  0.7706 -0.4101 -0.1046
19288TIP3    H279280   1.782   0.557  14.248 -3.2510  1.5753  0.7720
19289TIP3   OH279281   6.731   0.360   2.781 -0.0429  0.1730 -0.1098
19289TIP3    H179282   6.760   0.274   2.812 -0.5493  0.0073 -0.0947
19289TIP3    H279283   6.650   0.377   2.828  0.6333  1.1605  0.7208
19290TIP3   OH279284   4.226   3.865  11.702 -0.0285  0.1853  0.1676
19290TIP3    H179285   4.144   3.868  11.751 -0.0106 -1.6681  0.3485
19290TIP3    H279286   4.280   3.803  11.751  0.9966  0.3895 -0.6985
19291TIP3   OH279287   0.050   2.455   4.522 -0.7088 -0.0292  0.3743
19291TIP3    H179288   0.135   2.474   4.562 -0.1808  0.3766 -0.9476
19291TIP3    H279289  -0.012   2.460   4.596  0.3732 -0.1872  1.3122
19292TIP3   OH279290   5.020   0.887  12.987 -0.3174  0.6622  0.4324
19292TIP3    H179291   5.094   0.930  12.945 -0.4173 -0.9128 -1.4325
19292TIP3    H279292   5.023   0.797  12.955 -2.6469  0.4084  0.8029
19293TIP3   OH279293   6.595   6.036  15.720 -0.4425  0.6954 -0.0964
19293TIP3    H179294   6.615   5.979  15.795  0.5512  1.7197  0.4304
19293TIP3    H279295   6.511   6.004  15.687  0.7965 -2.0486 -0.7343
19294TIP3   OH279296   6.673   1.090  15.857 -0.4720 -0.2805  1.2015
19294TIP3    H179297   6.692   1.167  15.802 -1.1930 -0.1560  1.1131
19294TIP3    H279298   6.750   1.081  15.913 -0.1807  0.2318  0.8936
19295TIP3   OH279299   0.304   3.182  15.348  0.2813  0.3322 -0.6166
19295TIP3    H179300   0.288   3.088  15.357 -2.4782  0.7207 -1.1002
19295TIP3    H279301   0.360   3.189  15.270  0.4426 -0.8983 -0.6205
19296TIP3   OH279302   3.452   5.231  15.380 -0.2908  0.2727 -0.2085
19296TIP3    H179303   3.526   5.291  15.391  0.0934 -0.2508  0.1301
19296TIP3    H279304   3.468   5.162  15.445  0.0286 -0.9375 -1.5375
19297TIP3   OH279305   6.031   4.184   5.106 -0.1633 -0.2156 -0.1480
19297TIP3    H179306   6.089   4.253   5.074 -0.1711 -0.3170 -0.3801
19297TIP3    H279307   5.946   4.226   5.116 -0.1808 -0.2067 -0.3425
19298TIP3   OH279308   1.089   2.897   4.629  0.1609  0.0719 -0.1275
19298TIP3    H179309   0.997   2.880   4.610 -0.2111  0.7672  0.9994
19298TIP3    H279310   1.087   2.972   4.689  1.4168 -0.5037  0.6390
19299TIP3   OH279311   0.665   1.808  10.884  0.2125  0.7996  0.4216
19299TIP3    H179312   0.596   1.777  10.824  1.4057  0.2909 -0.7172
19299TIP3    H279313   0.661   1.748  10.958  1.4853 -1.2006 -1.0786
19300TIP3   OH279314   0.080   5.185   5.018  0.5452  0.2301  0.3247
19300TIP3    H179315   0.127   5.255   5.065  0.6471  0.7478 -0.5276
19300TIP3    H279316   0.105   5.198   4.926 -2.3644  1.4217 -0.3728
19301TIP3   OH279317   5.664   5.656  14.850 -0.2338  0.2408  0.1204
19301TIP3    H179318   5.726   5.690  14.786 -0.9669  2.6781  0.6399
19301TIP3    H279319   5.630   5.576  14.811  0.8048  0.6290 -1.6204
19302TIP3   OH279320   6.594   5.162   5.272 -0.0399 -0.1343 -0.2030
19302TIP3    H179321   6.573   5.089   5.331 -0.7526  0.0960 -0.1766
19302TIP3    H279322   6.539   5.147   5.195  0.3664 -0.0394 -0.5106
19303TIP3   OH279323   2.466   5.312  11.805 -0.4446  0.2953 -0.2398
19303TIP3    H179324   2.370   5.303  11.800 -0.7221  2.1756  1.0225
19303TIP3    H279325   2.498   5.268  11.727 -2.3549 -0.2905 -0.7350
19304TIP3   OH279326   5.136   2.214  14.730 -0.8168 -0.0659  0.2529
19304TIP3    H179327   5.150   2.289  14.789 -2.1964  0.2890  0.1405
19304TIP3    H279328   5.055   2.174  14.761  0.3602 -2.0484  0.8600
19305TIP3   OH279329   5.828   0.852  13.836 -0.1956 -0.3635  0.5593
19305TIP3    H179330   5.865   0.781  13.888  0.4648 -0.8732 -0.5964
19305TIP3    H279331   5.734   0.850  13.855  0.0031 -0.7001  1.5302
19306TIP3   OH279332   3.660   1.425   3.425  0.2358 -0.7438  0.0845
19306TIP3    H179333   3.636   1.487   3.356 -1.0416  0.1339  1.3035
19306TIP3    H279334   3.585   1.365   3.431  1.4065 -2.3835 -1.0084
19307TIP3   OH279335   6.684   6.086   2.143  0.1933  0.2186 -0.0891
19307TIP3    H179336   6.708   6.171   2.179  1.6126 -0.4838  0.6916
19307TIP3    H279337   6.716   6.088   2.053  1.5990 -0.0320  0.3938
19308TIP3   OH279338   6.422   5.679   5.920  0.2265 -0.2898 -0.0827
19308TIP3    H179339   6.350   5.700   5.979 -0.0758 -1.0298 -0.1765
19308TIP3    H279340   6.382   5.625   5.851  0.5919  0.4700 -0.9074
19309TIP3   OH279341   2.689   6.461  14.553  0.1229  0.1884  0.4435
19309TIP3    H179342   2.653   6.375  14.534 -0.8924  0.4028  1.3248
19309TIP3    H279343   2.643   6.489  14.633  2.7221  0.1638  2.0250
19310TIP3   OH279344   0.168   0.895   2.135 -0.5294 -0.6470  0.5384
19310TIP3    H179345   0.117   0.818   2.159 -0.5524 -0.7289  0.2190
19310TIP3    H279346   0.258   0.863   2.129 -0.5892 -0.7215  0.0536
19311TIP3   OH279347   3.706   6.669  12.123 -0.3059  0.2432 -0.1274
19311TIP3    H179348   3.775   6.623  12.171  1.0043  1.9232 -0.3718
19311TIP3    H279349   3.649   6.704  12.191  1.2114  2.1041  0.2213
19312TIP3   OH279350   5.083   4.822   4.510 -0.2483  0.7973 -0.1257
19312TIP3    H179351   5.062   4.757   4.443 -0.8504  0.3537  0.4891
19312TIP3    H279352   5.151   4.782   4.563 -1.9090 -0.1194  1.3889
19313TIP3   OH279353   3.348   0.930   1.607  0.1132 -0.0547  0.8922
19313TIP3    H179354   3.288   0.869   1.562 -0.3823 -2.2292  4.2984
19313TIP3    H279355   3.318   1.017   1.580 -2.2552 -1.1905 -0.3425
19314TIP3   OH279356   0.162   3.539   1.884 -0.3577  0.6020  0.2683
19314TIP3    H179357   0.138   3.448   1.865  0.6050  0.0592  1.6445
19314TIP3    H279358   0.085   3.589   1.856 -1.1937 -0.6963  0.1734
19315TIP3   OH279359   2.479   4.055  13.061 -0.0653 -0.1163  0.3693
19315TIP3    H179360   2.387   4.031  13.052 -0.1611  0.9251 -1.7702
19315TIP3    H279361   2.487   4.086  13.151 -1.7148 -0.5822  0.6885
19316TIP3   OH279362   1.605   0.176   0.415  0.9116  0.1135  0.1505
19316TIP3    H179363   1.588   0.239   0.345  1.2119  0.3881  0.3245
19316TIP3    H279364   1.652   0.105   0.372 -0.4247 -0.5274 -0.2786
19317TIP3   OH279365   0.679   6.375  13.507 -0.1128 -0.0870  0.0099
19317TIP3    H179366   0.727   6.293  13.522 -0.0276 -0.0477 -0.0523
19317TIP3    H279367   0.620   6.381  13.582 -0.2192 -0.2776 -0.0573
19318TIP3   OH279368   6.690   2.040   4.929  0.1734 -0.2462 -0.1260
19318TIP3    H179369   6.733   2.096   4.994 -0.1654  0.6191 -0.6406
19318TIP3    H279370   6.762   1.998   4.883  0.4397  0.1270 -0.0534
19319TIP3   OH279371   3.399   6.467   3.361 -0.2921  0.7188  0.0047
19319TIP3    H179372   3.398   6.429   3.449 -3.7450 -1.1697 -0.7830
19319TIP3    H279373   3.457   6.409   3.311  1.4632  1.6435  0.8925
19320TIP3   OH279374   6.769   1.646   3.919  0.3218  0.4520  0.1302
19320TIP3    H179375   6.807   1.679   3.838  2.8039 -0.4156  0.8918
19320TIP3    H279376   6.707   1.714   3.946 -0.6172  0.7038 -2.5085
19321TIP3   OH279377   2.572   0.410   0.575 -0.2589  0.6341 -0.3833
19321TIP3    H179378   2.501   0.474   0.581 -0.3087  0.5525 -0.0476
19321TIP3    H279379   2.640   0.453   0.524  0.0360  1.2610  0.5183
19322TIP3   OH279380   5.877   6.563  12.343  0.0483  0.1000 -0.0569
19322TIP3    H179381   5.841   6.551  12.431 -1.2862  0.1610 -0.5866
19322TIP3    H279382   5.972   6.560  12.355 -0.1353 -1.1889  1.2107
19323TIP3   OH279383   6.585   5.852   0.353 -0.5819  0.1752  0.4233
19323TIP3    H179384   6.637   5.932   0.363  1.3628 -1.1450  1.2014
19323TIP3    H279385   6.510   5.864   0.412 -1.1954  2.0878 -0.6811
19324TIP3   OH279386   6.214   5.744  17.186  0.1547 -0.5267 -0.3809
19324TIP3    H179387   6.256   5.726  17.102  1.5200  2.6340 -0.4628
19324TIP3    H279388   6.282   5.788  17.238 -0.7365 -2.1870  2.2907
19325TIP3   OH279389   5.118   4.535  16.726  0.2585 -0.0904  0.3150
19325TIP3    H179390   5.027   4.526  16.695 -0.6936  1.3772  2.5542
19325TIP3    H279391   5.168   4.555  16.647 -1.2148 -1.6972 -1.0879
19326TIP3   OH279392   1.776   2.998  13.531 -0.0322  0.0115 -0.1753
19326TIP3    H179393   1.840   3.054  13.574 -0.4802  0.1151  0.3645
19326TIP3    H279394   1.752   3.045  13.451 -0.4420  0.6105  0.2985
19327TIP3   OH279395   2.257   0.506  16.594 -0.0718 -0.1389  0.0876
19327TIP3    H179396   2.285   0.592  16.562  1.4443 -0.6169  0.1118
19327TIP3    H279397   2.320   0.484  16.662 -0.3216 -1.3605 -0.0608
19328TIP3   OH279398   6.513   1.148   3.650  0.3397 -0.4473 -0.3389
19328TIP3    H179399   6.496   1.210   3.720 -0.7445  1.0355 -1.8794
19328TIP3    H279400   6.604   1.120   3.663  0.6867  1.1149  0.6224
19329TIP3   OH279401   6.777   0.359  16.548  0.4100 -0.5792 -1.2082
19329TIP3    H179402   6.693   0.328  16.582  0.2870  0.0199 -0.9542
19329TIP3    H279403   6.799   0.298  16.478  0.9301 -2.1406  0.3126
19330TIP3   OH279404   5.036   0.625  16.873  0.6752 -0.3735 -0.0521
19330TIP3    H179405   5.059   0.598  16.962  1.9732  3.2091  0.7401
19330TIP3    H279406   4.941   0.616  16.869  0.4751  0.6391  2.1231
19331TIP3   OH279407   2.274   1.545  12.913  1.1931 -0.4353 -0.0523
19331TIP3    H179408   2.281   1.634  12.879  0.3097 -0.4975 -0.4115
19331TIP3    H279409   2.275   1.489  12.835 -1.0176 -0.5663 -0.0061
19332TIP3   OH279410   1.684   2.844  14.765 -0.4071 -0.2696 -0.3240
19332TIP3    H179411   1.667   2.869  14.856 -1.7313 -0.6239 -0.4661
19332TIP3    H279412   1.735   2.763  14.772  1.4218  0.8971  0.1082
19333TIP3   OH279413   2.871   6.480  11.869  0.0776  0.1463  0.5843
19333TIP3    H179414   2.813   6.531  11.926 -1.4853 -2.5782  1.5548
19333TIP3    H279415   2.899   6.406  11.924 -0.1083 -1.6364 -1.6449
19334TIP3   OH279416   3.642   0.924  12.305  0.8175  0.1359 -0.3857
19334TIP3    H179417   3.562   0.879  12.277  0.2489  0.3811  0.8190
19334TIP3    H279418   3.649   0.999  12.246  0.8783 -0.6009 -1.3368
19335TIP3   OH279419   5.961   3.155  16.244  0.1432  0.8709 -0.4147
19335TIP3    H179420   5.871   3.185  16.227  0.7761  2.4279 -1.0345
19335TIP3    H279421   5.971   3.079  16.187 -1.1352  0.0245  0.4526
19336TIP3   OH279422   0.448   4.404  14.190 -0.7853 -0.1516  0.1982
19336TIP3    H179423   0.492   4.348  14.127  1.6127  1.7911  0.0786
19336TIP3    H279424   0.463   4.363  14.275  0.0474 -0.2676 -0.0031
19337TIP3   OH279425   4.882   0.347   4.101  0.3334 -0.0450 -0.2091
19337TIP3    H179426   4.850   0.401   4.173  0.2664  0.0860 -0.3371
19337TIP3    H279427   4.806   0.336   4.044  0.0907 -1.0367  0.2754
19338TIP3   OH279428   2.849   3.493   3.018 -0.0181  0.3047 -0.2632
19338TIP3    H179429   2.935   3.474   3.054  0.4657  1.9896 -0.4838
19338TIP3    H279430   2.851   3.587   2.998 -1.0467 -0.1152 -2.5365
19339TIP3   OH279431   0.349   2.102  14.177  0.3838 -0.9183  0.9411
19339TIP3    H179432   0.258   2.108  14.207  0.2856  0.3776  0.4287
19339TIP3    H279433   0.387   2.187  14.199  1.1713 -1.0675  0.1723
19340TIP3   OH279434   2.245   4.137   2.485 -0.8627 -0.3723  0.2496
19340TIP3    H179435   2.217   4.081   2.558 -1.2453 -0.2426  0.2064
19340TIP3    H279436   2.183   4.211   2.488  0.3807  0.6693  1.0811
19341TIP3   OH279437   2.784   6.589  13.085  0.4050 -0.1250 -0.6672
19341TIP3    H179438   2.851   6.547  13.139 -0.4474  0.4237  0.8591
19341TIP3    H279439   2.761   6.523  13.020 -0.8640 -2.0632  1.6246
19342TIP3   OH279440   6.428   6.205   5.318 -0.2005  0.1730  0.4475
19342TIP3    H179441   6.457   6.123   5.358 -0.7582  0.8394  2.2736
19342TIP3    H279442   6.338   6.187   5.291  0.1240 -0.2308 -0.3647
19343TIP3   OH279443   2.606   1.646   1.653 -0.3113 -0.2743 -0.1566
19343TIP3    H179444   2.626   1.739   1.650 -0.5472 -0.1966  0.5349
19343TIP3    H279445   2.528   1.640   1.708 -0.8875 -0.7837 -1.0094
19344TIP3   OH279446   1.142   6.524   0.453 -0.3406  0.0557 -0.5364
19344TIP3    H179447   1.225   6.573   0.448 -0.0331 -0.0557  2.3407
19344TIP3    H279448   1.166   6.439   0.490 -1.6913 -0.1032  0.0109
19345TIP3   OH279449   3.105   5.605  12.417  0.5949  0.1200 -0.2208
19345TIP3    H179450   3.015   5.636  12.431 -0.1851 -1.2106 -1.9720
19345TIP3    H279451   3.116   5.608  12.322  2.6790  0.9662  0.0383
19346TIP3   OH279452   2.750   2.120   6.001  0.2891  0.8986  0.7714
19346TIP3    H179453   2.657   2.100   6.010  0.3899 -0.5418 -1.0140
19346TIP3    H279454   2.760   2.207   6.039 -1.3837  0.2128  2.9022
19347TIP3   OH279455   1.254   0.647  14.721 -0.2052 -0.6512  0.7969
19347TIP3    H179456   1.262   0.673  14.629 -0.2586 -0.2993  0.8883
19347TIP3    H279457   1.184   0.582  14.722 -0.6373 -0.1971  0.6747
19348TIP3   OH279458   0.724   4.949   1.398  0.0737 -0.2665 -0.2630
19348TIP3    H179459   0.636   4.965   1.432  0.4894 -0.5798  0.9963
19348TIP3    H279460   0.777   5.020   1.433  1.0272 -1.9464  1.8454
19349TIP3   OH279461   6.059   3.489  15.377  0.6109 -0.1400 -0.4464
19349TIP3    H179462   5.971   3.524  15.369  0.4778 -0.4503 -0.3659
19349TIP3    H279463   6.086   3.512  15.466  1.3275  1.5765 -1.0969
19350TIP3   OH279464   2.257   5.070  13.098 -0.3165  0.2082 -0.2963
19350TIP3    H179465   2.302   5.023  13.028  0.2641 -1.1447  0.9539
19350TIP3    H279466   2.168   5.082  13.064  0.1103  0.0780 -1.4932
19351TIP3   OH279467   0.450   0.191  12.062 -0.2284  0.0160 -0.3416
19351TIP3    H179468   0.466   0.120  12.124 -1.2841  0.7442  0.7946
19351TIP3    H279469   0.372   0.164  12.014 -0.2557  0.1076 -0.3499
19352TIP3   OH279470   6.661   3.819  11.600  0.1244  0.2552 -0.5529
19352TIP3    H179471   6.574   3.861  11.604 -0.5718 -1.2775  0.8994
19352TIP3    H279472   6.702   3.859  11.524 -2.0251  0.7019 -1.5380
19353TIP3   OH279473   0.109   3.658  11.441 -0.2970  0.1826  0.3513
19353TIP3    H179474   0.086   3.743  11.478 -3.3156 -0.3828 -0.1249
19353TIP3    H279475   0.070   3.658  11.354  1.1087 -1.0682 -0.2992
19354TIP3   OH279476   4.215   6.049   1.451 -1.1619  0.2898  0.3129
19354TIP3    H179477   4.174   6.001   1.522 -0.2773 -0.7954  0.1047
19354TIP3    H279478   4.285   6.099   1.493  0.1564 -1.2980  0.0578
19355TIP3   OH279479   1.119   5.730  14.184 -0.8473 -0.9051  0.5678
19355TIP3    H179480   1.087   5.671  14.115 -0.4847 -2.2742  1.5640
19355TIP3    H279481   1.045   5.787  14.202 -0.4400  0.5598 -2.1036
19356TIP3   OH279482   5.879   5.136  13.061 -0.3613 -0.1997  0.1520
19356TIP3    H179483   5.793   5.177  13.053 -0.4701 -0.4236  0.1742
19356TIP3    H279484   5.862   5.043  13.054  0.0218 -0.1834 -1.1494
19357TIP3   OH279485   2.492   5.064   4.577 -0.0468 -0.0324 -0.0328
19357TIP3    H179486   2.415   5.025   4.619 -0.0377 -1.9753 -1.7308
19357TIP3    H279487   2.566   5.029   4.626 -0.0551 -1.9659 -1.3482
19358TIP3   OH279488   4.795   1.942  15.477 -0.0200  0.2341  0.2347
19358TIP3    H179489   4.720   1.888  15.502 -0.8122  1.1629 -0.0769
19358TIP3    H279490   4.839   1.892  15.409 -0.1045 -0.5172  0.7298
19359TIP3   OH279491   2.235   2.464   2.400  0.3551  0.6230  0.2295
19359TIP3    H179492   2.215   2.517   2.477 -2.1266  0.5550 -0.3125
19359TIP3    H279493   2.197   2.378   2.420  0.6236  0.2949 -0.6378
19360TIP3   OH279494   4.651   0.624  12.277  0.3824 -0.2704  0.1355
19360TIP3    H179495   4.578   0.570  12.246  1.0046 -0.0560 -1.7717
19360TIP3    H279496   4.729   0.581  12.243  0.9524  1.1798 -0.4566
19361TIP3   OH279497   3.490   2.408  10.998 -0.1390  0.0302 -0.2205
19361TIP3    H179498   3.488   2.320  10.959 -1.6972 -0.1209  0.1964
19361TIP3    H279499   3.539   2.460  10.934  0.0409 -0.9361 -0.8906
19362TIP3   OH279500   1.320   2.097   5.861 -0.3049  0.1072  0.5967
19362TIP3    H179501   1.372   2.158   5.913  1.9496 -2.9291  2.0407
19362TIP3    H279502   1.243   2.079   5.915 -1.1254  1.7854  0.0452
19363TIP3   OH279503   3.658   5.890  13.571  0.2954  0.2351 -0.1340
19363TIP3    H179504   3.610   5.865  13.492 -0.1889  0.4769  0.0816
19363TIP3    H279505   3.710   5.966  13.544 -0.9259  1.1779  0.1398
19364TIP3   OH279506   1.584   3.637   3.330 -0.0230 -0.3906 -0.5735
19364TIP3    H179507   1.565   3.687   3.251 -1.1383  1.0753  0.6016
19364TIP3    H279508   1.504   3.641   3.382  0.4650 -1.9137  0.3400
19365TIP3   OH279509   4.936   6.117   2.048  0.2748  0.0021  0.3548
19365TIP3    H179510   4.872   6.114   2.119 -0.8164 -0.1565 -0.6411
19365TIP3    H279511   4.991   6.040   2.063  1.3931  1.1063  2.2597
19366TIP3   OH279512   0.207   0.807   3.257  0.0485  0.2696 -0.1283
19366TIP3    H179513   0.196   0.894   3.293  0.1771  0.2913 -0.1399
19366TIP3    H279514   0.156   0.750   3.315  0.3676  0.2841  0.1683
19367TIP3   OH279515   4.458   6.474   0.159 -0.1128 -0.2302 -0.0193
19367TIP3    H179516   4.500   6.469   0.245  0.6415 -0.0263 -0.3717
19367TIP3    H279517   4.365   6.463   0.178  0.0043  0.1993  0.8608
19368TIP3   OH279518   1.752   2.718  13.745 -0.4810  0.1705  0.5616
19368TIP3    H179519   1.800   2.789  13.789  1.2989  0.1556 -1.2689
19368TIP3    H279520   1.749   2.745  13.653 -0.7463 -1.6034  0.0330
19369TIP3   OH279521   2.259   1.176  11.522 -0.2831 -0.4592 -0.3905
19369TIP3    H179522   2.339   1.156  11.474 -0.2923 -2.2717  0.2827
19369TIP3    H279523   2.250   1.104  11.585  0.1690  2.2392  2.9292
19370TIP3   OH279524   1.638   5.270   2.619  0.3644  0.1892  0.0880
19370TIP3    H179525   1.567   5.260   2.555  0.7774  2.5581 -0.7837
19370TIP3    H279526   1.592   5.282   2.702 -0.2330  0.4628 -0.2750
19371TIP3   OH279527   4.251   4.464   5.380 -0.3208  0.3490  0.7473
19371TIP3    H179528   4.344   4.458   5.359 -0.4030  1.7457 -0.0886
19371TIP3    H279529   4.212   4.512   5.307 -1.7813 -0.5620  0.8863
19372TIP3   OH279530   4.910   3.419   4.388  0.9083 -0.3125  0.1031
19372TIP3    H179531   5.005   3.408   4.385  0.9417 -0.3816  1.0257
19372TIP3    H279532   4.878   3.336   4.426  0.3836 -0.7376 -1.2461
19373TIP3   OH279533   2.461   3.421  14.866  0.0510  0.1772  0.2913
19373TIP3    H179534   2.425   3.421  14.955 -0.6103  0.3976  0.0296
19373TIP3    H279535   2.399   3.370  14.814  1.4180 -1.5773  0.3228
19374TIP3   OH279536   0.018   1.744  14.163 -0.4886 -0.3618  0.3108
19374TIP3    H179537  -0.037   1.821  14.149  0.1010 -0.1569 -1.0213
19374TIP3    H279538  -0.009   1.710  14.248 -1.9406  0.3329  0.1495
19375TIP3   OH279539   2.020   5.369  12.065 -0.7567  0.3968 -0.8458
19375TIP3    H179540   2.034   5.464  12.067  2.5996 -0.0525  0.4416
19375TIP3    H279541   2.016   5.343  12.157 -1.1849 -0.7668 -1.1885
19376TIP3   OH279542   3.706   5.994  13.252 -0.2833 -0.5660 -0.7517
19376TIP3    H179543   3.622   6.031  13.228 -1.1223 -0.6313  1.9334
19376TIP3    H279544   3.768   6.067  13.246 -1.7184  1.1233  3.4647
19377TIP3   OH279545   3.508   2.785  12.202 -0.1489  0.0710  0.1982
19377TIP3    H179546   3.431   2.801  12.148 -1.5652  0.3318  2.2206
19377TIP3    H279547   3.562   2.864  12.193  1.0134 -1.0143 -2.9774
19378TIP3   OH279548   2.023   6.038  13.642  0.1100 -0.5606  0.3061
19378TIP3    H179549   2.024   6.120  13.593  0.3590 -1.4798 -1.2556
19378TIP3    H279550   1.951   6.047  13.704  0.3034  0.9381  0.3144
19379TIP3   OH279551   6.265   5.878  14.718 -0.0489  0.2301  0.1225
19379TIP3    H179552   6.354   5.889  14.752 -0.2752  1.4158  0.3375
19379TIP3    H279553   6.218   5.956  14.746 -0.4739  0.8481 -2.1633
19380TIP3   OH279554   3.716   3.229  15.685 -0.3728 -0.2258  0.0521
19380TIP3    H179555   3.703   3.146  15.731  1.1032 -0.2552  0.4304
19380TIP3    H279556   3.810   3.233  15.668 -0.5462  0.9875 -0.7045
19381TIP3   OH279557   4.489   3.706   6.411 -0.4482 -0.0353  0.6192
19381TIP3    H179558   4.573   3.728   6.370 -0.4377 -3.2849 -1.2530
19381TIP3    H279559   4.511   3.649   6.484 -1.0279 -1.2839 -0.1625
19382TIP3   OH279560   1.632   2.499  14.203  0.2015  0.3534  0.1799
19382TIP3    H179561   1.623   2.417  14.252 -1.0283  0.1309 -0.3933
19382TIP3    H279562   1.567   2.557  14.242  0.7782  0.9167  0.3026
19383TIP3   OH279563   5.773   3.244  12.403  0.4489 -0.1408  0.2813
19383TIP3    H179564   5.731   3.317  12.447  2.1964  1.0609 -0.0133
19383TIP3    H279565   5.706   3.175  12.402 -1.0679  1.2891  0.9265
19384TIP3   OH279566   5.654   5.515  14.609 -0.4956  0.0886  0.0111
19384TIP3    H179567   5.709   5.500  14.531 -0.7412  1.8860 -0.5377
19384TIP3    H279568   5.635   5.428  14.642 -0.3867 -0.7162 -1.9706
19385TIP3   OH279569   6.014   4.829  12.937  0.6288  0.2983 -0.7096
19385TIP3    H179570   5.959   4.763  12.894  1.5051 -0.1350 -1.1711
19385TIP3    H279571   6.075   4.779  12.990  0.1771  0.8038  0.2979
19386TIP3   OH279572   5.231   4.964  15.521 -0.1977 -0.0624 -0.1598
19386TIP3    H179573   5.165   4.944  15.587  0.2914 -1.9723 -0.2331
19386TIP3    H279574   5.236   4.885  15.467  0.8965  0.7094 -1.2082
19387TIP3   OH279575   4.552   5.360   0.240 -0.2191 -0.2632 -0.4450
19387TIP3    H179576   4.567   5.293   0.307  0.9257 -0.2480 -0.6741
19387TIP3    H279577   4.500   5.316   0.173  1.2390 -1.1739 -0.9933
19388TIP3   OH279578   0.376   4.733   2.169 -0.2576 -0.2766  0.0370
19388TIP3    H179579   0.407   4.824   2.168  2.3795 -1.1314  0.2111
19388TIP3    H279580   0.372   4.709   2.076 -0.6790 -0.0897  0.0034
19389TIP3   OH279581   2.049   3.605  14.680 -0.1069 -0.0984  0.4830
19389TIP3    H179582   2.007   3.687  14.652 -0.0381 -0.0418  0.5463
19389TIP3    H279583   2.084   3.567  14.600 -1.6053 -0.9025  0.1882
19390TIP3   OH279584   1.803   5.458   0.674 -0.4697  0.1901 -0.6085
19390TIP3    H179585   1.794   5.499   0.760  0.2395  0.8792 -0.8575
19390TIP3    H279586   1.878   5.503   0.634  0.5249 -1.5362 -0.7565
19391TIP3   OH279587   1.491   0.919   2.620 -0.2306  0.5539 -0.2855
19391TIP3    H179588   1.526   0.847   2.567 -2.0578 -0.7016  0.1430
19391TIP3    H279589   1.526   0.904   2.708 -1.9864 -0.8716  0.2107
19392TIP3   OH279590   1.877   1.583   4.639  0.3794  0.1099  0.0658
19392TIP3    H179591   1.818   1.552   4.570  0.8534 -1.6023  0.4074
19392TIP3    H279592   1.845   1.541   4.719  1.0607  0.4700  0.5262
19393TIP3   OH279593   3.623   3.566  12.011  1.0044  0.2908 -0.0060
19393TIP3    H179594   3.701   3.536  12.057  0.9099 -0.2453 -0.1913
19393TIP3    H279595   3.581   3.486  11.980 -0.0230  0.5302  0.7476
19394TIP3   OH279596   2.388   3.168  16.297  0.6264 -0.4377 -0.3945
19394TIP3    H179597   2.438   3.115  16.234 -1.3744 -1.8538 -0.8473
19394TIP3    H279598   2.436   3.250  16.303  2.1626 -1.1933 -1.9626
19395TIP3   OH279599   0.752   4.866  15.887 -0.1718  1.0898 -0.8667
19395TIP3    H179600   0.721   4.925  15.818 -1.7970 -0.4010 -1.4462
19395TIP3    H279601   0.820   4.916  15.932  0.0421  2.5574 -2.7512
19396TIP3   OH279602   2.768   5.353   1.649 -0.5829  0.1873  0.1010
19396TIP3    H179603   2.811   5.382   1.568 -0.3696  0.4137  0.2932
19396TIP3    H279604   2.695   5.299   1.620 -0.4902  0.2480 -0.2433
19397TIP3   OH279605   3.536   2.021   5.569  0.0190  0.4630 -0.4117
19397TIP3    H179606   3.520   2.070   5.649  0.7795  1.1769 -0.6822
19397TIP3    H279607   3.451   2.017   5.525 -0.0945  1.3217 -0.2674
19398TIP3   OH279608   3.865   6.105  14.037 -0.5564  0.2907 -0.0131
19398TIP3    H179609   3.891   6.154  14.115  2.3178 -0.1776 -0.6380
19398TIP3    H279610   3.864   6.171  13.967  0.2749  0.0575 -0.2472
19399TIP3   OH279611   6.387   4.519  17.162 -0.4431 -0.1473 -0.1032
19399TIP3    H179612   6.348   4.574  17.094  0.8312 -0.2434 -0.9336
19399TIP3    H279613   6.439   4.579  17.215 -0.3052 -0.2930 -0.0715
19400TIP3   OH279614   6.173   4.117  11.856  0.8881  0.3746 -0.1347
19400TIP3    H179615   6.086   4.088  11.828  0.8408  0.3724  0.0179
19400TIP3    H279616   6.187   4.072  11.939  0.3414  1.6729  0.6741
19401TIP3   OH279617   1.455   4.518  13.249  0.2595  0.2468 -0.3875
19401TIP3    H179618   1.365   4.493  13.230 -0.2578  2.7900 -1.4791
19401TIP3    H279619   1.483   4.568  13.172  1.9006  1.2510  0.8163
19402TIP3   OH279620   4.936   1.544  11.480  0.3072 -0.0858  0.0711
19402TIP3    H179621   4.957   1.615  11.541  0.0907 -2.2927  2.8409
19402TIP3    H279622   5.020   1.507  11.456  0.2938 -0.7509  1.0010
19403TIP3   OH279623   6.427   6.325  14.925  0.3829 -0.1681  0.3450
19403TIP3    H179624   6.488   6.252  14.919 -0.0642 -0.4386 -1.1483
19403TIP3    H279625   6.480   6.403  14.908  0.6586 -0.2423  0.8730
19404TIP3   OH279626   0.031   0.812  15.978  0.1820  0.0467 -0.0794
19404TIP3    H179627   0.032   0.716  15.983  0.2259 -0.1498 -2.8349
19404TIP3    H279628   0.105   0.833  15.920 -0.3562  1.6802 -0.1819
19405TIP3   OH279629   6.532   2.827   2.660  0.2451 -0.7551 -0.5510
19405TIP3    H179630   6.563   2.846   2.749 -0.7558 -0.6228 -0.2136
19405TIP3    H279631   6.468   2.897   2.643 -0.6261 -1.5995 -0.8068
19406TIP3   OH279632   3.264   2.270  15.195  0.0479  0.3650 -0.1133
19406TIP3    H179633   3.289   2.266  15.103  0.1683  2.9492 -0.2245
19406TIP3    H279634   3.176   2.232  15.197  0.3650 -0.4541 -1.1410
19407TIP3   OH279635   3.187   0.245  15.137 -0.2531 -0.4088 -0.4500
19407TIP3    H179636   3.102   0.261  15.176  0.2468  0.4052  0.3093
19407TIP3    H279637   3.168   0.193  15.058 -1.5455  0.6852 -0.8760
19408TIP3   OH279638   5.198   3.937  15.294  0.0086  0.7934  0.0548
19408TIP3    H179639   5.111   3.903  15.313 -0.6199  1.8269 -0.8831
19408TIP3    H279640   5.216   3.999  15.366  0.5762 -0.4547  1.0092
19409TIP3   OH279641   1.558   1.960  14.250 -0.1856 -1.2675  0.1318
19409TIP3    H179642   1.513   1.916  14.178  1.6926 -1.0106 -1.2578
19409TIP3    H279643   1.573   1.891  14.315 -1.7241 -1.5513  0.1857
19410TIP3   OH279644   2.050   6.565  12.552  0.0312  0.2114  1.1371
19410TIP3    H179645   2.092   6.594  12.471  1.3619  0.2288  1.8187
19410TIP3    H279646   2.004   6.643  12.585 -0.1251  0.3272  0.6523
19411TIP3   OH279647   2.532   4.632   6.704 -0.2760 -0.2589  0.2478
19411TIP3    H179648   2.621   4.621   6.738 -0.1594 -0.8739 -0.2522
19411TIP3    H279649   2.475   4.605   6.777 -0.0225 -2.0928 -0.2050
19412TIP3   OH279650   6.072   4.650   2.628 -0.7007 -0.5971 -0.4132
19412TIP3    H179651   6.095   4.697   2.548 -0.5539  0.7307  0.3947
19412TIP3    H279652   6.155   4.610   2.657 -0.5898 -0.4208 -0.4860
19413TIP3   OH279653   1.839   0.583   2.679  0.4167 -0.3872 -0.1879
19413TIP3    H179654   1.930   0.608   2.663  0.6704 -0.1033  1.5155
19413TIP3    H279655   1.825   0.605   2.772 -1.6903  0.5548 -0.6886
19414TIP3   OH279656   6.397   1.649  12.944  0.2268 -0.5291  0.1042
19414TIP3    H179657   6.362   1.716  12.887 -0.4205 -0.5361  0.4875
19414TIP3    H279658   6.481   1.683  12.973  1.2192 -1.1560 -1.9840
19415TIP3   OH279659   1.507   3.593  11.221 -0.1597 -0.1637  0.1329
19415TIP3    H179660   1.494   3.499  11.233  2.4206 -0.3795  1.3346
19415TIP3    H279661   1.479   3.632  11.303 -1.9250  0.2211 -0.6246
19416TIP3   OH279662   0.435   2.260   2.291  0.3861 -0.8155 -0.1974
19416TIP3    H179663   0.530   2.256   2.289  0.3822 -0.5496 -1.4818
19416TIP3    H279664   0.415   2.353   2.307  0.3420 -0.7156 -0.8213
19417TIP3   OH279665   5.229   3.865  14.295  0.0741 -0.0567  0.3191
19417TIP3    H179666   5.185   3.902  14.372  0.5812 -1.2057  1.1778
19417TIP3    H279667   5.213   3.770  14.302  2.1734 -0.4195  0.3289
19418TIP3   OH279668   6.266   4.604  13.960  0.5387  0.1645 -0.2540
19418TIP3    H179669   6.251   4.549  13.883 -1.2135  0.1948  0.0499
19418TIP3    H279670   6.210   4.567  14.028  0.8737  1.0970  0.5514
19419TIP3   OH279671   1.929   0.240  17.165 -0.8819 -0.7471  0.4782
19419TIP3    H179672   1.923   0.209  17.255  0.3200 -0.7550  0.5658
19419TIP3    H279673   1.974   0.324  17.172 -0.2980 -0.9983 -0.1481
19420TIP3   OH279674   2.823   5.107   2.584  0.1943 -0.2052 -0.4567
19420TIP3    H179675   2.754   5.162   2.621 -0.2183 -2.4797  2.3070
19420TIP3    H279676   2.882   5.169   2.541 -1.6934  2.1103  0.1741
19421TIP3   OH279677   2.083   4.125  15.785 -0.1847  0.9864  0.2961
19421TIP3    H179678   2.162   4.177  15.804  0.8782 -1.2397  2.2256
19421TIP3    H279679   2.011   4.179  15.818  0.8581  1.4532  1.8814
19422TIP3   OH279680   0.439   0.520  11.653 -0.1970  0.1721 -0.0900
19422TIP3    H179681   0.499   0.531  11.579  0.6875 -3.5816 -0.0055
19422TIP3    H279682   0.495   0.517  11.729 -0.6392 -1.5571  0.1757
19423TIP3   OH279683   4.201   6.150  14.135 -0.2728 -0.7831  0.6425
19423TIP3    H179684   4.197   6.181  14.044  0.6289 -1.3610  0.3964
19423TIP3    H279685   4.139   6.206  14.182  0.7042  0.8485  0.0484
19424TIP3   OH279686   4.732   3.963   1.251 -0.1555 -0.1530  0.2059
19424TIP3    H179687   4.673   3.966   1.176  0.6604  1.7723 -0.3810
19424TIP3    H279688   4.675   3.977   1.327 -0.7731 -0.7143 -0.1412
19425TIP3   OH279689   6.696   0.594  12.945  0.2456  0.0973  1.1963
19425TIP3    H179690   6.761   0.572  13.011  0.7484  0.4259  0.8072
19425TIP3    H279691   6.742   0.583  12.861  0.1283  1.4072  0.9557
19426TIP3   OH279692   1.512   5.296   3.683  0.2001 -0.1366 -0.3389
19426TIP3    H179693   1.452   5.229   3.715 -0.1160  0.0080 -0.6268
19426TIP3    H279694   1.491   5.374   3.733 -1.3793  0.5324 -1.9716
19427TIP3   OH279695   5.293   5.679  11.137 -0.0096  0.6109  0.0673
19427TIP3    H179696   5.364   5.639  11.087  1.3612  1.6019  1.1969
19427TIP3    H279697   5.310   5.773  11.132 -2.4711  1.0267 -1.4797
19428TIP3   OH279698   2.218   6.014   4.386  0.2130  0.4146 -0.0081
19428TIP3    H179699   2.194   5.964   4.464  0.4182  0.1482 -0.1142
19428TIP3    H279700   2.286   6.074   4.416  2.3356 -1.6404 -0.5885
19429TIP3   OH279701   6.441   2.925  10.906 -0.3838  0.2694 -0.2774
19429TIP3    H179702   6.470   2.861  10.842  0.3810 -1.5081  1.7925
19429TIP3    H279703   6.417   3.002  10.854  3.8742  0.2786 -2.4451
19430TIP3   OH279704   6.532   4.969  11.591  0.3669 -0.1277 -0.0951
19430TIP3    H179705   6.504   5.014  11.671  0.0719  0.2841 -0.4276
19430TIP3    H279706   6.553   4.880  11.620 -0.8385 -0.3119  0.2450
19431TIP3   OH279707   6.467   3.003   1.195 -0.2944 -0.1420  0.2156
19431TIP3    H179708   6.475   2.955   1.112 -1.2077  0.5694 -0.2858
19431TIP3    H279709   6.538   2.968   1.249 -0.6099 -1.6779 -0.3279
19432TIP3   OH279710   4.469   3.776   1.338  0.7235  0.3868 -0.5225
19432TIP3    H179711   4.510   3.829   1.406  1.5209 -1.8032  0.7548
19432TIP3    H279712   4.417   3.838   1.287  0.9377  2.2342  1.4447
19433TIP3   OH279713   5.235   1.761  12.223 -0.5043  0.1879 -0.2471
19433TIP3    H179714   5.262   1.741  12.313  0.5098  0.2153 -0.5387
19433TIP3    H279715   5.211   1.854  12.226 -0.5411  0.1712  0.0052
19434TIP3   OH279716   3.375   2.087  15.543 -0.3295 -0.6959 -0.1204
19434TIP3    H179717   3.447   2.059  15.599 -1.1734  0.9060  1.8079
19434TIP3    H279718   3.369   2.019  15.476  2.1494 -1.4941  0.4134
19435TIP3   OH279719   1.942   0.868   5.716 -0.1354  0.2633  0.2209
19435TIP3    H179720   2.035   0.849   5.699 -0.5794 -1.0073 -0.8811
19435TIP3    H279721   1.940   0.901   5.806  1.3527  0.0564  0.3404
19436TIP3   OH279722   3.869   2.298   0.142 -0.1792  0.4810  0.8215
19436TIP3    H179723   3.914   2.314   0.059  2.2518  0.0443  2.0207
19436TIP3    H279724   3.791   2.354   0.137 -0.8570 -0.6106 -2.3305
19437TIP3   OH279725   1.461   5.329  10.994  0.0903 -0.3570 -0.0926
19437TIP3    H179726   1.442   5.419  11.021  0.1448 -0.1683 -0.6932
19437TIP3    H279727   1.404   5.276  11.050 -0.2603  0.0677 -0.0386
19438TIP3   OH279728   2.425   0.382  13.737  0.0221  0.0325  0.3504
19438TIP3    H179729   2.375   0.302  13.753  0.4112 -0.5209 -1.1562
19438TIP3    H279730   2.386   0.420  13.659  0.7281  0.5860  0.2560
19439TIP3   OH279731   5.996   0.653  16.404  0.3257 -0.5320  0.1639
19439TIP3    H179732   5.929   0.718  16.424  1.9509  0.7699  1.5068
19439TIP3    H279733   6.007   0.603  16.484  1.1628 -0.5460  0.0490
19440TIP3   OH279734   5.801   6.137   3.652  0.2158 -0.0543 -0.4623
19440TIP3    H179735   5.770   6.184   3.729  0.3927  0.1464 -0.5122
19440TIP3    H279736   5.839   6.056   3.686  2.4719  1.1078 -0.1088
19441TIP3   OH279737   1.226   5.088  16.998  0.6548 -0.2133 -0.1262
19441TIP3    H179738   1.281   5.044  17.064 -0.3068  1.2273  1.6576
19441TIP3    H279739   1.149   5.031  16.989  0.4587 -0.0413  0.4991
19442TIP3   OH279740   1.238   4.396   2.228 -0.4364 -0.5651  0.5551
19442TIP3    H179741   1.270   4.388   2.138 -1.4268 -0.5588  0.2004
19442TIP3    H279742   1.176   4.469   2.225 -1.2990 -1.2728  1.0091
19443TIP3   OH279743   0.200   1.427  11.650 -0.7680  0.4213  0.1203
19443TIP3    H179744   0.109   1.415  11.679 -1.4579  4.3205 -0.2728
19443TIP3    H279745   0.252   1.404  11.726 -2.1711  0.5527  1.1450
19444TIP3   OH279746   4.435   6.416  17.136 -0.3113 -0.1011 -0.2206
19444TIP3    H179747   4.466   6.451  17.220 -1.1113  0.0196  0.0313
19444TIP3    H279748   4.346   6.386  17.155 -0.8365  0.7633 -1.2428
19445TIP3   OH279749   2.152   2.275  15.356  0.0112  0.0463 -0.5240
19445TIP3    H179750   2.211   2.203  15.378 -0.3806  0.5585  2.3091
19445TIP3    H279751   2.208   2.352  15.351 -0.1767  0.2649  0.6412
19446TIP3   OH279752   0.374   4.979   5.241  0.1798 -0.3034 -0.1346
19446TIP3    H179753   0.278   4.986   5.246  0.0191 -2.9186  1.3967
19446TIP3    H279754   0.392   4.963   5.149 -0.8581  0.3512 -0.4580
19447TIP3   OH279755   5.515   1.833  13.873  0.0787  0.6460  0.3839
19447TIP3    H179756   5.566   1.753  13.887 -0.8710 -0.1362 -0.5304
19447TIP3    H279757   5.424   1.802  13.867 -0.2262  1.7120 -0.6273
19448TIP3   OH279758   4.225   5.870   1.956  0.0193 -0.0743 -0.5649
19448TIP3    H179759   4.276   5.841   2.031 -0.4976 -0.0048 -0.1826
19448TIP3    H279760   4.252   5.961   1.941 -1.4097  0.6115  0.8691
19449TIP3   OH279761   5.810   5.505   5.590 -0.0020  0.4746  0.4270
19449TIP3    H179762   5.857   5.557   5.526  0.5206  1.4070  1.5527
19449TIP3    H279763   5.733   5.557   5.612 -0.6565 -0.2559 -0.1158
19450TIP3   OH279764   6.135   6.116   4.735 -0.1370 -0.2780 -0.2534
19450TIP3    H179765   6.137   6.124   4.831  1.2808 -1.3559 -0.1774
19450TIP3    H279766   6.075   6.044   4.718 -0.8015  0.2612 -0.2046
19451TIP3   OH279767   5.155   6.053  12.262  0.7274 -0.0983 -0.1355
19451TIP3    H179768   5.115   6.002  12.192  1.5604  0.9897 -1.4140
19451TIP3    H279769   5.228   6.100  12.220 -0.2639  2.4628  0.9085
19452TIP3   OH279770   5.434   3.227  15.996  0.1675 -0.7636 -0.0905
19452TIP3    H179771   5.343   3.215  15.971 -0.0282 -0.6268  0.5435
19452TIP3    H279772   5.435   3.213  16.091  0.5274  0.7706  0.1418
19453TIP3   OH279773   2.158   6.702   4.263 -0.6585 -0.9337 -0.1843
19453TIP3    H179774   2.236   6.748   4.293 -0.9032  0.1270 -1.1428
19453TIP3    H279775   2.170   6.612   4.292 -0.3132 -0.2091  1.9967
19454TIP3   OH279776   4.590   4.992   1.182 -0.3718 -0.1004 -0.1264
19454TIP3    H179777   4.562   4.915   1.133 -0.3285  0.1054 -0.4815
19454TIP3    H279778   4.514   5.050   1.180 -0.1667  0.1617 -0.4770
19455TIP3   OH279779   0.426   6.744  11.149 -0.1373 -0.9918  0.3882
19455TIP3    H179780   0.485   6.682  11.106  0.3506 -0.0582 -0.3135
19455TIP3    H279781   0.453   6.743  11.241  0.2913 -1.3339  0.2594
19456TIP3   OH279782   3.855   6.642  16.935 -0.1725  0.2451  0.3572
19456TIP3    H179783   3.934   6.592  16.952 -0.5984 -0.6344 -0.1810
19456TIP3    H279784   3.863   6.720  16.989  0.7427 -0.1654  0.8188
19457TIP3   OH279785   6.095   6.357   4.288  0.2562  0.6711  0.3417
19457TIP3    H179786   6.129   6.279   4.332 -0.3432 -0.6290 -1.4174
19457TIP3    H279787   6.001   6.353   4.301  0.1338  0.6042 -0.5140
19458TIP3   OH279788   5.515   5.081  12.721 -0.5570 -0.0875 -0.0325
19458TIP3    H179789   5.516   5.061  12.627  2.8254 -0.5172  0.0313
19458TIP3    H279790   5.545   5.171  12.727 -1.1842  0.0849  0.6440
19459TIP3   OH279791   3.614   0.028   2.893 -0.1560 -0.5315 -0.5945
19459TIP3    H179792   3.580   0.019   2.804  0.9784  2.0408 -1.3401
19459TIP3    H279793   3.636   0.120   2.900 -0.8404 -0.5790  2.6149
19460TIP3   OH279794   1.163   1.907   3.876  0.5210 -0.3625  0.2258
19460TIP3    H179795   1.175   1.909   3.971  1.8227 -0.3386  0.0696
19460TIP3    H279796   1.096   1.973   3.860 -0.0815 -0.7272  1.1806
19461TIP3   OH279797   3.686   2.930   1.220  0.0698  0.8036  0.6164
19461TIP3    H179798   3.594   2.949   1.239  0.1812  0.7174  1.2641
19461TIP3    H279799   3.731   3.013   1.234  0.1808  0.6932  0.9263
19462TIP3   OH279800   3.580   3.947  15.796 -0.1523  0.6644 -0.2028
19462TIP3    H179801   3.537   3.970  15.713 -0.1180  1.8220  0.0857
19462TIP3    H279802   3.615   4.030  15.828  2.2604 -0.2129 -0.4056
19463TIP3   OH279803   0.556   4.489   1.548  0.4889 -0.3620  0.2334
19463TIP3    H179804   0.622   4.509   1.614  0.5231  0.5029 -0.0448
19463TIP3    H279805   0.531   4.575   1.513 -1.3461 -0.6063  0.8673
19464TIP3   OH279806   4.535   1.229   5.193  0.0750 -0.7583  0.1436
19464TIP3    H179807   4.543   1.261   5.283  1.6998 -1.2977  0.1966
19464TIP3    H279808   4.532   1.309   5.140  1.8423 -0.4496  0.4677
19465TIP3   OH279809   4.877   1.590   2.945 -0.0115 -0.0356  0.4128
19465TIP3    H179810   4.843   1.506   2.912  0.7559 -1.1903  2.4582
19465TIP3    H279811   4.958   1.603   2.897 -0.6446  0.0359 -0.6422
19466TIP3   OH279812   3.568   2.009  13.389  0.0866  0.4660  0.5568
19466TIP3    H179813   3.599   2.100  13.391  1.2680  0.1331 -1.6361
19466TIP3    H279814   3.477   2.016  13.361  0.2248  0.9498  0.2283
19467TIP3   OH279815   3.261   4.682  16.466  0.3839  0.0772  0.6238
19467TIP3    H179816   3.237   4.757  16.410  0.1801 -0.7385 -0.4114
19467TIP3    H279817   3.288   4.614  16.404  2.2887 -0.1192  1.6340
19468TIP3   OH279818   6.461   2.916   3.230 -0.0267 -0.5790 -0.4473
19468TIP3    H179819   6.518   2.858   3.282 -1.4415 -1.6263 -0.0470
19468TIP3    H279820   6.449   2.869   3.147 -2.1137 -1.4350  0.3062
19469TIP3   OH279821   0.849   5.759   5.702 -0.0444 -0.1930  0.2783
19469TIP3    H179822   0.935   5.795   5.726  0.5508 -0.2619 -1.7003
19469TIP3    H279823   0.826   5.802   5.620 -1.8568 -0.2781  0.7221
19470TIP3   OH279824   3.297   5.194   4.628  0.2909 -0.3756 -0.4443
19470TIP3    H179825   3.357   5.268   4.632  1.8878 -1.4086 -3.5416
19470TIP3    H279826   3.224   5.224   4.574 -0.4311 -0.1853  0.6172
19471TIP3   OH279827   5.712   3.547   4.129 -0.2846  0.1452  0.2179
19471TIP3    H179828   5.664   3.530   4.048 -0.4098 -2.1338  0.7314
19471TIP3    H279829   5.643   3.552   4.196  0.1118 -4.6999  1.2219
19472TIP3   OH279830   0.754   3.768   2.828 -0.6267 -0.0244 -0.0200
19472TIP3    H179831   0.738   3.678   2.798 -2.0764  0.4852 -0.8249
19472TIP3    H279832   0.782   3.759   2.919  1.8958 -1.4734 -0.8781
19473TIP3   OH279833   5.152   0.495   1.631 -0.6663  0.1877  0.1785
19473TIP3    H179834   5.213   0.447   1.686 -1.8743 -0.1108  1.2875
19473TIP3    H279835   5.116   0.563   1.689  1.4802  2.8441 -1.5295
19474TIP3   OH279836   1.003   2.255  11.846 -0.6174 -0.2729 -0.0548
19474TIP3    H179837   1.098   2.244  11.846 -0.9272 -3.3974  0.3197
19474TIP3    H279838   0.973   2.206  11.922 -2.6396 -0.3784 -0.8902
19475TIP3   OH279839   4.983   0.250   1.616 -0.3018  0.5660 -0.5864
19475TIP3    H179840   4.981   0.345   1.625 -1.2714  0.4750  0.1266
19475TIP3    H279841   5.055   0.222   1.673 -1.6462  0.6503  1.1835
19476TIP3   OH279842   3.921   1.657   3.962 -0.0315 -0.7220 -0.1410
19476TIP3    H179843   3.921   1.561   3.961  3.3280 -0.7856 -0.5210
19476TIP3    H279844   3.944   1.682   3.873 -0.8504  0.4526 -0.0302
19477TIP3   OH279845   6.294   6.589  14.306 -0.2078 -0.0820  0.2937
19477TIP3    H179846   6.329   6.678  14.318 -0.8525  0.4008 -1.2023
19477TIP3    H279847   6.269   6.561  14.394  0.8938  0.8460  0.9195
19478TIP3   OH279848   4.059   4.723  15.485  0.0618  0.2391  0.1808
19478TIP3    H179849   4.106   4.645  15.515  0.1551 -0.2571 -1.2340
19478TIP3    H279850   4.096   4.742  15.399 -1.3635  0.6599 -0.3518
19479TIP3   OH279851   4.635   2.612  12.971  0.3672 -0.3223  0.3999
19479TIP3    H179852   4.613   2.584  13.060 -1.5155  1.5169  0.5474
19479TIP3    H279853   4.730   2.627  12.973  0.8675 -3.2695  1.2233
19480TIP3   OH279854   2.073   3.249   5.595 -0.1268 -0.0136 -0.3958
19480TIP3    H179855   2.116   3.186   5.652  0.9734  1.3349  0.2990
19480TIP3    H279856   1.991   3.207   5.570 -0.0179 -1.1669  1.1148
19481TIP3   OH279857   1.815   6.531   3.435 -0.5364 -0.0604 -0.2849
19481TIP3    H179858   1.723   6.552   3.446 -0.7725 -1.2183  0.0154
19481TIP3    H279859   1.826   6.447   3.479  0.9137  0.6356  0.7150
19482TIP3   OH279860   4.389   0.236   2.122 -0.0111 -0.0678 -0.0233
19482TIP3    H179861   4.416   0.323   2.094 -0.2100 -0.3831 -1.2280
19482TIP3    H279862   4.328   0.251   2.194  1.3140  0.7273  0.9464
19483TIP3   OH279863   4.527   3.297  15.415 -0.1669  0.3399  0.2742
19483TIP3    H179864   4.462   3.228  15.427 -0.1934  0.2040 -0.5925
19483TIP3    H279865   4.555   3.321  15.503  0.0423 -0.9780  0.5649
19484TIP3   OH279866   1.216   4.076  16.558 -0.5464  0.2803 -0.0071
19484TIP3    H179867   1.311   4.066  16.556 -0.7563 -2.1789 -0.1833
19484TIP3    H279868   1.198   4.156  16.510  1.4689  1.0197  0.4474
19485TIP3   OH279869   5.054   1.420   2.033 -0.0086 -0.6216 -0.0456
19485TIP3    H179870   5.011   1.368   1.966  1.3010  0.0825 -1.4617
19485TIP3    H279871   5.137   1.375   2.049  1.4599  1.3562 -1.7977
19486TIP3   OH279872   5.715   5.971   2.303 -0.3467  0.3150 -0.0035
19486TIP3    H179873   5.688   5.971   2.395  1.5558  1.6071  0.5897
19486TIP3    H279874   5.670   6.047   2.265 -0.5842  0.1926  0.0332
19487TIP3   OH279875   5.770   4.848   3.540  0.1197 -0.0909 -0.2502
19487TIP3    H179876   5.852   4.890   3.512 -0.5743  2.2333  1.0652
19487TIP3    H279877   5.794   4.757   3.555  2.3703  0.4554 -0.3364
19488TIP3   OH279878   2.506   2.071  13.923 -0.1440  0.1323 -0.2508
19488TIP3    H179879   2.599   2.075  13.945  0.0138 -0.6959 -0.7509
19488TIP3    H279880   2.478   2.162  13.920  0.5968  0.3779  0.1191
19489TIP3   OH279881   4.905   2.434  17.056 -0.6919 -0.0876  0.0224
19489TIP3    H179882   4.974   2.395  17.002 -0.5895  0.1964 -0.0505
19489TIP3    H279883   4.889   2.369  17.125 -0.0718  0.0335  0.2740
19490TIP3   OH279884   2.413   0.004   1.989 -0.4705  0.2647  0.0183
19490TIP3    H179885   2.328   0.032   1.956 -0.2417 -0.3874 -1.1728
19490TIP3    H279886   2.458   0.086   2.011 -1.3401  0.6152  0.5004
19491TIP3   OH279887   3.816   5.410  12.324 -0.1295  0.0368 -0.2518
19491TIP3    H179888   3.847   5.338  12.379 -0.0621  0.8500  0.7929
19491TIP3    H279889   3.761   5.462  12.382  0.3181  1.1626 -0.8321
19492TIP3   OH279890   0.291   3.497  14.567  0.2341  0.4339 -0.2891
19492TIP3    H179891   0.245   3.533  14.492 -1.2416  1.7393  1.2075
19492TIP3    H279892   0.226   3.442  14.611  0.7839  0.4456  0.5548
19493TIP3   OH279893   3.443   2.597  16.572 -0.0577  0.0923  0.4213
19493TIP3    H179894   3.478   2.630  16.655  1.6391  0.5992 -0.4692
19493TIP3    H279895   3.466   2.664  16.508  0.5535 -1.2922 -0.8368
19494TIP3   OH279896   5.250   0.514   1.365  0.6016  0.5628 -0.4201
19494TIP3    H179897   5.192   0.513   1.441  0.3157 -2.1466 -0.6247
19494TIP3    H279898   5.307   0.439   1.378  0.9401  0.4276 -2.5979
19495TIP3   OH279899   6.669   5.909  16.499  0.2670  0.0530  0.3047
19495TIP3    H179900   6.732   5.846  16.535 -1.1016 -0.5231  1.7699
19495TIP3    H279901   6.584   5.865  16.508 -0.6018  1.7241  0.4498
19496TIP3   OH279902   6.604   4.104  14.548  0.0689  0.2142  0.0459
19496TIP3    H179903   6.616   4.164  14.622 -1.8125  0.8758 -0.1678
19496TIP3    H279904   6.667   4.133  14.482  0.0036  1.1952  0.4158
19497TIP3   OH279905   1.223   5.718   4.620  0.2352  0.6816  0.0384
19497TIP3    H179906   1.281   5.696   4.547  0.0868  1.1147 -0.2136
19497TIP3    H279907   1.150   5.657   4.612  0.4861  0.3649  0.1494
19498TIP3   OH279908   0.323   3.989   1.709  0.6387  0.3286  0.2432
19498TIP3    H179909   0.306   4.082   1.716 -1.2481  0.1779 -1.6220
19498TIP3    H279910   0.245   3.947   1.746  2.4862 -0.5671  3.2602
19499TIP3   OH279911   5.139   3.216  15.976  0.1390 -0.2813  0.4819
19499TIP3    H179912   5.126   3.311  15.972 -0.4579 -0.4217 -1.4614
19499TIP3    H279913   5.128   3.187  15.886  0.1880 -2.2292  1.0867
19500TIP3   OH279914   0.057   0.613  14.201 -0.1925 -0.3685 -0.1892
19500TIP3    H179915   0.091   0.688  14.152 -1.0001  0.3274  0.3149
19500TIP3    H279916   0.076   0.537  14.144  0.2190  0.2624 -0.8985
19501TIP3   OH279917   5.717   2.104   3.355 -0.5140  0.0233 -0.2305
19501TIP3    H179918   5.714   2.096   3.260  1.6882 -1.7946 -0.1731
19501TIP3    H279919   5.643   2.052   3.386 -0.7978  0.0244 -0.8942
19502TIP3   OH279920   4.287   1.102   3.408 -0.4481 -1.0048 -0.0844
19502TIP3    H179921   4.314   1.012   3.424  0.0019 -0.4408  2.6867
19502TIP3    H279922   4.368   1.148   3.385  0.3679 -0.2131  3.9834
19503TIP3   OH279923   0.299   1.100  14.795  0.7369 -0.2052  0.2919
19503TIP3    H179924   0.205   1.117  14.797  0.7077 -0.3957  0.4885
19503TIP3    H279925   0.313   1.053  14.713  0.7795  0.5216 -0.1261
19504TIP3   OH279926   2.808   1.011   0.968 -0.6784  0.1218  0.1659
19504TIP3    H179927   2.760   1.007   1.050  2.1673 -0.5083  1.9042
19504TIP3    H279928   2.811   1.104   0.945 -1.9657  0.2388  0.4630
19505TIP3   OH279929   6.150   6.292  17.057  0.4107  0.1478  0.7609
19505TIP3    H179930   6.080   6.346  17.020 -0.1325  0.4064  2.1398
19505TIP3    H279931   6.229   6.318  17.008 -0.0757  1.3049  0.5725
19506TIP3   OH279932   6.524   6.048  13.303  0.8396  0.1619 -0.1669
19506TIP3    H179933   6.479   5.964  13.311  2.4133 -0.7854 -1.1353
19506TIP3    H279934   6.549   6.070  13.392 -2.1851  1.0984  0.5195
19507TIP3   OH279935   2.390   0.903  12.196 -0.2337  0.3683 -0.3697
19507TIP3    H179936   2.362   0.814  12.214  0.4671 -0.1180 -1.5767
19507TIP3    H279937   2.464   0.893  12.136 -0.8950  1.7972 -1.4636
19508TIP3   OH279938   4.994   5.379  15.505 -0.1556  0.1307  0.1453
19508TIP3    H179939   5.026   5.464  15.474 -2.0710  0.4453 -1.0274
19508TIP3    H279940   4.920   5.400  15.562 -1.5112 -0.7831 -1.2314
19509TIP3   OH279941   2.071   1.055   1.057 -0.1062 -0.2688 -0.0653
19509TIP3    H179942   1.998   1.003   1.091 -1.4094  1.3308 -0.3778
19509TIP3    H279943   2.077   1.031   0.965  0.8285 -1.6069  0.3297
19510TIP3   OH279944   6.400   6.289  12.327 -0.1822  0.3205  0.0691
19510TIP3    H179945   6.393   6.373  12.373 -1.9374 -0.0490  0.5371
19510TIP3    H279946   6.316   6.279  12.282 -0.4399 -1.6866  0.9211
19511TIP3   OH279947   5.876   6.653   5.312 -0.2936  0.3286  0.1982
19511TIP3    H179948   5.898   6.647   5.220 -0.4648  0.2403  0.1618
19511TIP3    H279949   5.781   6.639   5.315 -0.1274 -0.7576  0.4909
19512TIP3   OH279950   2.501   6.344  13.786 -0.6976  0.5487 -0.4782
19512TIP3    H179951   2.485   6.254  13.759  1.9504 -0.5441  1.4313
19512TIP3    H279952   2.523   6.338  13.879  0.5624  3.0321 -0.5700
19513TIP3   OH279953   5.448   4.417  15.326 -0.2630 -0.6286 -0.1259
19513TIP3    H179954   5.485   4.402  15.238  0.3914  1.3318 -0.2031
19513TIP3    H279955   5.476   4.505  15.349 -1.3482 -0.7218  1.6234
19514TIP3   OH279956   4.224   4.520  10.883  0.0039  0.6795  0.7336
19514TIP3    H179957   4.190   4.465  10.953 -0.1472 -2.6793 -1.8603
19514TIP3    H279958   4.146   4.546  10.833  0.2518  1.8761  0.9479
19515TIP3   OH279959   5.009   6.185   6.258 -0.0349  0.1128 -0.0203
19515TIP3    H179960   4.977   6.274   6.249  1.0008  0.5877  0.9154
19515TIP3    H279961   4.936   6.136   6.295 -0.3542  0.7296  0.1585
19516TIP3   OH279962   0.840   5.500   4.374  0.6629 -0.6608  0.4926
19516TIP3    H179963   0.755   5.531   4.405  0.2478 -0.6517 -0.6294
19516TIP3    H279964   0.822   5.462   4.289  1.7786 -0.7341  0.2780
19517TIP3   OH279965   5.660   4.368  11.789  0.2459  0.4723 -0.1094
19517TIP3    H179966   5.608   4.315  11.729 -0.5255  1.4268 -0.2930
19517TIP3    H279967   5.734   4.312  11.813 -0.7377 -0.8101 -0.0290
19518TIP3   OH279968   6.286   0.892   0.028  0.3843 -0.1422 -0.7761
19518TIP3    H179969   6.345   0.822   0.057 -0.4086  0.1189  1.5445
19518TIP3    H279970   6.327   0.972   0.059 -0.6601  0.1203 -0.0696
19519TIP3   OH279971   0.577   4.701  13.299 -0.1201  0.5692  0.1811
19519TIP3    H179972   0.554   4.640  13.369 -2.9619  2.1793  0.7339
19519TIP3    H279973   0.624   4.772  13.344  2.8659 -0.9678 -0.4094
19520TIP3   OH279974   0.764   5.421   2.715 -0.5055 -0.1876  0.4749
19520TIP3    H179975   0.731   5.491   2.658 -1.8777  0.2909  1.8380
19520TIP3    H279976   0.709   5.346   2.693 -0.8537 -0.0780  0.9782
19521TIP3   OH279977   5.207   1.945  13.665  0.7613  0.2534 -1.0226
19521TIP3    H179978   5.141   1.879  13.643  0.5178  0.1460 -0.0234
19521TIP3    H279979   5.159   2.027  13.668  0.5515  0.1008  0.2184
19522TIP3   OH279980   3.187   2.009   1.718  0.3933 -0.1335  0.0421
19522TIP3    H179981   3.228   2.091   1.690  1.9345 -1.2046 -0.8888
19522TIP3    H279982   3.198   2.007   1.813  0.3633  0.7220  0.0696
19523TIP3   OH279983   3.227   4.403   5.558  0.5585  0.1956 -0.1880
19523TIP3    H179984   3.169   4.349   5.504 -1.1203  1.2861  0.4644
19523TIP3    H279985   3.301   4.424   5.501 -0.8239  0.7150 -1.8142
19524TIP3   OH279986   3.256   4.418  17.054  0.3249  0.2766  0.3854
19524TIP3    H179987   3.243   4.349  17.119  0.8812  0.3257  0.5504
19524TIP3    H279988   3.218   4.496  17.094  0.3778  0.2342  0.5160
19525TIP3   OH279989   2.020   1.844   3.382 -0.2609 -0.6470  0.0352
19525TIP3    H179990   1.997   1.908   3.450 -2.3284 -2.0178  0.6611
19525TIP3    H279991   2.114   1.857   3.368 -0.2870  1.3081  1.4112
19526TIP3   OH279992   5.604   6.531  15.193 -0.6900  0.0440 -0.8279
19526TIP3    H179993   5.685   6.542  15.243 -0.2848  0.9455 -1.6775
19526TIP3    H279994   5.549   6.476  15.250 -0.5786  1.7461  0.9732
19527TIP3   OH279995   6.275   1.127   3.428 -0.5011 -0.5824  0.9963
19527TIP3    H179996   6.344   1.094   3.486 -0.4386 -1.4962  0.4098
19527TIP3    H279997   6.257   1.054   3.369 -1.3683 -0.0458  0.5958
19528TIP3   OH279998   1.202   6.684  12.952  0.1649  0.3102 -0.2677
19528TIP3    H179999   1.171   6.599  12.922  0.5361  0.0736  0.0100
19528TIP3    H280000   1.180   6.687  13.045 -0.7413  0.9311 -0.4984
19529TIP3   OH280001   6.235   2.653   1.427  0.4339 -0.2195 -0.0891
19529TIP3    H180002   6.264   2.637   1.337  3.3559 -0.4045  0.8231
19529TIP3    H280003   6.314   2.639   1.480 -0.7015  2.0622  2.2915
19530TIP3   OH280004   0.426   6.291  14.166 -0.1807 -0.2010  0.2128
19530TIP3    H180005   0.489   6.362  14.161 -0.3971 -0.0536 -0.4960
19530TIP3    H280006   0.387   6.299  14.253  0.4512 -0.0196  0.4790
19531TIP3   OH280007   3.817   0.204   2.519  0.4006  0.2634  0.0274
19531TIP3    H180008   3.772   0.121   2.534 -0.8956  0.2721 -3.2486
19531TIP3    H280009   3.872   0.217   2.596 -1.9082 -1.9524  2.1234
19532TIP3   OH280010   3.296   5.643   0.989  0.8617 -0.0935 -0.0743
19532TIP3    H180011   3.237   5.677   0.922  1.9200  0.0401 -0.9578
19532TIP3    H280012   3.273   5.551   0.998 -0.0896  0.1662  0.2597
19533TIP3   OH280013   6.348   1.721  16.993 -0.4730  0.7671 -0.1546
19533TIP3    H180014   6.337   1.628  16.977 -0.6156  0.9297 -1.0508
19533TIP3    H280015   6.426   1.728  17.048  0.0871  0.1855 -0.8731
19534TIP3   OH280016   6.653   5.481  14.927  0.3668  0.5117  0.0830
19534TIP3    H180017   6.706   5.459  15.004  0.5208  1.4481  0.2491
19534TIP3    H280018   6.563   5.472  14.956  0.4237  1.3104  0.5050
19535TIP3   OH280019   6.278   1.305   4.949  0.1814  0.5555 -0.1192
19535TIP3    H180020   6.307   1.256   5.026 -0.4007  0.4000  0.0040
19535TIP3    H280021   6.187   1.277   4.935  0.0539  1.1101 -0.4396
19536TIP3   OH280022   2.232   2.617  14.023 -0.0626  0.1866 -0.0153
19536TIP3    H180023   2.227   2.628  13.928 -1.9836  3.1192  0.3592
19536TIP3    H280024   2.141   2.612  14.052  0.4165  1.6066  1.8595
19537TIP3   OH280025   0.533   6.324  12.542 -0.5581  0.4628 -0.1603
19537TIP3    H180026   0.544   6.277  12.625 -0.8514  0.3612 -0.1759
19537TIP3    H280027   0.440   6.350  12.542  0.0835  2.8550  0.8165
19538TIP3   OH280028   3.773   3.243   4.668  0.3762  0.7220 -0.2510
19538TIP3    H180029   3.684   3.208   4.659  0.8118 -1.1338  2.1867
19538TIP3    H280030   3.782   3.260   4.761  2.8757  0.0708 -0.3585
19539TIP3   OH280031   0.001   1.748  15.418 -0.0094  0.3456  0.0504
19539TIP3    H180032  -0.051   1.816  15.375 -0.9250  0.1833  0.9037
19539TIP3    H280033  -0.044   1.731  15.501  1.6046  0.4641  0.9707
19540TIP3   OH280034   2.904   6.646  13.823  0.1441 -1.1080  0.3364
19540TIP3    H180035   2.845   6.641  13.899 -1.4018 -3.1236 -0.9464
19540TIP3    H280036   2.857   6.700  13.760  1.2982  0.3101  0.6550
19541TIP3   OH280037   1.644   0.250   6.068  0.4516 -0.0176  0.2556
19541TIP3    H180038   1.634   0.157   6.053  3.7575 -0.5428  0.8801
19541TIP3    H280039   1.704   0.280   6.000  1.7937  1.0286  1.8480
19542TIP3   OH280040   3.772   5.091   3.857 -0.2234  0.2336 -0.0107
19542TIP3    H180041   3.699   5.128   3.807 -0.1887 -0.0651 -0.2845
19542TIP3    H280042   3.826   5.167   3.879 -0.3002  0.3851 -0.3297
19543TIP3   OH280043   3.704   6.686  13.657 -0.0238  0.0304 -0.3197
19543TIP3    H180044   3.664   6.600  13.670 -0.0604  0.0767 -0.1242
19543TIP3    H280045   3.741   6.709  13.742 -2.3171  1.3825  0.3558
19544TIP3   OH280046   4.127   4.637   5.631  0.3848 -0.5037  0.3817
19544TIP3    H180047   4.065   4.696   5.589 -0.1554 -0.5526  1.0897
19544TIP3    H280048   4.092   4.550   5.616  0.7968 -0.5985 -0.0428
19545TIP3   OH280049   2.195   5.245   3.305  0.3671  0.2019 -0.2441
19545TIP3    H180050   2.146   5.290   3.374  0.7405  0.7080 -0.2983
19545TIP3    H280051   2.286   5.251   3.333  0.6621  1.5825 -1.4228
19546TIP3   OH280052   4.554   4.612   0.847  0.3400  0.0911 -0.4431
19546TIP3    H180053   4.521   4.692   0.887  0.9464 -0.9629  2.2800
19546TIP3    H280054   4.649   4.620   0.851  0.4071 -0.6482 -0.3570
19547TIP3   OH280055   6.449   2.437   0.601 -0.1783  0.5905  0.4870
19547TIP3    H180056   6.447   2.463   0.693  1.1922 -0.0952  0.7236
19547TIP3    H280057   6.432   2.343   0.602 -1.6876  0.8370 -0.0959
19548TIP3   OH280058   2.400   1.704  12.003  0.2372 -0.8407  0.2027
19548TIP3    H180059   2.352   1.763  12.061  1.5994 -0.5439  1.0502
19548TIP3    H280060   2.348   1.702  11.923  0.3696  1.8432  0.0092
19549TIP3   OH280061   4.995   3.930  12.818  0.1763 -0.3463 -0.0297
19549TIP3    H180062   5.024   3.927  12.727 -0.5177  0.0792 -0.2606
19549TIP3    H280063   4.922   3.991  12.819  0.2393 -0.2731  0.8325
19550TIP3   OH280064   3.764   4.927   5.314  0.7771 -0.5218  0.8966
19550TIP3    H180065   3.834   4.867   5.288  1.6669  1.1113 -0.5368
19550TIP3    H280066   3.801   4.974   5.389  1.2677  0.4167  0.0718
19551TIP3   OH280067   5.726   3.168  12.682 -0.2037 -0.1580 -0.0587
19551TIP3    H180068   5.713   3.109  12.608  2.2704  0.1521 -0.7865
19551TIP3    H280069   5.799   3.130  12.731 -1.1184  0.2194  1.6375
19552TIP3   OH280070   5.832   0.745   6.438  0.4655  0.1448  0.0516
19552TIP3    H180071   5.865   0.709   6.520 -0.6474  0.8575  0.8418
19552TIP3    H280072   5.905   0.794   6.402  0.5969  0.8967  1.2857
19553TIP3   OH280073   1.229   0.452   4.859  1.1093 -0.2392  0.2085
19553TIP3    H180074   1.254   0.446   4.951 -0.7923  2.2729  0.9623
19553TIP3    H280075   1.152   0.395   4.851  1.9815 -1.3891 -0.1325
19554TIP3   OH280076   5.430   5.526   4.127 -0.2136  0.1187  0.6810
19554TIP3    H180077   5.350   5.564   4.163 -0.7036  0.5583 -0.8570
19554TIP3    H280078   5.499   5.554   4.187 -1.1647 -0.0130  1.8502
19555TIP3   OH280079   4.890   2.927   1.161 -0.6547  0.0512  0.0085
19555TIP3    H180080   4.940   2.845   1.157  0.3618  0.7132 -1.4572
19555TIP3    H280081   4.803   2.903   1.126  0.0319 -0.1463 -1.6327
19556TIP3   OH280082   2.314   5.909  12.152 -0.5872  0.3885 -0.2460
19556TIP3    H180083   2.351   5.837  12.203  2.0326  2.3982  0.8194
19556TIP3    H280084   2.242   5.942  12.206 -0.4810 -0.1056  0.2010
19557TIP3   OH280085   3.038   0.342   4.878 -1.1885 -0.6763 -0.2239
19557TIP3    H180086   3.131   0.351   4.856 -1.2342 -0.6287 -0.3972
19557TIP3    H280087   3.005   0.276   4.816 -1.5539  0.2147 -0.9962
19558TIP3   OH280088   5.409   0.399  10.460  0.1953  0.1318 -0.2771
19558TIP3    H180089   5.450   0.469  10.511 -0.2460  0.7187 -0.7263
19558TIP3    H280090   5.332   0.374  10.511  0.3723 -0.0515 -0.0988
19559TIP3   OH280091   2.052   1.507  13.497 -0.6607 -0.2664 -0.0469
19559TIP3    H180092   2.146   1.507  13.481 -0.5757 -0.3226  0.4611
19559TIP3    H280093   2.018   1.574  13.438 -0.0700  1.0896  1.1468
19560TIP3   OH280094   0.394   0.606  14.768 -0.4858  0.0613  0.8312
19560TIP3    H180095   0.435   0.692  14.757  0.8894 -0.3916  2.3500
19560TIP3    H280096   0.455   0.545  14.727 -0.5658 -0.3958  1.3870
19561TIP3   OH280097   4.676   2.349  13.853 -0.0404  0.4487  0.1661
19561TIP3    H180098   4.611   2.318  13.789 -0.6942  0.7842  0.6626
19561TIP3    H280099   4.749   2.288  13.843 -0.4282  0.0644 -0.4049
19562TIP3   OH280100   2.598   4.478  13.265  0.5496 -0.6688 -0.0420
19562TIP3    H180101   2.544   4.556  13.274 -1.5031 -1.8185 -1.9097
19562TIP3    H280102   2.602   4.441  13.353 -0.6718  0.1391  0.3612
19563TIP3   OH280103   5.665   0.575  14.316 -0.3163  0.5569 -0.5096
19563TIP3    H180104   5.653   0.670  14.320  0.4744  0.6550 -0.4511
19563TIP3    H280105   5.578   0.539  14.332 -0.5550  1.2694 -0.2086
19564TIP3   OH280106   0.328   4.234  15.264  0.0540 -0.1314 -0.2680
19564TIP3    H180107   0.374   4.278  15.335 -1.0065  1.2753 -0.4243
19564TIP3    H280108   0.236   4.257  15.277  0.0726  1.8713 -3.2549
19565TIP3   OH280109   4.853   5.389  12.030  0.7798  0.7053 -0.1417
19565TIP3    H180110   4.828   5.340  11.952  0.6293  0.7598 -0.1298
19565TIP3    H280111   4.772   5.433  12.057  1.1166  1.6656 -0.6755
19566TIP3   OH280112   3.707   5.912  16.397  0.2046  0.3716  0.2087
19566TIP3    H180113   3.679   5.934  16.308 -0.4805 -0.0073  0.3334
19566TIP3    H280114   3.714   5.817  16.398 -1.2057  0.2587  0.9690
19567TIP3   OH280115   6.515   0.201   5.124  0.2656  0.5001  0.0100
19567TIP3    H180116   6.565   0.145   5.184  1.6603  0.2636 -1.3462
19567TIP3    H280117   6.564   0.283   5.122 -0.5297  0.9861  0.2312
19568TIP3   OH280118   4.989   0.397   1.921  0.0028 -0.1734 -0.5481
19568TIP3    H180119   4.992   0.305   1.894  0.0623 -0.5612  0.7591
19568TIP3    H280120   5.080   0.421   1.936 -0.0060  0.1273 -0.9639
19569TIP3   OH280121   3.978   0.298   0.211 -0.2566  0.1531 -0.7827
19569TIP3    H180122   3.892   0.263   0.185 -1.4460  2.7341 -0.4560
19569TIP3    H280123   3.963   0.392   0.224  2.0254  0.2007  1.8854
19570TIP3   OH280124   4.869   6.067  10.739 -0.5305 -0.1773  0.2987
19570TIP3    H180125   4.862   6.135  10.672  0.5081  0.4357  0.7957
19570TIP3    H280126   4.941   6.096  10.794 -1.7006 -0.4041  1.9921
19571TIP3   OH280127   5.661   2.354   4.072 -0.0892 -0.0944  0.7335
19571TIP3    H180128   5.721   2.428   4.082  0.8021 -0.8233  0.8967
19571TIP3    H280129   5.685   2.294   4.143 -0.2628 -0.9003  0.1193
19572TIP3   OH280130   4.015   0.076  11.906 -0.1193 -0.0181 -0.0917
19572TIP3    H180131   3.928   0.050  11.876  0.1730  0.4562 -1.3756
19572TIP3    H280132   4.006   0.169  11.927  0.2988  0.2569 -1.1061
19573TIP3   OH280133   0.137   0.224  15.985 -0.0766  0.4612 -0.4319
19573TIP3    H180134   0.195   0.246  16.057 -0.3620 -0.0448 -0.0376
19573TIP3    H280135   0.074   0.296  15.982  1.6063  1.9034 -2.0054
19574TIP3   OH280136   3.988   1.383   3.966 -0.2168  0.1894 -0.1834
19574TIP3    H180137   3.918   1.320   3.951 -0.3411  0.7472 -2.1536
19574TIP3    H280138   4.064   1.330   3.991 -0.7204 -0.6123 -0.3587
19575TIP3   OH280139   2.597   0.933  11.274  0.2554  0.6009  0.1805
19575TIP3    H180140   2.567   0.842  11.277  1.6815  0.1358  0.6502
19575TIP3    H280141   2.596   0.955  11.181 -1.7873  0.6877  0.2108
19576TIP3   OH280142   0.218   3.088  11.561  0.1510 -0.4093 -0.1413
19576TIP3    H180143   0.264   3.106  11.643 -0.3380 -0.3937  0.1355
19576TIP3    H280144   0.257   3.006  11.529 -1.4064 -1.8259  1.4385
19577TIP3   OH280145   6.623   2.904  15.727  0.0503  0.5510 -0.2595
19577TIP3    H180146   6.662   2.865  15.805  0.8031  2.6623  0.4703
19577TIP3    H280147   6.649   2.847  15.655 -1.8117 -2.2112  1.1871
19578TIP3   OH280148   3.195   2.097  13.924 -0.3585 -0.5507 -0.1400
19578TIP3    H180149   3.178   2.185  13.891  1.9968 -0.4572 -1.2434
19578TIP3    H280150   3.117   2.047  13.901 -1.3730  1.0491 -0.2342
19579TIP3   OH280151   1.795   2.308  14.946  0.0537  0.2959  0.2241
19579TIP3    H180152   1.713   2.297  14.898  0.3732  1.9193 -0.7284
19579TIP3    H280153   1.769   2.345  15.030 -0.3100 -0.4744  0.4516
19580TIP3   OH280154   0.996   3.098   3.432 -0.1510  0.1133  0.1774
19580TIP3    H180155   0.964   3.073   3.345 -3.4724  1.5797  0.9111
19580TIP3    H280156   1.011   3.015   3.476  1.3212 -0.6508 -1.6913
19581TIP3   OH280157   5.893   0.061  12.174 -0.3866 -0.1921 -0.0379
19581TIP3    H180158   5.870   0.107  12.093 -0.1174 -1.3644 -0.7950
19581TIP3    H280159   5.830  -0.011  12.179 -0.6496  0.0979  1.0095
19582TIP3   OH280160   5.622   4.009  16.060 -0.1300  0.4315  0.3389
19582TIP3    H180161   5.670   3.969  16.132  1.6274  0.5830 -0.7085
19582TIP3    H280162   5.571   4.079  16.101  0.5823  0.2955  1.4817
19583TIP3   OH280163   4.994   0.391  13.001  0.1970  0.7913  0.3043
19583TIP3    H180164   4.911   0.388  13.048 -0.3113  1.2936 -0.5435
19583TIP3    H280165   5.020   0.299  12.991 -0.3335  0.6295  0.4451
19584TIP3   OH280166   3.512   4.385  16.705 -0.4017 -0.3997 -0.5875
19584TIP3    H180167   3.596   4.430  16.711 -0.2918 -0.7289  0.4827
19584TIP3    H280168   3.523   4.306  16.758 -1.6560 -0.0232  0.2830
19585TIP3   OH280169   5.888   5.705  14.125 -0.4847 -1.4887  0.2004
19585TIP3    H180170   5.862   5.634  14.066 -0.2504 -1.7685  0.4313
19585TIP3    H280171   5.983   5.692  14.136 -0.7808 -2.3477  1.8458
19586TIP3   OH280172   0.886   2.578   3.981  0.0762  0.3723  0.1248
19586TIP3    H180173   0.963   2.621   4.019 -0.4895  0.6293  0.9975
19586TIP3    H280174   0.834   2.650   3.945  0.5752  0.1382 -1.1049
19587TIP3   OH280175   0.037   0.926  15.697  0.1130 -0.4615  0.2163
19587TIP3    H180176   0.056   0.982  15.623 -0.7985 -1.5529 -0.8620
19587TIP3    H280177  -0.041   0.965  15.738  1.3083  0.8231  1.3435
19588TIP3   OH280178   4.357   2.059   2.194 -0.0237 -0.0327  0.6059
19588TIP3    H180179   4.386   2.140   2.235  0.0454 -0.0458  0.5825
19588TIP3    H280180   4.270   2.044   2.230  0.3034 -0.3928  1.2360
19589TIP3   OH280181   0.086   5.703  14.886  0.4907 -0.1539 -0.6866
19589TIP3    H180182   0.044   5.652  14.955 -0.4022  0.2522 -0.9175
19589TIP3    H280183   0.174   5.721  14.920 -0.1799  0.6682  0.6626
19590TIP3   OH280184   0.258   0.393   5.168 -0.1011  0.1063  0.6194
19590TIP3    H180185   0.233   0.311   5.210 -0.6060 -0.1949 -0.2771
19590TIP3    H280186   0.176   0.430   5.135  0.4450 -0.2820 -1.2266
19591TIP3   OH280187   3.704   3.879   5.515 -0.8037  0.1087  0.2645
19591TIP3    H180188   3.672   3.815   5.578 -1.0972 -0.3647 -0.3601
19591TIP3    H280189   3.678   3.964   5.552  0.6889 -0.0361  1.7227
19592TIP3   OH280190   3.844   2.754  14.633 -0.1438  0.6663 -0.9941
19592TIP3    H180191   3.903   2.684  14.603  1.0312  2.1473 -2.1879
19592TIP3    H280192   3.894   2.799  14.701 -1.3404 -0.3306  0.5771
19593TIP3   OH280193   0.074   4.500  13.663  0.2226  0.3090  0.0990
19593TIP3    H180194  -0.003   4.545  13.696  0.4381  1.1226 -0.5053
19593TIP3    H280195   0.082   4.422  13.719 -0.5485  0.6485  0.6863
19594TIP3   OH280196   5.055   3.876  16.502 -0.6502 -0.5178 -0.3811
19594TIP3    H180197   5.021   3.959  16.468  0.1867 -0.0246 -0.0317
19594TIP3    H280198   4.989   3.811  16.478 -1.2335  0.2253 -0.7990
19595TIP3   OH280199   5.424   0.077  11.002 -0.3329 -0.2363  0.2857
19595TIP3    H180200   5.516   0.090  11.024 -0.5815  0.4520  0.9311
19595TIP3    H280201   5.421   0.079  10.906 -0.0258  2.1319  0.3154
19596TIP3   OH280202   2.218   5.995  11.925  0.0015  0.7939  0.0626
19596TIP3    H180203   2.285   5.980  11.992  0.4710  1.0064 -0.3522
19596TIP3    H280204   2.141   6.025  11.973  0.2738  0.7425  0.5243
19597TIP3   OH280205   2.520   5.960  14.464 -0.3248  0.4931 -0.1157
19597TIP3    H180206   2.540   6.052  14.480  0.6754  0.1851  0.4208
19597TIP3    H280207   2.585   5.932  14.399  0.1834 -0.1742  0.6746
19598TIP3   OH280208   3.949   6.393  12.904  0.2687 -0.1337 -0.3179
19598TIP3    H180209   4.003   6.425  12.832  0.5558 -0.1787 -0.1223
19598TIP3    H280210   3.921   6.305  12.876 -1.9527  0.9505 -1.6350
19599TIP3   OH280211   0.376   5.580  10.991  0.6094  0.0625 -0.1551
19599TIP3    H180212   0.415   5.638  10.924 -0.6321  2.0726  0.8098
19599TIP3    H280213   0.298   5.544  10.949 -0.2218  1.3968  0.2082
19600TIP3   OH280214   4.450   6.240  11.024  0.1498 -0.6778 -0.0395
19600TIP3    H180215   4.543   6.259  11.034  0.0469  0.0981 -0.5299
19600TIP3    H280216   4.408   6.293  11.092 -0.0821  0.4311 -1.0149
19601TIP3   OH280217   4.399   4.413   4.007 -0.5473  0.0085 -0.0962
19601TIP3    H180218   4.493   4.406   4.024 -0.8786 -0.2542  1.7650
19601TIP3    H280219   4.382   4.347   3.940  0.3880 -0.8523  0.4894
19602TIP3   OH280220   1.865   1.150   3.992 -0.1895 -0.0734 -0.5903
19602TIP3    H180221   1.821   1.230   4.021  1.2269 -0.1802  2.0443
19602TIP3    H280222   1.868   1.095   4.070  1.5796 -1.4495 -1.5806
19603TIP3   OH280223   0.181   3.457   5.875  0.1823  0.2174 -0.4343
19603TIP3    H180224   0.153   3.534   5.825  0.4429  0.3378 -0.3963
19603TIP3    H280225   0.223   3.493   5.953  2.5045  0.0929 -1.5656
19604TIP3   OH280226   0.033   4.803   4.803 -0.5518  0.2386  0.2253
19604TIP3    H180227   0.006   4.835   4.889 -1.9341 -0.4890  0.0704
19604TIP3    H280228   0.007   4.711   4.803  0.5861 -0.0896 -0.5060
19605TIP3   OH280229   5.182   2.854   1.717  0.3352 -0.0696 -0.1517
19605TIP3    H180230   5.086   2.859   1.720  0.3173 -1.0604  2.9005
19605TIP3    H280231   5.204   2.775   1.767  2.7577  0.1290 -0.8243
19606TIP3   OH280232   2.573   0.859  13.343 -0.3348 -0.4572 -0.1289
19606TIP3    H180233   2.633   0.884  13.414  1.9833  0.3871 -2.3201
19606TIP3    H280234   2.492   0.907  13.363  0.7448  0.8642  1.1939
19607TIP3   OH280235   3.807   1.595  15.609  0.4719  0.8199 -0.0986
19607TIP3    H180236   3.838   1.569  15.523 -0.7536  1.8145 -0.8550
19607TIP3    H280237   3.829   1.688  15.615  0.6126  0.7389  0.6908
19608TIP3   OH280238   4.430   5.685   1.862  0.4029 -0.3949  0.4115
19608TIP3    H180239   4.500   5.742   1.893  0.1180 -0.2297  0.7547
19608TIP3    H280240   4.352   5.741   1.861  0.0500 -0.8700  1.0866
19609TIP3   OH280241   0.682   2.578   4.610 -0.4378  0.4472 -0.5166
19609TIP3    H180242   0.646   2.492   4.588 -0.3982  0.1774  0.4581
19609TIP3    H280243   0.777   2.564   4.616 -0.4912  0.4027  0.3140
19610TIP3   OH280244   1.373   1.422  11.796 -0.3402 -0.2209 -0.5307
19610TIP3    H180245   1.354   1.501  11.847 -0.0508 -0.9714  0.7641
19610TIP3    H280246   1.351   1.445  11.706 -1.3176  0.9728  0.0121
19611TIP3   OH280247   5.842   1.778  16.394 -0.2025 -0.2572 -0.1431
19611TIP3    H180248   5.771   1.812  16.449 -0.9250  0.0568 -1.2600
19611TIP3    H280249   5.921   1.796  16.444 -0.7280  1.4242  0.1168
19612TIP3   OH280250   2.265   5.703   2.293  0.3904 -0.5337 -0.3551
19612TIP3    H180251   2.303   5.787   2.269 -0.0773 -0.5180 -1.0379
19612TIP3    H280252   2.280   5.696   2.388  1.8525 -0.4097 -0.5623
19613TIP3   OH280253   5.860   4.718   0.644 -0.1025  0.2656  0.0211
19613TIP3    H180254   5.812   4.720   0.561 -1.4132 -0.4478  0.7493
19613TIP3    H280255   5.889   4.627   0.653  2.1912  0.8835 -0.8503
19614TIP3   OH280256   4.016   0.911   6.184  0.4834  0.1771  0.1847
19614TIP3    H180257   3.992   0.818   6.181 -1.7673  0.6987  0.8663
19614TIP3    H280258   4.048   0.924   6.273 -2.5156  0.7858  1.2201
19615TIP3   OH280259   5.690   5.268  11.635  0.2466  0.0857  0.2710
19615TIP3    H180260   5.653   5.353  11.657  2.2792  1.4281 -1.2938
19615TIP3    H280261   5.621   5.224  11.585 -0.0851  1.6647 -0.7009
19616TIP3   OH280262   0.579   1.254  13.802 -0.7091  0.0956 -0.3969
19616TIP3    H180263   0.615   1.175  13.762 -0.9571 -0.1837 -0.0704
19616TIP3    H280264   0.636   1.324  13.770 -0.3806 -0.2332 -0.5481
19617TIP3   OH280265   5.622   3.529   0.177 -0.4538 -0.9520  0.1181
19617TIP3    H180266   5.588   3.477   0.104 -2.8730  1.0317 -0.2522
19617TIP3    H280267   5.568   3.502   0.252 -0.1076 -0.7106  0.4550
19618TIP3   OH280268   1.360   6.247   5.483 -0.0973  0.5790  0.0239
19618TIP3    H180269   1.347   6.246   5.388 -0.0491 -0.9273  0.0313
19618TIP3    H280270   1.415   6.324   5.499  0.6394  0.3263 -1.2660
19619TIP3   OH280271   4.275   6.099   3.048  0.4617  0.1692 -0.4476
19619TIP3    H180272   4.246   6.044   3.121 -0.4143 -1.2422 -1.8291
19619TIP3    H280273   4.235   6.185   3.066 -0.8608 -0.5271  0.0455
19620TIP3   OH280274   1.697   0.397  14.310  0.5896 -0.2416 -0.0303
19620TIP3    H180275   1.620   0.409  14.367 -0.0795 -0.8204 -0.8067
19620TIP3    H280276   1.752   0.335  14.358 -0.3653 -1.3759 -0.3972
19621TIP3   OH280277   0.598   4.488   3.129  0.0212 -0.7065  0.1180
19621TIP3    H180278   0.615   4.571   3.173  2.2209 -0.6579 -0.7473
19621TIP3    H280279   0.659   4.427   3.169  0.2729 -1.2553 -1.0931
19622TIP3   OH280280   3.773   2.327   2.086  0.3303 -0.3349  0.2142
19622TIP3    H180281   3.789   2.312   2.179 -1.4163  2.6605  1.0715
19622TIP3    H280282   3.704   2.265   2.063 -0.3348 -0.0375  1.3457
19623TIP3   OH280283   0.766   3.732  14.425 -0.3390 -0.0469  0.5399
19623TIP3    H180284   0.695   3.789  14.455  0.8650  1.4502  0.5893
19623TIP3    H280285   0.842   3.759  14.476  0.7588 -0.2340 -0.9624
19624TIP3   OH280286   5.335   2.387  13.246  0.1630 -0.2950 -0.5363
19624TIP3    H180287   5.315   2.383  13.339 -3.0617  0.7752 -1.1224
19624TIP3    H280288   5.409   2.328  13.235 -0.0357 -1.2016  2.5247
19625TIP3   OH280289   2.434   2.500  13.694 -0.1142  0.5604 -0.0390
19625TIP3    H180290   2.455   2.470  13.606 -3.1834 -0.5584 -0.4515
19625TIP3    H280291   2.340   2.519  13.691  0.0908  2.2355  2.5215
19626TIP3   OH280292   6.737   1.221  16.809  0.2341 -0.1854  0.1411
19626TIP3    H180293   6.697   1.305  16.833  1.1384  0.3174 -0.0786
19626TIP3    H280294   6.809   1.245  16.751  1.0805 -1.0625  0.8326
19627TIP3   OH280295   0.040   2.722   1.159 -0.0392  0.2239  0.1132
19627TIP3    H180296   0.053   2.705   1.253  0.6734  0.2598  0.0258
19627TIP3    H280297   0.091   2.802   1.143 -1.8373  1.3919  0.1276
19628TIP3   OH280298   4.026   5.930   3.691  0.2187  0.3925  0.6951
19628TIP3    H180299   4.080   6.000   3.655  1.7897 -0.8537  0.5545
19628TIP3    H280300   4.016   5.868   3.619  0.7808 -0.6178  1.4736
19629TIP3   OH280301   1.590   2.646  16.684 -0.1338  0.0185 -0.2184
19629TIP3    H180302   1.526   2.600  16.630 -1.4081  1.6104 -0.1102
19629TIP3    H280303   1.625   2.715  16.627  0.6191 -0.0957  0.0952
19630TIP3   OH280304   5.510   4.324   6.087  0.5171  0.0068  0.0013
19630TIP3    H180305   5.580   4.272   6.126 -0.6492 -0.1870  1.8939
19630TIP3    H280306   5.488   4.389   6.154  1.7502  2.8117 -2.1894
19631TIP3   OH280307   6.711   3.544   1.511  0.4873  0.2908 -0.3433
19631TIP3    H180308   6.714   3.579   1.422 -1.2445 -0.6318 -0.7903
19631TIP3    H280309   6.738   3.617   1.567  1.6791  0.8388 -1.6335
19632TIP3   OH280310   4.285   4.411   4.288  0.6367  0.2621 -0.2593
19632TIP3    H180311   4.318   4.417   4.199 -1.3943  0.2061 -1.0471
19632TIP3    H280312   4.220   4.340   4.285  1.3433 -0.5101  1.5250
19633TIP3   OH280313   2.513   3.122   0.798  0.3526 -0.5466 -0.3325
19633TIP3    H180314   2.470   3.199   0.835  1.1129 -0.2079 -0.1402
19633TIP3    H280315   2.456   3.095   0.726  0.2114  0.3487 -0.5619
19634TIP3   OH280316   3.968   3.661  12.316  0.5371  0.4264  0.2235
19634TIP3    H180317   4.009   3.633  12.398  1.4607  2.9282  0.6817
19634TIP3    H280318   3.914   3.736  12.341 -2.5633 -1.4181 -0.7833
19635TIP3   OH280319   4.266   0.474   2.265 -0.0886 -0.0235  0.4238
19635TIP3    H180320   4.230   0.563   2.266  1.4984  0.6972 -2.0635
19635TIP3    H280321   4.359   0.486   2.245  0.3622 -2.2029  1.0756
19636TIP3   OH280322   3.612   1.274   5.228 -0.2657 -0.4988  0.6741
19636TIP3    H180323   3.537   1.333   5.221  0.7095  0.6029 -0.8452
19636TIP3    H280324   3.652   1.296   5.312 -0.1412  0.7422  0.3043
19637TIP3   OH280325   6.357   4.854  12.394 -0.3919 -0.0761  0.3642
19637TIP3    H180326   6.408   4.924  12.354 -0.7421  0.5355  0.9831
19637TIP3    H280327   6.267   4.871  12.368 -1.1587  2.3164  4.0989
19638TIP3   OH280328   1.668   2.037   1.029  0.4169 -0.0927 -0.1471
19638TIP3    H180329   1.577   2.065   1.042  0.8714  0.4980  1.8977
19638TIP3    H280330   1.661   1.962   0.970 -1.3857  0.0523 -0.1653
19639TIP3   OH280331   2.769   6.109   3.089  0.7193  0.0809  0.1859
19639TIP3    H180332   2.785   6.122   2.995 -0.4336  2.6388  0.2986
19639TIP3    H280333   2.695   6.049   3.092  0.6065  0.1707 -0.5704
19640TIP3   OH280334   3.268   2.336   5.103  0.8119 -0.1264  0.0375
19640TIP3    H180335   3.273   2.240   5.104 -0.2034 -0.1906  2.7405
19640TIP3    H280336   3.250   2.360   5.194  1.2095  2.6529 -0.5840
19641TIP3   OH280337   4.073   2.221   4.872 -0.4461 -0.6319 -0.3325
19641TIP3    H180338   4.055   2.127   4.877 -1.4208 -0.4729 -0.6761
19641TIP3    H280339   4.044   2.255   4.956 -2.9650 -0.1923 -1.3307
19642TIP3   OH280340   2.500   5.796   3.792  0.3292 -0.2276 -0.4321
19642TIP3    H180341   2.471   5.838   3.872  0.1426  0.2625 -0.7542
19642TIP3    H280342   2.496   5.702   3.811 -1.7229 -0.1909 -0.5629
19643TIP3   OH280343   6.061   6.557   3.155  0.5391  0.0584  0.0240
19643TIP3    H180344   6.152   6.551   3.125  0.4917 -1.4872  0.1492
19643TIP3    H280345   6.029   6.639   3.118  2.3482  1.2282  0.9772
19644TIP3   OH280346   4.283   5.866  15.399 -0.4640  0.4371 -0.2845
19644TIP3    H180347   4.338   5.792  15.426 -1.4606  0.2682  1.4292
19644TIP3    H280348   4.229   5.831  15.328 -1.7093 -0.8564  1.2559
19645TIP3   OH280349   6.678   0.690  11.706 -0.1212  0.0176 -0.2404
19645TIP3    H180350   6.658   0.764  11.648  0.3144  0.7911  0.5919
19645TIP3    H280351   6.769   0.705  11.733  0.0814 -1.0115 -0.3456
19646TIP3   OH280352   5.709   6.446   1.154  0.5837  0.1246 -0.2023
19646TIP3    H180353   5.785   6.396   1.126  1.1261  0.9143 -0.1579
19646TIP3    H280354   5.669   6.478   1.073 -0.7890 -1.8363 -0.3389
19647TIP3   OH280355   3.059   6.302   5.109  0.0720 -0.3931 -0.0366
19647TIP3    H180356   2.998   6.230   5.124 -0.6235 -0.0500 -1.1478
19647TIP3    H280357   3.035   6.337   5.023  1.4953  0.0858 -0.2622
19648TIP3   OH280358   5.709   6.583  12.593 -1.0581 -0.7550  0.4796
19648TIP3    H180359   5.615   6.572  12.607 -1.2096  0.3670  0.4218
19648TIP3    H280360   5.750   6.534  12.664 -1.7073 -0.7643  0.8502
19649TIP3   OH280361   1.788   3.296  10.762 -0.5365  0.2629  0.2952
19649TIP3    H180362   1.806   3.390  10.755  0.7238 -0.0002 -0.1416
19649TIP3    H280363   1.710   3.290  10.817 -1.0866  1.6016 -0.3254
19650TIP3   OH280364   5.402   1.626   2.555 -0.2025 -0.0431  0.3286
19650TIP3    H180365   5.489   1.625   2.595  0.2151 -0.8548 -0.5738
19650TIP3    H280366   5.346   1.582   2.620  0.2953 -0.5557  0.4206
19651TIP3   OH280367   3.027   3.368  16.678  0.0540 -0.6411 -0.1613
19651TIP3    H180368   3.093   3.307  16.645  0.5991  0.6035 -1.4371
19651TIP3    H280369   3.077   3.438  16.720 -0.5184 -0.4638  0.2340
19652TIP3   OH280370   2.932   0.166  17.111 -0.2327 -0.4221 -0.1579
19652TIP3    H180371   3.016   0.187  17.151  0.3152 -2.0002 -0.4492
19652TIP3    H280372   2.875   0.239  17.135  1.1912  0.6235  0.1104
19653TIP3   OH280373   4.746   1.605  15.112 -0.1091  0.6309 -0.6264
19653TIP3    H180374   4.671   1.578  15.165 -0.2685  2.1850 -0.0124
19653TIP3    H280375   4.812   1.632  15.177  0.0541  1.6165 -1.1852
19654TIP3   OH280376   1.145   1.489   5.918  0.4334 -0.2211  0.3458
19654TIP3    H180377   1.103   1.575   5.908  1.5060  0.1985 -0.6532
19654TIP3    H280378   1.229   1.498   5.873  0.7571 -1.6537  0.6462
19655TIP3   OH280379   0.045   1.518   3.274  0.0466 -0.2477  0.3829
19655TIP3    H180380   0.061   1.609   3.248  2.2920 -0.5344  0.6960
19655TIP3    H280381   0.023   1.473   3.193  2.6355 -0.1948 -0.3851
19656TIP3   OH280382   2.304   2.026  15.368 -0.0744  0.1974 -0.5024
19656TIP3    H180383   2.216   1.991  15.354  0.2085 -1.3756  1.4775
19656TIP3    H280384   2.362   1.951  15.360  0.7777  0.6246  1.3152
19657TIP3   OH280385   6.332   1.994   4.855  0.2927  0.3942  0.1142
19657TIP3    H180386   6.291   2.014   4.940  1.2471 -0.7777  0.8757
19657TIP3    H280387   6.378   1.911   4.870  1.9519  1.0778 -1.0519
19658TIP3   OH280388   3.832   4.008  13.706 -0.4701  0.0730 -0.5705
19658TIP3    H180389   3.843   3.927  13.755  0.2351 -0.3210 -1.3680
19658TIP3    H280390   3.821   4.075  13.774 -5.2417 -1.1966  0.0905
19659TIP3   OH280391   1.446   2.236  12.094 -0.0299  0.8820  0.0465
19659TIP3    H180392   1.457   2.149  12.133  2.2688 -0.3723 -3.1698
19659TIP3    H280393   1.523   2.285  12.122  1.0603  0.3316 -1.8967
19660TIP3   OH280394   4.086   3.505  13.134  0.5950  0.0399 -0.1153
19660TIP3    H180395   4.056   3.502  13.044  1.7945 -1.6676 -0.5090
19660TIP3    H280396   4.042   3.580  13.173 -0.0108  0.7248 -2.0897
19661TIP3   OH280397   3.477   2.686  11.881 -0.4903  0.6743 -0.1991
19661TIP3    H180398   3.382   2.693  11.884 -0.5245  1.4416 -2.1668
19661TIP3    H280399   3.508   2.775  11.861  0.4771 -0.0168 -1.9052
19662TIP3   OH280400   6.290   1.866   0.490 -0.1240 -0.9393  0.5347
19662TIP3    H180401   6.372   1.835   0.528  0.7530  1.1050  0.3356
19662TIP3    H280402   6.285   1.958   0.514 -0.3408  0.0178 -2.8959
19663TIP3   OH280403   1.009   0.956   2.754  0.1245  0.4794  0.1113
19663TIP3    H180404   0.970   1.043   2.741 -0.7116  0.2040  0.7148
19663TIP3    H280405   0.960   0.918   2.827  3.4214  1.2122  2.8063
19664TIP3   OH280406   2.237   3.808  13.279 -0.4431 -0.5816 -0.5686
19664TIP3    H180407   2.169   3.875  13.286 -1.1289 -1.4206  1.3527
19664TIP3    H280408   2.307   3.849  13.229 -1.3283  1.1723 -0.3987
19665TIP3   OH280409   5.628   0.991   4.325  0.1955  0.3560  0.1158
19665TIP3    H180410   5.637   0.896   4.324  1.9042  0.4729 -3.0633
19665TIP3    H280411   5.716   1.025   4.307 -0.1421  2.6051  2.3554
19666TIP3   OH280412   2.787   6.506   0.549 -0.1440  0.0904  0.0260
19666TIP3    H180413   2.846   6.457   0.607 -0.4271  0.4182  0.5925
19666TIP3    H280414   2.792   6.460   0.465 -1.4552 -1.7497  0.9220
19667TIP3   OH280415   6.388   1.270   6.476 -0.5208 -0.5382 -0.0065
19667TIP3    H180416   6.370   1.320   6.397  1.9788  0.5027  0.0255
19667TIP3    H280417   6.332   1.309   6.543 -1.0235  0.0142 -0.7489
19668TIP3   OH280418   4.896   0.974  14.395  0.0088  0.0407 -0.0142
19668TIP3    H180419   4.978   1.020  14.415 -0.3908  0.5491  0.4710
19668TIP3    H280420   4.882   0.917  14.471  0.0450 -0.2201 -0.2076
19669TIP3   OH280421   4.733   4.525   2.264  0.1448  0.1051  0.1263
19669TIP3    H180422   4.675   4.450   2.267  1.8206 -1.3161 -1.5021
19669TIP3    H280423   4.721   4.562   2.176  1.1937  0.1817  0.0009
19670TIP3   OH280424   5.414   1.444   5.148 -0.3179 -0.1815 -0.0663
19670TIP3    H180425   5.448   1.419   5.062 -0.0302 -1.2657  0.3619
19670TIP3    H280426   5.343   1.382   5.165 -0.3064 -0.0356  0.5293
19671TIP3   OH280427   6.033   1.605  16.094 -0.1887 -0.3292 -0.2805
19671TIP3    H180428   5.959   1.652  16.132  0.7301 -0.3042  1.4869
19671TIP3    H280429   6.036   1.522  16.142  0.7807 -0.4400 -0.5278
19672TIP3   OH280430   4.578   4.372  14.635 -0.2169 -0.0013  0.3663
19672TIP3    H180431   4.601   4.358  14.544 -0.4660 -2.5912  0.6694
19672TIP3    H280432   4.488   4.405  14.632  0.8769  3.0657 -0.4426
19673TIP3   OH280433   4.525   1.069  11.729  0.1908  0.3206  0.7914
19673TIP3    H180434   4.559   1.117  11.805 -1.0244  0.8654  1.0198
19673TIP3    H280435   4.430   1.078  11.738  0.0580  1.3833 -1.4432
19674TIP3   OH280436   0.407   5.369  16.049 -0.0777  0.0880  0.4627
19674TIP3    H180437   0.429   5.301  16.113  0.2999 -1.5761 -1.3989
19674TIP3    H280438   0.491   5.395  16.012 -0.0052  3.0133  2.5371
19675TIP3   OH280439   1.029   1.134  12.302  0.1894 -0.8795  0.1134
19675TIP3    H180440   1.113   1.171  12.276  0.2447  0.2756  1.7795
19675TIP3    H280441   1.050   1.048  12.338  0.8905  0.0573  2.0012
19676TIP3   OH280442   1.477   6.037  15.621 -0.0171  0.2194  1.3481
19676TIP3    H180443   1.571   6.032  15.638  0.3273  0.4857 -0.3473
19676TIP3    H280444   1.440   5.959  15.664  1.1560 -0.5870  0.9160
19677TIP3   OH280445   3.218   1.577   1.201  0.2535  0.3879  0.1790
19677TIP3    H180446   3.253   1.617   1.121 -0.5151  0.2795 -0.2126
19677TIP3    H280447   3.198   1.652   1.258  0.3115  0.4858  0.0714
19678TIP3   OH280448   5.308   0.532  16.842  0.6149 -0.3927 -0.0622
19678TIP3    H180449   5.322   0.536  16.748  0.6773 -1.0876 -0.0812
19678TIP3    H280450   5.227   0.582  16.856  1.3059  0.8242 -0.3182
19679TIP3   OH280451   2.715   4.642  12.817 -0.1659 -0.1282  0.6048
19679TIP3    H180452   2.794   4.601  12.851  0.3353  1.5872  1.5841
19679TIP3    H280453   2.721   4.631  12.722  1.4022  0.2642  0.6512
19680TIP3   OH280454   2.433   6.380  11.895 -0.4232  0.0134  0.0364
19680TIP3    H180455   2.419   6.403  11.986  1.6781  0.9587  0.1526
19680TIP3    H280456   2.408   6.458  11.845 -1.5811 -0.5041 -0.1955
19681TIP3   OH280457   3.976   3.885   1.060  0.1208  0.0365 -0.4448
19681TIP3    H180458   4.011   3.967   1.094 -0.2850  0.1506 -0.3053
19681TIP3    H280459   4.047   3.850   1.005 -0.7306  1.8770 -2.8146
19682TIP3   OH280460   6.180   1.778  14.966  0.3686  0.3134 -0.1885
19682TIP3    H180461   6.158   1.871  14.954 -0.9570  0.2100  1.2570
19682TIP3    H280462   6.215   1.774  15.055  1.0934 -0.4520 -0.5113
19683TIP3   OH280463   1.253   5.073   3.569 -0.1272  0.1903  0.3914
19683TIP3    H180464   1.331   5.030   3.533 -0.5352 -0.6610  0.5145
19683TIP3    H280465   1.237   5.147   3.510  0.8763  0.4768  0.4711
19684TIP3   OH280466   5.021   2.860   4.199  0.1997 -0.9190  0.7500
19684TIP3    H180467   5.058   2.802   4.132  0.8675 -0.6830  0.9047
19684TIP3    H280468   5.068   2.943   4.186 -0.1046 -0.6899  1.1181
19685TIP3   OH280469   4.135   4.717   4.940  0.0168 -0.8165  0.0115
19685TIP3    H180470   4.074   4.719   4.866 -1.2529 -1.4696  1.0266
19685TIP3    H280471   4.097   4.654   5.001 -0.2891  1.5493  2.3452
19686TIP3   OH280472   4.258   0.570  16.121  0.2852  0.1261  0.3727
19686TIP3    H180473   4.260   0.664  16.139 -0.6322  0.4572 -1.1265
19686TIP3    H280474   4.166   0.552  16.100  0.4398 -1.1170  0.7234
19687TIP3   OH280475   3.874   1.955   5.896  0.5409 -0.1390  0.0329
19687TIP3    H180476   3.915   1.897   5.960 -0.8577 -0.3095  0.7986
19687TIP3    H280477   3.914   2.040   5.911 -1.7423  0.4802  3.0638
19688TIP3   OH280478   6.142   5.107  11.115  0.0191  0.1151 -0.1041
19688TIP3    H180479   6.188   5.136  11.194  0.1052 -2.5918  0.9063
19688TIP3    H280480   6.207   5.116  11.045  0.4736  1.0042  0.4274
19689TIP3   OH280481   5.918   6.430   5.696  0.1102 -0.3875 -0.3759
19689TIP3    H180482   5.977   6.495   5.734  1.0898 -1.4575 -0.0722
19689TIP3    H280483   5.886   6.379   5.770 -0.4688 -0.4215 -0.6433
19690TIP3   OH280484   5.398   0.543  14.855  0.1008 -0.1849  0.1489
19690TIP3    H180485   5.467   0.610  14.850  0.4679 -0.6125 -0.5778
19690TIP3    H280486   5.380   0.533  14.949 -0.0584  1.0372  0.2578
19691TIP3   OH280487   1.922   1.889   5.643  0.2745 -0.4538 -0.1797
19691TIP3    H180488   1.933   1.794   5.642 -1.1318 -0.6379 -2.1517
19691TIP3    H280489   1.925   1.913   5.736 -1.2616 -2.6820  0.4896
19692TIP3   OH280490   6.495   2.513  16.075 -0.3990 -0.5988 -0.0752
19692TIP3    H180491   6.481   2.447  16.143 -0.0309 -0.0622  0.5306
19692TIP3    H280492   6.452   2.591  16.108 -0.3561 -0.3757 -0.5394
19693TIP3   OH280493   0.277   2.615   1.470 -0.2575  0.1360 -0.3166
19693TIP3    H180494   0.371   2.597   1.481 -0.7180 -1.1470  1.8179
19693TIP3    H280495   0.272   2.709   1.460  1.1849  0.3540  0.7177
19694TIP3   OH280496   0.461   2.615  13.262  0.1160 -0.1369 -0.3473
19694TIP3    H180497   0.552   2.588  13.270  0.2447  0.3697 -0.1087
19694TIP3    H280498   0.465   2.702  13.222 -0.2228  0.2385  0.4256
19695TIP3   OH280499   6.197   0.671  12.768  0.4695 -0.7174 -0.0746
19695TIP3    H180500   6.128   0.639  12.826  0.2199  1.3336  0.7676
19695TIP3    H280501   6.277   0.663  12.819  0.4907 -0.5562 -0.0822
19696TIP3   OH280502   3.196   0.344   2.635 -0.5508 -0.2598  0.0707
19696TIP3    H180503   3.139   0.359   2.711  1.3725  1.2043  1.2974
19696TIP3    H280504   3.282   0.372   2.665  0.7970 -2.3092 -1.7829
19697TIP3   OH280505   2.467   0.491  17.019  0.2943 -0.0861 -0.1283
19697TIP3    H180506   2.557   0.458  17.023 -0.5500 -2.4771 -0.1742
19697TIP3    H280507   2.446   0.514  17.110 -0.4033 -3.3888  0.6074
19698TIP3   OH280508   4.245   4.592  15.837 -0.2553  0.2280 -0.2643
19698TIP3    H180509   4.255   4.566  15.745 -0.2941 -0.8172  0.0190
19698TIP3    H280510   4.243   4.509  15.885  1.5856  0.8186  0.8709
19699TIP3   OH280511   3.235   5.825  13.497  0.4206 -0.6066  0.5809
19699TIP3    H180512   3.161   5.773  13.529  0.8127 -0.9667  0.9156
19699TIP3    H280513   3.255   5.885  13.569  1.4659 -1.5888  1.1411
19700TIP3   OH280514   2.434   0.495   0.917  0.2260 -0.1094  0.2386
19700TIP3    H180515   2.352   0.450   0.900 -0.1029  0.2681  0.8094
19700TIP3    H280516   2.501   0.438   0.880 -0.0910 -1.6146  1.9559
19701TIP3   OH280517   1.859   2.494  10.403  0.2084 -0.1214 -0.1408
19701TIP3    H180518   1.907   2.434  10.346 -1.0248  0.3663 -1.7375
19701TIP3    H280519   1.796   2.437  10.448 -0.1268 -0.2391 -0.7385
19702TIP3   OH280520   0.300   1.208  16.848 -0.1474  0.2118 -0.3778
19702TIP3    H180521   0.381   1.167  16.817 -0.4463  0.3505 -1.3344
19702TIP3    H280522   0.246   1.217  16.770 -0.7684  0.8659  0.1284
19703TIP3   OH280523   2.680   1.596   1.055  0.0035 -0.2367  0.2077
19703TIP3    H180524   2.742   1.609   1.127 -1.0510 -0.0105  1.0862
19703TIP3    H280525   2.596   1.621   1.092 -0.5543 -0.1865 -1.0992
19704TIP3   OH280526   5.596   4.123   3.871 -0.2789 -0.7351  0.1634
19704TIP3    H180527   5.615   4.072   3.793  0.5232  0.9818 -0.7950
19704TIP3    H280528   5.543   4.065   3.925 -1.9602 -1.5082 -2.2178
19705TIP3   OH280529   4.823   5.908   4.520  0.1302  0.2470  0.2734
19705TIP3    H180530   4.748   5.892   4.579  1.3527 -1.4836  1.4099
19705TIP3    H280531   4.874   5.827   4.525  1.4361  0.9577 -1.4529
19706TIP3   OH280532   0.608   4.481  15.273  0.3791  0.4355  0.6904
19706TIP3    H180533   0.643   4.522  15.353  2.1521 -0.0000  0.1601
19706TIP3    H280534   0.681   4.430  15.239 -0.3795  0.5933 -1.2031
19707TIP3   OH280535   1.491   0.422   3.610  0.4518 -0.0534 -0.0404
19707TIP3    H180536   1.580   0.389   3.617  0.0462 -0.7257  2.3811
19707TIP3    H280537   1.499   0.516   3.626  0.7931  0.0193 -0.5941
19708TIP3   OH280538   1.284   3.439   0.933 -0.0237  0.0816  0.3446
19708TIP3    H180539   1.278   3.346   0.954 -2.0620  0.5048  1.7760
19708TIP3    H280540   1.203   3.460   0.888  0.2097  1.2566  0.4418
19709TIP3   OH280541   0.526   5.355  13.599 -0.7065 -0.5165  0.0802
19709TIP3    H180542   0.536   5.446  13.569 -0.1627 -1.1644 -1.7512
19709TIP3    H280543   0.576   5.351  13.680 -0.3012  0.6924 -0.1008
19710TIP3   OH280544   1.445   5.060  13.425 -0.3058 -0.2303  0.7288
19710TIP3    H180545   1.513   5.024  13.369 -1.1267  0.0914 -0.5034
19710TIP3    H280546   1.378   5.091  13.364 -0.2711  2.0595  1.7982
19711TIP3   OH280547   5.811   0.887   0.730 -0.2833  0.0646 -0.2407
19711TIP3    H180548   5.792   0.794   0.738 -1.0283  0.2962  0.6890
19711TIP3    H280549   5.838   0.898   0.638 -0.7627 -0.9607 -0.5084
19712TIP3   OH280550   2.303   1.191  15.781  0.1875 -0.7531  0.4348
19712TIP3    H180551   2.271   1.202  15.871  1.2388  1.6167  0.5291
19712TIP3    H280552   2.389   1.232  15.780 -1.0585  1.9700 -2.4101
19713TIP3   OH280553   4.829   0.522  12.740  0.6696 -0.4530 -0.2231
19713TIP3    H180554   4.862   0.444  12.694  1.7361 -0.5632  0.7326
19713TIP3    H280555   4.907   0.563  12.777 -0.3247 -1.2185  2.8430
19714TIP3   OH280556   2.392   3.472   6.626 -0.5598 -0.0154  0.0247
19714TIP3    H180557   2.305   3.512   6.634 -0.9294 -0.9422  0.6580
19714TIP3    H280558   2.396   3.440   6.536  0.5938  3.4089 -1.2297
19715TIP3   OH280559   2.115   3.731   5.733 -0.0174 -0.4365 -0.5825
19715TIP3    H180560   2.068   3.716   5.815  1.5648 -1.0248  0.2625
19715TIP3    H280561   2.109   3.648   5.686  0.2819 -0.5623 -0.4042
19716TIP3   OH280562   4.540   3.074   0.908 -0.1753  0.4521  0.4154
19716TIP3    H180563   4.629   3.107   0.917  0.3651 -1.0874  0.7101
19716TIP3    H280564   4.485   3.143   0.945  0.6837  2.6295 -2.2234
19717TIP3   OH280565   1.563   4.091   0.650 -0.0784 -0.0355 -0.0945
19717TIP3    H180566   1.507   4.093   0.572  0.9084 -0.1834 -0.8089
19717TIP3    H280567   1.645   4.052   0.620 -0.3623 -1.8908  1.4762
19718TIP3   OH280568   2.414   5.302   2.134  0.7003  0.1739 -0.0908
19718TIP3    H180569   2.451   5.390   2.139  2.3047 -0.4816  0.0243
19718TIP3    H280570   2.431   5.265   2.221  0.2275 -0.3212 -0.2111
19719TIP3   OH280571   4.520   2.652   6.680 -0.3753 -0.2450 -0.0779
19719TIP3    H180572   4.566   2.726   6.720 -1.1860 -1.4093  3.2117
19719TIP3    H280573   4.589   2.589   6.658  0.0886  0.4063 -0.4918
19720TIP3   OH280574   5.682   1.736  13.488 -0.0538  0.2658  0.1117
19720TIP3    H180575   5.749   1.755  13.553 -0.7671  1.5196  0.4955
19720TIP3    H280576   5.713   1.658  13.443  3.2791  2.6344 -1.9244
19721TIP3   OH280577   2.779   4.936  14.229 -0.3775  0.0412  0.4465
19721TIP3    H180578   2.858   4.915  14.278 -0.9118 -0.6902  1.0053
19721TIP3    H280579   2.788   5.029  14.207  1.9044 -0.6214 -1.8093
19722TIP3   OH280580   0.519   4.279   2.634  0.1076 -0.1687  0.7875
19722TIP3    H180581   0.591   4.227   2.601  0.8285 -0.4313  2.7191
19722TIP3    H280582   0.468   4.219   2.688 -1.1392  0.2141  0.0783
19723TIP3   OH280583   5.150   5.680   1.777  0.4071  0.2063  0.0070
19723TIP3    H180584   5.123   5.612   1.838  2.1492  0.7427  1.4246
19723TIP3    H280585   5.193   5.632   1.706  2.9908 -0.1497  1.7264
19724TIP3   OH280586   1.979   2.432  17.132 -0.4893 -0.1841  0.6444
19724TIP3    H180587   1.935   2.503  17.085 -1.2353 -0.0560  1.5034
19724TIP3    H280588   2.027   2.476  17.202  1.9021 -0.2405 -0.9404
19725TIP3   OH280589   3.378   6.160   0.352 -0.2478  0.2114  0.2897
19725TIP3    H180590   3.427   6.243   0.352 -1.4745  0.9878  2.4684
19725TIP3    H280591   3.323   6.165   0.430 -1.5186 -1.9942 -0.4201
19726TIP3   OH280592   1.739   0.320  11.231 -0.1706  0.1420  0.1805
19726TIP3    H180593   1.718   0.336  11.139  0.9890 -0.8162 -0.2652
19726TIP3    H280594   1.664   0.272  11.266 -0.1331 -0.4526 -0.5540
19727TIP3   OH280595   5.304   0.364   3.163 -0.2555  0.1176 -0.2013
19727TIP3    H180596   5.365   0.418   3.213  0.5647 -0.3891 -0.6273
19727TIP3    H280597   5.337   0.274   3.176 -0.7429 -0.1276 -0.6639
19728TIP3   OH280598   2.562   5.862  11.976 -0.2942 -0.6685 -0.0902
19728TIP3    H180599   2.547   5.768  11.966  0.7310 -1.1776  2.8066
19728TIP3    H280600   2.544   5.880  12.068  2.0214  1.4815 -0.0106
19729TIP3   OH280601   4.856   6.308  11.677  0.0824 -0.4134  0.0976
19729TIP3    H180602   4.915   6.245  11.635  0.2717 -0.4680  0.4431
19729TIP3    H280603   4.851   6.381  11.615  2.1274  0.5000  0.9735
19730TIP3   OH280604   2.685   4.478   5.480 -0.1579 -0.0501 -0.0493
19730TIP3    H180605   2.723   4.403   5.526  0.8617 -0.1877 -1.0645
19730TIP3    H280606   2.604   4.497   5.526 -0.2622 -1.5808  0.4205
19731TIP3   OH280607   5.289   4.690  13.339  0.1521  0.1401 -0.5229
19731TIP3    H180608   5.241   4.612  13.368 -0.6464  0.5300 -0.7908
19731TIP3    H280609   5.312   4.735  13.421  1.3857 -0.8196 -0.3239
19732TIP3   OH280610   0.408   1.344  12.121 -0.1653 -0.5062  0.3877
19732TIP3    H180611   0.413   1.261  12.075 -1.3693 -0.0823 -0.5235
19732TIP3    H280612   0.343   1.329  12.191 -0.3999 -0.3303  0.2089
19733TIP3   OH280613   5.389   6.724  13.533  0.4913 -0.5304  0.1621
19733TIP3    H180614   5.328   6.659  13.567 -0.0254 -0.6426 -0.9692
19733TIP3    H280615   5.351   6.808  13.557  0.8928 -0.6230  1.1648
19734TIP3   OH280616   1.524   0.624  16.573  0.3646 -0.0893  0.2206
19734TIP3    H180617   1.553   0.589  16.657 -0.1129  1.1854  0.9279
19734TIP3    H280618   1.430   0.606  16.571  0.1160  1.1157  0.5866
19735TIP3   OH280619   1.581   3.192  10.965 -0.5211 -0.0542 -0.4510
19735TIP3    H180620   1.508   3.234  11.010 -0.1538  0.1325 -0.0261
19735TIP3    H280621   1.657   3.211  11.020 -0.1580 -0.2691 -0.8774
19736TIP3   OH280622   3.310   5.279  13.767  0.5056  0.1814  0.1430
19736TIP3    H180623   3.221   5.244  13.764  1.4445 -2.4977  2.2478
19736TIP3    H280624   3.366   5.202  13.770  2.8534  1.8595  0.2740
19737TIP3   OH280625   5.127   6.107  14.231 -0.1778 -0.0331  0.2557
19737TIP3    H180626   5.048   6.070  14.269 -0.8302  0.2699 -0.7973
19737TIP3    H280627   5.136   6.192  14.274 -1.1241  0.4715 -0.5196
19738TIP3   OH280628   0.716   1.060   2.574  0.5072  0.0021  0.0230
19738TIP3    H180629   0.762   1.127   2.624  0.4736 -0.0307  0.0989
19738TIP3    H280630   0.744   1.073   2.484  4.1291 -2.7807  0.5824
19739TIP3   OH280631   5.937   0.218  12.960  0.2447  0.9579  0.4236
19739TIP3    H180632   6.018   0.174  12.936 -0.3468 -0.2744  0.6502
19739TIP3    H280633   5.875   0.193  12.891 -0.7731 -0.5679  1.8724
19740TIP3   OH280634   2.838   1.524   0.376 -0.4966  0.3221 -0.2692
19740TIP3    H180635   2.812   1.463   0.445  0.9629  0.6404  0.5790
19740TIP3    H280636   2.778   1.598   0.385 -0.8906 -0.0374  0.0639
19741TIP3   OH280637   2.421   5.740  13.165  0.2845  0.3793 -0.6218
19741TIP3    H180638   2.450   5.649  13.171  0.6242  0.4297 -1.4514
19741TIP3    H280639   2.459   5.772  13.083  2.0088  1.9331  0.7270
19742TIP3   OH280640   4.057   5.234  13.156 -0.1112  0.0968 -0.0628
19742TIP3    H180641   4.146   5.221  13.189  0.6658 -1.7849 -2.7680
19742TIP3    H280642   4.063   5.313  13.102  0.0061 -0.2899 -0.6101
19743TIP3   OH280643   6.708   1.936   1.083 -0.4063 -0.2443 -0.0270
19743TIP3    H180644   6.700   1.937   0.987 -1.4298  2.0099  0.0545
19743TIP3    H280645   6.778   1.873   1.100 -0.3924 -0.8788 -2.2403
19744TIP3   OH280646   4.359   0.873   3.165 -0.3836  0.3450 -0.4301
19744TIP3    H180647   4.397   0.791   3.132 -0.3544  0.3173 -0.3276
19744TIP3    H280648   4.401   0.941   3.113  0.7262  0.4015  0.5056
19745TIP3   OH280649   5.536   2.302   1.732 -0.0240 -0.1072 -0.3419
19745TIP3    H180650   5.482   2.347   1.667  1.0609  1.2633 -0.3348
19745TIP3    H280651   5.530   2.356   1.810 -1.2435 -1.7034  0.6927
19746TIP3   OH280652   4.674   2.871  13.857  0.6218  0.5765  0.2760
19746TIP3    H180653   4.683   2.793  13.802 -2.1706  0.9847 -0.8613
19746TIP3    H280654   4.729   2.853  13.934  2.3341 -1.2296 -1.3191
19747TIP3   OH280655   2.042   2.908  12.372 -0.4870  0.0275 -0.3797
19747TIP3    H180656   1.974   2.852  12.409  1.6327 -1.7300  0.9727
19747TIP3    H280657   2.073   2.860  12.295 -1.1159  1.0726 -1.2947
19748TIP3   OH280658   3.782   0.541  13.351 -0.3157 -0.0270 -0.2488
19748TIP3    H180659   3.791   0.449  13.378 -0.4509  0.1170  0.2903
19748TIP3    H280660   3.846   0.588  13.404 -0.9008  0.3204  0.1519
19749TIP3   OH280661   3.704   0.202   0.178 -0.4739  0.2560  0.1863
19749TIP3    H180662   3.694   0.280   0.123 -0.2472  0.9350  1.1018
19749TIP3    H280663   3.640   0.213   0.248 -1.6467 -1.2258 -0.6322
19750TIP3   OH280664   6.226   2.429   3.212  0.1419  0.4538 -0.1835
19750TIP3    H180665   6.163   2.483   3.261 -1.1347 -2.1717  1.1495
19750TIP3    H280666   6.180   2.407   3.131 -0.1942 -0.4459  0.2487
19751TIP3   OH280667   6.726   0.076   0.072 -0.3684  0.0763 -0.5543
19751TIP3    H180668   6.801   0.049   0.018  0.3941 -1.4630  1.2202
19751TIP3    H280669   6.679  -0.005   0.088 -1.7402  0.8588 -0.6041
19752TIP3   OH280670   5.656   3.089   2.671  0.4578  0.1812  0.3766
19752TIP3    H180671   5.723   3.089   2.738  1.3414 -0.6629 -0.4830
19752TIP3    H280672   5.668   3.171   2.624  0.0492  0.6208  1.0337
19753TIP3   OH280673   5.418   5.302  10.508  0.1860 -0.3329 -0.2263
19753TIP3    H180674   5.444   5.367  10.442  0.8158 -0.3816 -0.0278
19753TIP3    H280675   5.426   5.348  10.592 -0.8202 -0.2036 -0.1895
19754TIP3   OH280676   5.221   6.105  15.918  0.1515  1.4868  0.6963
19754TIP3    H180677   5.147   6.074  15.867 -0.3873  0.0778  2.2927
19754TIP3    H280678   5.186   6.177  15.971  0.4434  2.2164 -0.0941
19755TIP3   OH280679   0.788   6.765   1.851  0.4478 -0.6519 -0.6448
19755TIP3    H180680   0.777   6.675   1.820 -2.0311 -0.3266 -0.8521
19755TIP3    H280681   0.847   6.806   1.788 -0.5334 -1.4116 -2.0842
19756TIP3   OH280682   5.758   3.415   6.787  0.0888 -0.4646 -0.5811
19756TIP3    H180683   5.805   3.347   6.835  1.4319  0.7134 -0.1974
19756TIP3    H280684   5.826   3.477   6.759 -1.1034  0.7536 -0.8779
19757TIP3   OH280685   2.675   3.696  13.985  0.1635 -0.1605  0.3885
19757TIP3    H180686   2.701   3.760  14.052  2.8400 -1.2143  0.4184
19757TIP3    H280687   2.709   3.613  14.017  0.1827 -0.9338 -1.5581
19758TIP3   OH280688   0.352   1.966   0.366  0.0851  0.0587  0.3364
19758TIP3    H180689   0.307   2.042   0.332 -0.5837  0.2649  1.6481
19758TIP3    H280690   0.387   1.995   0.451 -0.6087 -1.2280  1.0782
19759TIP3   OH280691   5.030   0.459  10.873 -0.2502  0.2795 -0.1209
19759TIP3    H180692   5.057   0.424  10.788 -1.7137 -1.4277  0.0891
19759TIP3    H280693   5.046   0.553  10.866 -0.9456  0.2593 -2.5109
19760TIP3   OH280694   1.539   5.247   2.905  0.3030  0.3117  0.1651
19760TIP3    H180695   1.552   5.237   3.000  1.5407  1.7040  0.1522
19760TIP3    H280696   1.465   5.189   2.885 -0.1860  0.2613  2.0409
19761TIP3   OH280697   3.296   0.768   2.176  0.3039 -0.3077  0.1295
19761TIP3    H180698   3.222   0.709   2.194 -0.2941  0.5641  0.5539
19761TIP3    H280699   3.315   0.754   2.084 -0.6494 -0.2700 -0.0857
19762TIP3   OH280700   4.312   0.787  12.012  0.4090 -0.0139 -0.2670
19762TIP3    H180701   4.227   0.753  11.985  0.1358 -1.7743  2.5813
19762TIP3    H280702   4.365   0.788  11.932 -1.6888 -0.6965 -1.6853
19763TIP3   OH280703   0.446   2.397   0.790 -0.2702  0.6085 -0.1953
19763TIP3    H180704   0.495   2.399   0.708 -2.6545  0.5842 -1.6802
19763TIP3    H280705   0.490   2.331   0.843  0.4276 -0.4472 -2.0366
19764TIP3   OH280706   0.662   4.678   4.010  0.3356  0.3479 -0.0806
19764TIP3    H180707   0.717   4.600   4.025 -0.0241  0.4019  1.6574
19764TIP3    H280708   0.723   4.744   3.976  1.2936  0.2913  1.4626
19765TIP3   OH280709   3.630   5.772  14.546 -0.0910 -0.0920  0.4342
19765TIP3    H180710   3.605   5.835  14.613 -0.4835  0.2746 -0.0471
19765TIP3    H280711   3.642   5.825  14.467  1.7407 -0.3250  0.5386
19766TIP3   OH280712   4.428   2.994   0.494  0.1065 -0.2745  0.2208
19766TIP3    H180713   4.519   2.984   0.467  0.3312 -0.8349  1.1679
19766TIP3    H280714   4.422   3.083   0.528  0.3617 -0.3250  0.3954
19767TIP3   OH280715   4.629   4.517  17.036 -0.2883 -0.7884 -0.2006
19767TIP3    H180716   4.542   4.527  17.074  0.5213 -0.0991  1.4796
19767TIP3    H280717   4.616   4.453  16.965 -2.3190 -0.0066 -0.5657
19768TIP3   OH280718   4.407   6.659   5.824  0.0863  0.4596 -0.4154
19768TIP3    H180719   4.367   6.736   5.784  0.3290  1.2651  0.8573
19768TIP3    H280720   4.500   6.669   5.808  0.1197  0.4376 -0.2383
19769TIP3   OH280721   4.094   1.538   5.719  0.1289  0.2854 -0.5881
19769TIP3    H180722   4.083   1.511   5.810  1.5073  0.4528 -0.3741
19769TIP3    H280723   4.042   1.619   5.712 -2.6249 -1.4290 -0.8098
19770TIP3   OH280724   1.863   3.517  14.850 -0.2755 -0.0691  0.5188
19770TIP3    H180725   1.797   3.493  14.785 -0.2498  0.5398  0.2615
19770TIP3    H280726   1.942   3.533  14.799 -0.4454  1.1327  0.6027
19771TIP3   OH280727   4.833   0.123   2.485 -0.9115 -0.2459  0.4858
19771TIP3    H180728   4.817   0.188   2.416  2.1599  0.6904  0.6067
19771TIP3    H280729   4.802   0.165   2.565  0.2052  0.6829  0.4247
19772TIP3   OH280730   6.551   4.054  12.523 -0.1268 -0.3216 -0.3306
19772TIP3    H180731   6.556   4.144  12.555  0.9141 -1.3358  2.4557
19772TIP3    H280732   6.588   4.059  12.435  1.6303  1.6704  0.4554
19773TIP3   OH280733   5.108   0.901   6.721  0.3037  0.0624  0.4443
19773TIP3    H180734   5.040   0.860   6.668 -0.7992 -1.6197  3.0162
19773TIP3    H280735   5.177   0.835   6.727  1.7342  1.3490 -1.2427
19774TIP3   OH280736   1.229   0.091  13.842 -0.0712 -0.2188  0.0976
19774TIP3    H180737   1.302   0.031  13.827 -0.9239 -1.2005 -0.1741
19774TIP3    H280738   1.151   0.041  13.819 -0.8858  0.6122  0.9739
19775TIP3   OH280739   0.237   2.277  14.937 -0.3219 -0.3330  0.2559
19775TIP3    H180740   0.142   2.268  14.951 -0.2036 -2.2513 -0.0374
19775TIP3    H280741   0.273   2.192  14.961  1.4380  0.6229  1.0668
19776TIP3   OH280742   1.178   3.488   0.362  0.3889 -0.0269 -0.1244
19776TIP3    H180743   1.179   3.458   0.271  1.8862  0.2696 -0.2208
19776TIP3    H280744   1.261   3.533   0.373 -0.2199  0.8305  1.1086
19777TIP3   OH280745   1.191   5.227   5.529  0.5133  0.4661 -0.4317
19777TIP3    H180746   1.121   5.292   5.541  1.3472  1.0879  1.2132
19777TIP3    H280747   1.149   5.143   5.547  0.2061  0.8423  0.6646
19778TIP3   OH280748   2.528   5.031  14.562  0.4276 -0.3835  0.4351
19778TIP3    H180749   2.488   4.945  14.577 -0.5385  0.1633  1.0087
19778TIP3    H280750   2.477   5.091  14.616  1.6920  0.4150  0.7615
19779TIP3   OH280751   2.690   5.592   1.311 -0.3704 -0.1885 -0.5221
19779TIP3    H180752   2.626   5.602   1.381  1.7142 -0.8129  1.5777
19779TIP3    H280753   2.642   5.552   1.239 -2.8686  1.6078  0.0817
19780TIP3   OH280754   4.836   6.601  12.827 -0.0109 -0.1484  0.6466
19780TIP3    H180755   4.890   6.616  12.905 -0.0085  0.3898  0.5495
19780TIP3    H280756   4.895   6.559  12.765  0.2727  0.3269  0.5854
19781TIP3   OH280757   3.575   3.020   0.159 -0.0477  0.4113  0.6747
19781TIP3    H180758   3.525   3.051   0.235  0.3634  0.5394  0.8923
19781TIP3    H280759   3.514   2.963   0.112  0.1484 -0.7995  1.8534
19782TIP3   OH280760   0.859   0.712  15.155 -0.0227 -0.3395 -0.5159
19782TIP3    H180761   0.830   0.640  15.211 -1.7383  0.2153 -0.6732
19782TIP3    H280762   0.926   0.673  15.098 -0.8683 -1.7806 -0.5325
19783TIP3   OH280763   3.718   0.392   0.690 -0.2146 -0.0963  0.1526
19783TIP3    H180764   3.744   0.300   0.690  0.8779  0.1915 -1.4222
19783TIP3    H280765   3.797   0.440   0.713 -0.9651  0.4281  1.7346
19784TIP3   OH280766   5.337   0.238  15.451  0.0689 -0.1263 -0.1082
19784TIP3    H180767   5.334   0.179  15.527  1.9948 -0.8928 -0.5911
19784TIP3    H280768   5.416   0.212  15.404 -0.9939  0.4731 -2.2949
19785TIP3   OH280769   1.298   4.092   2.591 -0.3646  0.1608  0.2164
19785TIP3    H180770   1.236   4.101   2.518 -1.7198 -0.2690  1.2922
19785TIP3    H280771   1.355   4.169   2.583 -1.5364  0.9961 -0.3446
19786TIP3   OH280772   3.199   2.580   6.043  0.1712 -0.2870 -0.4610
19786TIP3    H180773   3.153   2.498   6.064  1.4435 -1.1707 -1.0851
19786TIP3    H280774   3.280   2.576   6.093  0.3066  0.5316 -0.6116
19787TIP3   OH280775   0.147   0.619   0.223 -0.9582  0.1105 -0.3635
19787TIP3    H180776   0.112   0.675   0.154 -0.3798 -1.8879 -2.3695
19787TIP3    H280777   0.130   0.530   0.192  2.4308 -0.8841  0.3625
19788TIP3   OH280778   0.484   0.618   4.608 -0.2686  0.1721 -0.5860
19788TIP3    H180779   0.413   0.678   4.584 -2.0054 -1.6107 -0.0362
19788TIP3    H280780   0.524   0.593   4.525 -2.0714 -0.9282 -1.1454
19789TIP3   OH280781   2.516   4.435   2.843  0.2762  0.2432 -0.8179
19789TIP3    H180782   2.485   4.522   2.867 -0.4815  0.1892 -1.5623
19789TIP3    H280783   2.607   4.448   2.815  1.4855  0.1641  2.8889
19790TIP3   OH280784   2.600   3.159   0.089 -0.2780  0.3010 -0.0207
19790TIP3    H180785   2.611   3.073   0.048  0.1291 -0.4756  1.6855
19790TIP3    H280786   2.524   3.148   0.146  0.3975  0.7862  0.9769
19791TIP3   OH280787   0.729   6.122  14.165 -0.0559 -0.0012  0.0794
19791TIP3    H180788   0.682   6.169  14.097 -0.3767  0.9067  0.9154
19791TIP3    H280789   0.696   6.159  14.247  0.4934 -0.9100  0.7228
19792TIP3   OH280790   3.093   1.045   0.267  0.0911  0.0206  0.0554
19792TIP3    H180791   3.165   1.103   0.292  0.0937  0.3339 -0.6635
19792TIP3    H280792   3.014   1.096   0.282  0.0162 -0.3407  0.8907
19793TIP3   OH280793   5.681   4.443  14.761  0.1958  0.1146  0.2102
19793TIP3    H180794   5.666   4.358  14.720  0.4855  0.3696 -0.4244
19793TIP3    H280795   5.748   4.427  14.827  2.6070  0.4570 -2.0627
19794TIP3   OH280796   4.878   1.474  14.516  0.0817  0.0952 -0.0995
19794TIP3    H180797   4.957   1.514  14.551 -0.0541  0.5178 -0.2684
19794TIP3    H280798   4.815   1.546  14.509 -0.3120 -0.2331  0.0178
19795TIP3   OH280799   3.084   5.288   4.466 -0.5929 -0.9154  0.7095
19795TIP3    H180800   3.033   5.207   4.459 -0.4291 -1.0814  1.4767
19795TIP3    H280801   3.122   5.299   4.378 -0.5383 -1.7190  0.6231
19796TIP3   OH280802   4.631   1.338   5.679  0.6697  0.0006  0.5775
19796TIP3    H180803   4.538   1.361   5.683  0.6771  0.0552  0.4403
19796TIP3    H280804   4.658   1.331   5.770  0.3244 -0.8559  0.6167
19797TIP3   OH280805   3.763   2.622   0.218  0.0587 -0.0160 -0.3529
19797TIP3    H180806   3.684   2.659   0.257  0.0995  0.0495 -0.3317
19797TIP3    H280807   3.735   2.589   0.133  0.2765  1.1827 -0.9020
19798TIP3   OH280808   3.814   3.454  12.169 -0.1135 -0.5130 -0.3246
19798TIP3    H180809   3.861   3.380  12.206 -2.3626 -0.7794  2.1907
19798TIP3    H280810   3.863   3.531  12.198  1.1250 -0.9151 -1.3090
19799TIP3   OH280811   0.744   4.459  16.733 -0.0370  0.1541 -0.0738
19799TIP3    H180812   0.652   4.471  16.754 -0.3176 -0.0317 -1.1637
19799TIP3    H280813   0.752   4.486  16.641  0.4523 -2.3942 -0.8307
19800TIP3   OH280814   3.111   2.745  12.414  0.2285  0.6021  0.4790
19800TIP3    H180815   3.053   2.670  12.424  0.4165  0.4342  0.3321
19800TIP3    H280816   3.194   2.715  12.452 -0.4937  1.7209  3.0493
19801TIP3   OH280817   2.275   4.924  15.350  0.0384  0.1758  0.0425
19801TIP3    H180818   2.235   5.006  15.377  1.5977  1.3952 -1.2249
19801TIP3    H280819   2.325   4.946  15.272  0.8083 -1.8982 -0.0923
19802TIP3   OH280820   1.599   4.111  12.181 -0.3793 -0.8312 -0.6051
19802TIP3    H180821   1.563   4.164  12.110  0.7273 -0.2472 -0.7367
19802TIP3    H280822   1.523   4.065  12.217 -1.1975  0.0997 -1.1160
19803TIP3   OH280823   3.739   5.482   6.464 -0.5647  0.6333 -0.1490
19803TIP3    H180824   3.778   5.500   6.549  1.4349 -0.1204 -0.8847
19803TIP3    H280825   3.722   5.388   6.465 -2.0524  0.8905  0.0187
19804TIP3   OH280826   6.367   3.559  11.918  0.0184 -0.0272  0.1035
19804TIP3    H180827   6.274   3.552  11.898 -0.1408 -0.4188  0.9781
19804TIP3    H280828   6.385   3.488  11.979  0.8332  0.2054  0.1484
19805TIP3   OH280829   0.253   6.126   4.408 -0.3839 -0.5753  0.1187
19805TIP3    H180830   0.268   6.182   4.484 -2.0798 -1.1911  0.9342
19805TIP3    H280831   0.277   6.038   4.438  0.4643 -0.5856 -0.5693
19806TIP3   OH280832   3.783   2.096  11.336  0.2693  0.1173 -0.4207
19806TIP3    H180833   3.788   2.001  11.348  0.1444  0.3859  2.0246
19806TIP3    H280834   3.865   2.129  11.373 -0.0534  1.0297 -0.5180
19807TIP3   OH280835   6.269   0.038   3.154  0.0873 -0.7693 -0.3309
19807TIP3    H180836   6.340   0.081   3.201  0.1411 -0.6120 -0.5526
19807TIP3    H280837   6.280   0.065   3.063 -1.4417  0.8814 -0.0556
19808TIP3   OH280838   0.776   4.044  10.928 -0.1175 -0.1061 -0.1851
19808TIP3    H180839   0.739   4.131  10.938 -2.4129 -0.8424 -1.8840
19808TIP3    H280840   0.783   4.011  11.018 -1.2099  1.0236  0.3365
19809TIP3   OH280841   3.154   5.281   2.704 -0.1586 -0.0688  0.4500
19809TIP3    H180842   3.124   5.250   2.789 -0.6563  0.2948  0.4067
19809TIP3    H280843   3.143   5.376   2.708  0.8760  0.0646  0.3982
19810TIP3   OH280844   2.428   3.915   6.309  0.4798  0.0078 -0.5131
19810TIP3    H180845   2.407   3.992   6.362 -1.0025  0.0999 -1.2104
19810TIP3    H280846   2.433   3.948   6.219 -0.6524 -0.7847 -0.8777
19811TIP3   OH280847   2.084   5.724  12.860 -0.6888  0.0212  0.0073
19811TIP3    H180848   2.041   5.643  12.887  0.2221  0.3158  2.4602
19811TIP3    H280849   2.172   5.697  12.833 -0.2954  0.2076  1.0791
19812TIP3   OH280850   1.542   1.113  11.247 -0.3037 -0.1838 -0.2130
19812TIP3    H180851   1.606   1.118  11.176 -0.8843 -2.1458 -0.9051
19812TIP3    H280852   1.592   1.134  11.326  0.8313 -0.1307 -0.9371
19813TIP3   OH280853   3.547   0.628  15.762  0.6349  0.1372  0.2932
19813TIP3    H180854   3.560   0.567  15.835  1.4177  1.0170  0.8943
19813TIP3    H280855   3.577   0.580  15.685  0.1739 -0.6539  0.5933
19814TIP3   OH280856   5.056   0.472   1.183 -0.2757 -0.9337  0.2326
19814TIP3    H180857   5.011   0.552   1.158 -0.5251 -1.0939  0.1738
19814TIP3    H280858   5.132   0.503   1.233 -0.2045 -0.6496 -0.0457
19815TIP3   OH280859   4.614   1.753  15.829 -0.8860  0.1650 -0.0025
19815TIP3    H180860   4.564   1.704  15.894  1.8205 -0.7764  1.4623
19815TIP3    H280861   4.587   1.844  15.841 -1.6524 -0.2203  1.2905
19816TIP3   OH280862   4.885   3.389  15.519 -0.2500  0.0070 -0.2225
19816TIP3    H180863   4.804   3.393  15.570  0.9929  1.8873  1.6969
19816TIP3    H280864   4.856   3.391  15.428 -2.3627  1.1571  0.4301
19817TIP3   OH280865   4.799   3.821  13.351  0.0473 -0.1189 -0.1678
19817TIP3    H180866   4.801   3.917  13.358 -0.9607 -0.0319 -1.0003
19817TIP3    H280867   4.800   3.791  13.442 -3.8195  0.7899  0.2690
19818TIP3   OH280868   4.027   4.882   1.405  0.1257 -0.5985 -0.2396
19818TIP3    H180869   4.094   4.950   1.422 -0.5330  0.1931 -0.7732
19818TIP3    H280870   3.989   4.907   1.321 -1.6422 -0.3866  0.6103
19819TIP3   OH280871   5.349   5.934   1.195  0.6243 -0.3858 -0.1275
19819TIP3    H180872   5.342   5.840   1.174  0.2986 -0.4297  0.1727
19819TIP3    H280873   5.259   5.961   1.214  0.5740  0.2184 -1.1632
19820TIP3   OH280874   2.257   3.070  12.293 -0.4957 -0.3459  0.1495
19820TIP3    H180875   2.257   3.166  12.285  0.4634 -0.2682  0.9908
19820TIP3    H280876   2.207   3.053  12.373 -0.6146 -0.5503  0.0323
19821TIP3   OH280877   6.654   2.983   3.645 -0.2881  0.1642 -0.1521
19821TIP3    H180878   6.744   2.951   3.647 -0.5650 -0.8048 -1.7652
19821TIP3    H280879   6.653   3.048   3.574 -0.8136  0.2994 -0.0284
19822TIP3   OH280880   6.028   1.574  17.157 -0.5728 -0.0708 -0.5043
19822TIP3    H180881   6.000   1.543  17.071  0.4670 -0.1877 -0.8071
19822TIP3    H280882   6.051   1.666  17.142 -0.5875 -0.0341 -0.3001
19823TIP3   OH280883   4.521   0.983   0.863  0.2524 -0.2973  0.4499
19823TIP3    H180884   4.445   0.980   0.921 -1.0249 -2.6380 -1.2790
19823TIP3    H280885   4.591   0.942   0.913 -0.0693  0.2967  1.4049
19824TIP3   OH280886   1.057   2.826  12.506 -0.0983  0.1602 -0.1320
19824TIP3    H180887   1.139   2.874  12.519 -0.6211  1.2039 -0.6079
19824TIP3    H280888   1.085   2.738  12.483  0.9577  0.9340 -2.0070
19825TIP3   OH280889   2.788   1.290   2.152  0.7242 -0.6698 -0.0552
19825TIP3    H180890   2.735   1.250   2.083  1.0611  0.3257 -0.9044
19825TIP3    H280891   2.725   1.317   2.218  0.4857 -2.5358  0.5143
19826TIP3   OH280892   3.536   3.056   2.564 -0.0318 -0.0186  0.0496
19826TIP3    H180893   3.517   3.117   2.493 -1.1582  1.7553  1.8180
19826TIP3    H280894   3.458   3.000   2.568  0.3260 -0.5721 -0.5327
19827TIP3   OH280895   4.012   2.515  13.116  0.2404 -0.0866 -0.3353
19827TIP3    H180896   4.076   2.581  13.091 -2.0199  2.3179 -0.0814
19827TIP3    H280897   3.932   2.540  13.069 -0.9584 -2.0359  0.5814
19828TIP3   OH280898   6.438   0.844   5.898  0.4303 -0.0458  0.1144
19828TIP3    H180899   6.425   0.793   5.818  0.3926  0.8674 -0.4661
19828TIP3    H280900   6.457   0.778   5.965  1.6754 -0.7412 -0.8958
19829TIP3   OH280901   0.999   4.095  14.228  0.4376 -0.0641  0.0748
19829TIP3    H180902   0.915   4.121  14.266 -0.3772 -2.8387  0.2670
19829TIP3    H280903   1.009   4.152  14.151 -1.8781 -0.0590 -0.2433
19830TIP3   OH280904   5.174   4.971  14.663 -0.8014 -0.1533 -0.0643
19830TIP3    H180905   5.139   5.046  14.614 -1.1164 -1.0773 -1.2755
19830TIP3    H280906   5.097   4.918  14.682 -0.3988 -0.8798 -0.4501
19831TIP3   OH280907   6.572   4.895  17.215 -0.3979  0.3970 -0.0370
19831TIP3    H180908   6.497   4.836  17.227  0.9658 -0.8832  2.5273
19831TIP3    H280909   6.626   4.852  17.149 -0.3266 -0.3389  0.4879
19832TIP3   OH280910   3.903   5.061   5.530  0.0554 -0.1634 -0.6064
19832TIP3    H180911   3.966   4.988   5.527 -0.6370 -0.7203 -1.8460
19832TIP3    H280912   3.953   5.137   5.500  0.9276  0.0016  1.1930
19833TIP3   OH280913   5.399   5.817   2.939 -0.2982 -0.1820 -0.4437
19833TIP3    H180914   5.342   5.887   2.908 -1.1889 -0.7193 -0.0379
19833TIP3    H280915   5.404   5.830   3.034 -0.3925 -0.6029 -0.3783
19834TIP3   OH280916   6.519   3.208  16.423  0.0215  0.1169 -0.0635
19834TIP3    H180917   6.466   3.258  16.485  0.4177 -1.3464  1.4798
19834TIP3    H280918   6.465   3.205  16.344 -1.4887  0.0830  0.9373
19835TIP3   OH280919   2.220   1.931   3.601  0.2936 -0.5259  0.1848
19835TIP3    H180920   2.142   1.978   3.571 -0.0599 -1.3930 -0.2892
19835TIP3    H280921   2.188   1.872   3.669  0.8633  0.4401  1.3093
19836TIP3   OH280922   5.389   2.975   5.315  0.5067  0.8818 -0.2442
19836TIP3    H180923   5.370   2.988   5.408  2.1270 -0.5889  0.3119
19836TIP3    H280924   5.481   2.949   5.313  0.2513  0.0703 -2.2040
19837TIP3   OH280925   2.566   2.603   0.656 -0.4505 -0.1981  0.1630
19837TIP3    H180926   2.626   2.579   0.727 -0.0917 -0.4616 -0.2291
19837TIP3    H280927   2.492   2.544   0.666  0.2667 -1.2372 -0.5804
19838TIP3   OH280928   4.454   3.284   1.165  0.1279  0.5576  0.3707
19838TIP3    H180929   4.390   3.312   1.101  0.5278 -0.0315 -0.2897
19838TIP3    H280930   4.404   3.272   1.246 -0.7466 -0.6836 -0.3404
19839TIP3   OH280931   5.373   3.395   1.156  0.0520  0.0946  0.3320
19839TIP3    H180932   5.358   3.342   1.077  1.1257 -0.2625  0.3698
19839TIP3    H280933   5.345   3.338   1.228 -1.2829  0.5562  0.2017
19840TIP3   OH280934   2.815   5.034  13.258 -0.0757  0.2649 -0.4619
19840TIP3    H180935   2.836   5.018  13.350 -1.3557 -1.6769 -0.4669
19840TIP3    H280936   2.894   5.010  13.210  0.2897  0.4157  0.0590
19841TIP3   OH280937   0.737   4.513   4.611  0.5387 -0.3025  0.4340
19841TIP3    H180938   0.731   4.494   4.518  2.4760  2.0673 -0.1983
19841TIP3    H280939   0.795   4.444   4.646  0.0979 -0.9737 -0.1464
19842TIP3   OH280940   2.650   5.802   2.231 -0.3390 -0.3799 -0.6519
19842TIP3    H180941   2.696   5.763   2.306 -0.2575  0.5576 -0.2138
19842TIP3    H280942   2.703   5.776   2.156 -0.2044 -0.9966 -0.3554
19843TIP3   OH280943   5.243   1.302  12.683  0.5372 -0.3698 -0.4857
19843TIP3    H180944   5.289   1.221  12.703 -1.5883 -2.5536 -3.9828
19843TIP3    H280945   5.162   1.297  12.734  0.5487 -0.2358 -0.4509
19844TIP3   OH280946   2.978   4.177  14.835 -0.3411  0.5491 -0.1506
19844TIP3    H180947   3.012   4.129  14.759 -1.4985 -0.8070  0.1791
19844TIP3    H280948   3.035   4.151  14.907 -2.0748 -1.8293  0.4320
19845TIP3   OH280949   5.767   2.839   3.418  0.3706  0.5000  0.3348
19845TIP3    H180950   5.705   2.872   3.484  0.4233 -0.5349  0.9124
19845TIP3    H280951   5.724   2.761   3.382  0.9680  0.2609  0.1383
19846TIP3   OH280952   4.378   3.426  16.212  0.3258  0.2057 -0.7830
19846TIP3    H180953   4.462   3.381  16.208  0.3401  0.0663  0.7539
19846TIP3    H280954   4.315   3.364  16.175  0.6101 -0.4163 -0.2299
19847TIP3   OH280955   6.768   0.580   4.469 -0.2905 -0.1603  0.3056
19847TIP3    H180956   6.716   0.514   4.515 -1.3138  1.5006  1.5861
19847TIP3    H280957   6.824   0.530   4.410  0.4512 -2.3249  2.7331
19848TIP3   OH280958   6.179   3.207   3.537 -0.0477 -0.1952  0.4377
19848TIP3    H180959   6.122   3.142   3.496  0.8405 -1.2106  0.7691
19848TIP3    H280960   6.143   3.220   3.624 -1.2373  1.0708 -0.2155
19849TIP3   OH280961   1.555   0.511   2.004  0.2052  0.1874 -0.2905
19849TIP3    H180962   1.495   0.438   2.020  1.2907 -0.7750 -0.5868
19849TIP3    H280963   1.637   0.485   2.046  0.1754  1.8630  0.8218
19850TIP3   OH280964   3.026   3.485  15.177 -0.1458 -0.8344  0.2097
19850TIP3    H180965   2.983   3.566  15.149  1.2221 -0.5864 -1.2586
19850TIP3    H280966   3.067   3.507  15.261  0.2227  0.0039 -0.1841
19851TIP3   OH280967   6.566   2.710  14.444 -0.3234  0.4989 -0.8739
19851TIP3    H180968   6.525   2.636  14.398 -0.2814  2.1531 -3.7332
19851TIP3    H280969   6.628   2.745  14.380  2.6305  0.5446  1.9127
19852TIP3   OH280970   1.845   6.593  15.631 -0.2557 -0.3896 -0.3108
19852TIP3    H180971   1.849   6.532  15.704 -1.4413 -2.8403 -2.2171
19852TIP3    H280972   1.877   6.544  15.556  1.2802  2.1882 -1.4190
19853TIP3   OH280973   6.431   6.741  15.583 -0.0522  0.3552 -0.5453
19853TIP3    H180974   6.360   6.805  15.587 -0.1463  0.1834  0.8758
19853TIP3    H280975   6.498   6.781  15.528 -0.4322  1.3365 -0.2880
19854TIP3   OH280976   6.174   2.577   0.147 -0.2641  0.7089  0.1538
19854TIP3    H180977   6.198   2.636   0.218 -0.5168 -0.8135  1.5465
19854TIP3    H280978   6.195   2.489   0.180 -0.4412 -0.0328 -1.6278
19855TIP3   OH280979   4.391   2.123   0.416 -0.0400  0.6245 -0.7240
19855TIP3    H180980   4.298   2.105   0.427  0.0322  0.0323 -1.0594
19855TIP3    H280981   4.398   2.218   0.422 -0.6406  0.6588 -0.5231
19856TIP3   OH280982   2.716   0.242   5.282 -0.0486 -0.4925  0.5459
19856TIP3    H180983   2.649   0.291   5.329  1.9601  1.5048  1.4076
19856TIP3    H280984   2.700   0.259   5.190 -0.1027  0.8181  0.7983
19857TIP3   OH280985   0.619   5.618   2.085 -0.2132 -0.0305  0.4790
19857TIP3    H180986   0.692   5.679   2.068  0.3891 -0.8433  0.1238
19857TIP3    H280987   0.574   5.655   2.161  0.5306  0.5131  0.6596
19858TIP3   OH280988   5.643   4.910  10.880 -0.2848 -0.5796 -0.1141
19858TIP3    H180989   5.632   4.987  10.824  4.1784 -0.5117 -1.0225
19858TIP3    H280990   5.637   4.945  10.969 -0.9818  0.3586 -0.5174
19859TIP3   OH280991   0.042   0.067   6.324 -0.0125 -0.3637  0.0268
19859TIP3    H180992   0.079   0.018   6.250  1.1882  0.8590 -0.2209
19859TIP3    H280993   0.119   0.095   6.374 -0.6521  1.3244  0.0958
19860TIP3   OH280994   1.092   4.409  17.120  0.3399 -0.1371 -0.7488
19860TIP3    H180995   1.015   4.353  17.132  0.2880  0.1364  0.2395
19860TIP3    H280996   1.159   4.369  17.175  0.0374  1.2620  0.6578
19861TIP3   OH280997   6.283   3.586   5.307  0.5330 -0.0563 -1.1977
19861TIP3    H180998   6.276   3.551   5.396  2.2639  0.8772 -0.6920
19861TIP3    H280999   6.267   3.680   5.316  0.3627 -0.0076 -1.9390
19862TIP3   OH281000   4.668   4.383   4.702 -0.4031  0.3762  0.1642
19862TIP3    H181001   4.707   4.358   4.618  0.4710 -0.3847  0.7751
19862TIP3    H281002   4.665   4.301   4.752  1.1401  1.1933  1.6797
19863TIP3   OH281003   4.153   3.616   5.942 -0.4744 -0.2247  0.1743
19863TIP3    H181004   4.103   3.616   6.023 -1.1324  0.3367 -0.2288
19863TIP3    H281005   4.106   3.677   5.884  1.3421  1.2825  0.2155
19864TIP3   OH281006   6.688   1.886  17.036  0.3051  0.1532 -0.6001
19864TIP3    H181007   6.767   1.940  17.025 -0.1027  0.8420 -0.1927
19864TIP3    H281008   6.643   1.891  16.952  1.3081 -1.2540 -1.2481
19865TIP3   OH281009   1.309   3.265   3.676 -0.0574  0.5122  0.2505
19865TIP3    H181010   1.237   3.325   3.693  0.0943  0.2406  1.9693
19865TIP3    H281011   1.386   3.310   3.709  0.0430 -0.6375  1.6457
19866TIP3   OH281012   6.294   5.955   1.849  0.2048 -0.2350  0.3084
19866TIP3    H181013   6.358   5.917   1.910 -1.3969 -2.7846  0.5050
19866TIP3    H281014   6.209   5.932   1.888 -0.8300 -0.0051 -1.7727
19867TIP3   OH281015   3.721   1.460   1.322 -0.3440 -0.1192  0.0219
19867TIP3    H181016   3.701   1.458   1.229 -1.0261  1.3944  0.1272
19867TIP3    H281017   3.779   1.535   1.333  0.0755 -0.5467  0.7460
19868TIP3   OH281018   0.958   2.706   3.009 -0.2645 -0.0416  0.4499
19868TIP3    H181019   0.970   2.648   3.084  0.3518 -2.1021 -1.1680
19868TIP3    H281020   1.045   2.743   2.994 -0.3612  0.2795  0.6844
19869TIP3   OH281021   0.193   3.794  15.613  0.0558  0.1301  0.5069
19869TIP3    H181022   0.112   3.835  15.646  0.4353  0.8086  0.6020
19869TIP3    H281023   0.227   3.744  15.688 -0.8192 -1.0103  0.1640
19870TIP3   OH281024   0.489   1.916  11.935 -0.0865 -0.0919  0.5375
19870TIP3    H181025   0.492   1.822  11.918 -0.6721  0.0135 -0.1863
19870TIP3    H281026   0.400   1.932  11.965 -0.3371  0.4096 -0.4488
19871TIP3   OH281027   4.970   1.034  11.471  0.0619  0.8777  0.0796
19871TIP3    H181028   5.045   1.092  11.482  0.8712 -0.2132  0.3843
19871TIP3    H281029   4.998   0.971  11.405 -0.6575  0.6008  0.0369
19872TIP3   OH281030   2.867   3.424   3.475  0.3002 -0.2094  0.1707
19872TIP3    H181031   2.818   3.343   3.460 -0.1337  0.5096 -2.4943
19872TIP3    H281032   2.957   3.402   3.451  0.0357  0.3018 -1.3220
19873TIP3   OH281033   2.555   2.668   0.188 -0.0028 -0.2519 -1.1439
19873TIP3    H181034   2.581   2.602   0.124  0.4389 -0.1174 -1.1026
19873TIP3    H281035   2.606   2.647   0.267 -1.1429 -0.9172 -0.5661
19874TIP3   OH281036   1.239   1.927  12.909 -0.0773  0.0111 -0.0883
19874TIP3    H181037   1.172   1.965  12.853  0.8109 -1.3867 -2.1499
19874TIP3    H281038   1.293   2.002  12.935 -1.0183  0.7949 -0.3797
19875TIP3   OH281039   6.663   3.584  13.368  0.3543  0.2955  0.1463
19875TIP3    H181040   6.668   3.501  13.415 -3.6683 -0.1555 -0.0227
19875TIP3    H281041   6.733   3.637  13.406  2.0980 -2.6513  1.2387
19876TIP3   OH281042   0.387   6.397   2.134 -0.2725 -0.2318  0.1468
19876TIP3    H181043   0.466   6.342   2.140 -0.2172 -0.5721 -2.8374
19876TIP3    H281044   0.421   6.486   2.130 -0.0333 -0.3739 -1.0731
19877TIP3   OH281045   1.120   4.358   0.617 -0.2038 -0.7645  0.4004
19877TIP3    H181046   1.089   4.410   0.543 -0.2084 -3.1356 -1.2930
19877TIP3    H281047   1.041   4.316   0.652 -0.1046 -0.1599  1.4057
19878TIP3   OH281048   1.317   5.912   0.844 -0.3389 -0.1744 -0.1065
19878TIP3    H181049   1.379   5.856   0.892 -0.9539 -0.0105  0.8813
19878TIP3    H281050   1.231   5.881   0.871 -0.6908  2.2059  1.5923
19879TIP3   OH281051   1.402   3.335  13.345  0.6160  0.4013  0.1730
19879TIP3    H181052   1.443   3.417  13.372  0.4259  1.2465 -1.9996
19879TIP3    H281053   1.309   3.357  13.336  0.5732 -0.0217 -0.4543
19880TIP3   OH281054   3.267   1.519  12.954 -0.0183 -0.1658  0.2879
19880TIP3    H181055   3.264   1.545  12.862 -0.2160 -0.1604  0.2967
19880TIP3    H281056   3.177   1.530  12.986 -0.0982 -0.8111  0.3018
19881TIP3   OH281057   1.860   0.682  12.344 -0.3690 -0.7804  0.1058
19881TIP3    H181058   1.809   0.763  12.337  0.9527 -0.0861 -1.8179
19881TIP3    H281059   1.872   0.653  12.253  1.3037 -1.7689  0.6206
19882TIP3   OH281060   3.468   5.159   0.092  0.3877 -0.3763  0.1991
19882TIP3    H181061   3.547   5.154   0.145 -0.1925 -1.8488  0.9394
19882TIP3    H281062   3.437   5.068   0.086  0.0163 -0.1458 -2.0047
19883TIP3   OH281063   2.786   2.223   4.485 -0.6009  0.5348 -0.5617
19883TIP3    H181064   2.780   2.182   4.399 -2.4887  2.2090 -1.2697
19883TIP3    H281065   2.859   2.285   4.477 -1.3389  1.3278 -1.2626
19884TIP3   OH281066   6.496   4.093  11.547  0.1916 -0.4098 -0.1000
19884TIP3    H181067   6.495   4.187  11.528 -2.1791 -0.3397  0.2218
19884TIP3    H281068   6.525   4.052  11.465  0.5309  0.5404 -0.4595
19885TIP3   OH281069   1.905   6.153  16.978 -0.1337  0.2639 -0.0079
19885TIP3    H181070   1.924   6.059  16.974  0.9201  0.4912 -0.6891
19885TIP3    H281071   1.962   6.186  17.048 -0.0719  0.4833 -0.1580
19886TIP3   OH281072   3.286   2.010   6.076  0.1348  0.1853  0.0561
19886TIP3    H181073   3.329   1.971   6.152  1.8997 -0.9696 -1.5112
19886TIP3    H281074   3.269   2.101   6.103 -2.5522 -1.1302  3.1160
19887TIP3   OH281075   2.350   3.207  15.099  0.2459  0.3248 -0.7034
19887TIP3    H181076   2.368   3.167  15.014 -0.9831 -0.4238 -0.6423
19887TIP3    H281077   2.379   3.142  15.163 -0.5232  0.0847 -0.5857
19888TIP3   OH281078   5.131   5.948  12.950 -0.1807 -0.3270  0.0223
19888TIP3    H181079   5.153   5.965  13.041 -0.9937  0.3983  0.0891
19888TIP3    H281080   5.199   5.888  12.919  0.5714  0.0826  0.8622
19889TIP3   OH281081   3.546   0.162  11.737  0.3327 -0.2712  0.2170
19889TIP3    H181082   3.544   0.120  11.822  1.3346  2.2628  1.5612
19889TIP3    H281083   3.477   0.229  11.741  1.6916  1.1975 -0.1958
19890TIP3   OH281084   4.948   5.370  11.321  0.1062 -0.4381  0.3856
19890TIP3    H181085   5.017   5.408  11.267  0.0897 -0.5524  0.2834
19890TIP3    H281086   4.908   5.445  11.366 -0.7178 -0.1943 -0.7358
19891TIP3   OH281087   1.955   1.530  11.028 -0.2520  0.0203  0.1618
19891TIP3    H181088   2.046   1.547  11.051 -0.0341 -0.4304 -0.3722
19891TIP3    H281089   1.935   1.445  11.067 -1.3586  1.4599  2.8711
19892TIP3   OH281090   5.205   6.260  17.092 -0.7938 -0.8499  0.7479
19892TIP3    H181091   5.216   6.342  17.141  2.6594 -1.8788  1.8072
19892TIP3    H281092   5.117   6.230  17.116 -1.3215  1.4896  1.9132
19893TIP3   OH281093   0.308   0.730  16.607 -0.3607 -0.2095 -0.3504
19893TIP3    H181094   0.249   0.673  16.557 -1.2803  1.4978 -1.2494
19893TIP3    H281095   0.395   0.696  16.587 -0.8407 -0.7494 -1.5870
19894TIP3   OH281096   6.761   4.870  16.487  0.2221  0.0058  0.2613
19894TIP3    H181097   6.825   4.846  16.419  2.4055  2.2176  1.4719
19894TIP3    H281098   6.686   4.902  16.438 -0.1723 -2.9853 -1.2120
19895TIP3   OH281099   5.929   4.550  11.336 -0.1333 -0.4410 -0.3730
19895TIP3    H181100   5.936   4.472  11.281 -1.5370 -1.6477  1.0800
19895TIP3    H281101   5.963   4.523  11.421 -1.6526  0.1795  0.4609
19896TIP3   OH281102   3.528   2.407   5.401 -0.6254  0.2186 -0.4239
19896TIP3    H181103   3.487   2.484   5.361 -1.0099 -1.0424 -2.5183
19896TIP3    H281104   3.616   2.406   5.363 -0.3749  0.0317  0.1631
19897TIP3   OH281105   4.863   5.613   2.190  0.6344 -0.2246  0.9218
19897TIP3    H181106   4.911   5.609   2.107  0.6620 -0.6477  0.9596
19897TIP3    H281107   4.906   5.549   2.247  0.1892 -0.4243  1.0405
19898TIP3   OH281108   0.433   6.111  15.296 -0.4063  0.0523  0.1748
19898TIP3    H181109   0.383   6.083  15.373 -1.1884 -0.3177 -0.4610
19898TIP3    H281110   0.383   6.185  15.262  1.1554  1.6699  1.3198
19899TIP3   OH281111   0.706   4.560   4.895 -0.1053 -0.0876 -0.2427
19899TIP3    H181112   0.703   4.562   4.799  2.1001  1.3178 -0.3085
19899TIP3    H281113   0.748   4.642   4.920  1.1812 -1.3311  1.8509
19900TIP3   OH281114   1.631   2.625   6.994 -0.1823  0.3777 -0.3608
19900TIP3    H181115   1.704   2.582   6.948  0.2370 -1.2392  1.7206
19900TIP3    H281116   1.561   2.560   6.992 -0.4072  0.5847  0.6121
19901TIP3   OH281117   5.064   2.674   2.387 -0.1619  0.0292 -0.2951
19901TIP3    H181118   5.102   2.703   2.470 -0.4081 -2.2394  0.6394
19901TIP3    H281119   5.135   2.686   2.324  0.0945  1.5772  0.2534
19902TIP3   OH281120   2.582   4.949   2.665  0.0322  0.4236  0.0009
19902TIP3    H181121   2.656   5.000   2.632 -1.3672  1.4224 -1.7046
19902TIP3    H281122   2.584   4.868   2.613  1.7749 -0.9788  2.1530
19903TIP3   OH281123   0.021   0.117   1.534 -0.3149  0.2954  0.4369
19903TIP3    H181124   0.059   0.075   1.457 -1.6060  0.0689 -0.0891
19903TIP3    H281125   0.023   0.211   1.514 -4.3776  0.0093 -1.6502
19904TIP3   OH281126   4.871   2.329  12.651  0.2334 -0.0375 -0.7442
19904TIP3    H181127   4.877   2.234  12.656 -0.6137  0.0217  2.4461
19904TIP3    H281128   4.781   2.349  12.678  0.4441  1.6781 -1.2465
19905TIP3   OH281129   2.061   4.655  12.840 -0.4188  0.3713 -0.4819
19905TIP3    H181130   1.993   4.630  12.902  0.2414  0.0081  0.1028
19905TIP3    H281131   2.051   4.749  12.829  0.1330  0.6126  0.9884
19906TIP3   OH281132   4.949   4.447   3.423  0.0805  0.3979 -0.3544
19906TIP3    H181133   4.986   4.448   3.511 -1.5717 -0.7733  0.3781
19906TIP3    H281134   5.008   4.501   3.371  2.2819 -0.6543  0.9979
19907TIP3   OH281135   2.852   1.238   2.569  0.4121  0.2335 -0.2588
19907TIP3    H181136   2.795   1.315   2.570 -0.6021 -0.5212  0.1535
19907TIP3    H281137   2.928   1.266   2.517 -0.3963  1.1858 -0.9617
19908TIP3   OH281138   6.657   6.505  12.445 -0.0138 -0.6323  0.1065
19908TIP3    H181139   6.637   6.530  12.355 -0.7957  0.4741  0.5744
19908TIP3    H281140   6.753   6.509  12.450  0.0236 -0.4961 -0.6254
19909TIP3   OH281141   5.585   4.201  14.291 -0.2259  0.0813 -0.2228
19909TIP3    H181142   5.628   4.220  14.375  0.9157  0.7848 -0.9655
19909TIP3    H281143   5.538   4.281  14.269 -1.7959 -0.6317  0.5048
19910TIP3   OH281144   1.818   1.285   2.403  0.6920 -0.0232 -0.1744
19910TIP3    H181145   1.794   1.342   2.476 -1.2364 -0.6276 -0.3039
19910TIP3    H281146   1.856   1.345   2.338 -0.4403  0.9724  0.0663
19911TIP3   OH281147   3.649   1.669   0.111 -0.2268  0.2357  0.1358
19911TIP3    H181148   3.612   1.613   0.180 -0.7232 -0.3734 -0.6129
19911TIP3    H281149   3.733   1.628   0.090  0.6605  1.3229  1.4717
19912TIP3   OH281150   6.000   2.561  15.807  0.1747 -0.6110  0.1203
19912TIP3    H181151   6.088   2.533  15.832 -0.3016 -0.0844  2.5101
19912TIP3    H281152   5.955   2.575  15.890 -1.4905  1.2292 -1.0503
19913TIP3   OH281153   4.200   2.792  15.975 -0.0425 -0.2958  0.1657
19913TIP3    H181154   4.205   2.865  16.037 -1.4970  0.8828 -1.0722
19913TIP3    H281155   4.264   2.813  15.907 -0.2403 -0.3310 -0.0318
19914TIP3   OH281156   6.375   5.940   6.091 -0.0163 -0.1442 -0.4971
19914TIP3    H181157   6.307   5.880   6.119 -1.3421  2.4583  2.1306
19914TIP3    H281158   6.334   5.993   6.022 -1.6667  3.1173  2.8008
19915TIP3   OH281159   5.480   6.104   6.009 -0.2208  0.2650  0.7918
19915TIP3    H181160   5.399   6.146   6.036 -0.6011  0.1414 -0.1311
19915TIP3    H281161   5.534   6.175   5.976  0.1146  0.3693  1.5522
19916TIP3   OH281162   1.483   2.288   1.632  0.0662  0.1762 -0.3492
19916TIP3    H181163   1.414   2.245   1.682  1.5412 -0.2932  1.3077
19916TIP3    H281164   1.439   2.319   1.552 -2.1907  0.4509  0.9643
19917TIP3   OH281165   6.643   5.826  13.813 -0.3702  0.3866  0.5667
19917TIP3    H181166   6.697   5.882  13.868 -0.2217 -0.0106  0.8311
19917TIP3    H281167   6.676   5.737  13.829  0.0071  0.3112 -0.5371
19918TIP3   OH281168   5.760   5.037  10.280  0.1997 -0.3195  0.3160
19918TIP3    H181169   5.753   5.103  10.348 -1.5471 -0.0416 -0.0966
19918TIP3    H281170   5.669   5.010  10.263  0.8144 -2.2911 -0.0303
19919TIP3   OH281171   2.137   5.948  13.030 -0.0447 -0.4081  0.3975
19919TIP3    H181172   2.201   6.004  12.986 -0.6457 -0.1741 -0.1719
19919TIP3    H281173   2.111   5.885  12.964 -1.1958  0.1495  0.3138
19920TIP3   OH281174   5.891   0.576   2.034  0.1419  0.3342 -0.4518
19920TIP3    H181175   5.887   0.509   2.102  0.0397 -0.3693 -1.1393
19920TIP3    H281176   5.985   0.588   2.019  0.1618  0.3838 -0.2932
19921TIP3   OH281177   4.684   6.360  16.498  0.0395  0.2575 -0.1725
19921TIP3    H181178   4.660   6.303  16.424 -0.1850  0.6408 -0.3983
19921TIP3    H281179   4.609   6.355  16.557  1.4481 -2.4014  1.4736
19922TIP3   OH281180   5.433   0.352  13.488  0.4098  0.4752  0.3247
19922TIP3    H181181   5.502   0.341  13.422  0.8314  0.4842  0.7631
19922TIP3    H281182   5.404   0.442  13.477 -0.9024 -0.1157 -1.1914
19923TIP3   OH281183   4.903   4.607  12.478  0.4444 -0.1261  0.5472
19923TIP3    H181184   4.929   4.634  12.566  0.7025  0.7407  0.2112
19923TIP3    H281185   4.808   4.598  12.484  0.6177 -1.5537  1.3052
19924TIP3   OH281186   4.332   0.208   4.053  0.4060 -0.1597 -0.5305
19924TIP3    H181187   4.273   0.214   3.979  1.2871 -0.4651 -1.2687
19924TIP3    H281188   4.381   0.127   4.039  0.9001  0.0134  0.1418
19925TIP3   OH281189   5.525   0.029   1.609 -0.1078  0.3615  0.2497
19925TIP3    H181190   5.576  -0.024   1.547  0.8543 -0.1851  1.4908
19925TIP3    H281191   5.458   0.071   1.555 -0.6054 -1.7537 -0.8440
19926TIP3   OH281192   2.487   3.389   1.225 -0.3822 -1.0145 -0.3097
19926TIP3    H181193   2.515   3.460   1.283 -0.0169 -0.3757 -1.2661
19926TIP3    H281194   2.450   3.323   1.285  0.6282 -0.6798  0.7113
19927TIP3   OH281195   3.848   1.662  10.815 -0.4343  0.0668 -0.1834
19927TIP3    H181196   3.869   1.572  10.792  1.7077  1.0320 -2.2155
19927TIP3    H281197   3.758   1.674  10.787  0.0514 -0.7303 -2.1755
19928TIP3   OH281198   6.346   6.609  16.911 -0.0698  0.3670 -0.0611
19928TIP3    H181199   6.306   6.522  16.901  0.5079  0.0746  0.1533
19928TIP3    H281200   6.290   6.667  16.858  1.0392 -0.5874 -2.3497
19929TIP3   OH281201   4.802   0.749  17.154 -0.2257 -0.7020 -0.6021
19929TIP3    H181202   4.882   0.797  17.176 -0.3849  0.3818 -2.2963
19929TIP3    H281203   4.809   0.667  17.203  0.4495  0.6895  1.7116
19930TIP3   OH281204   6.029   3.607   4.904 -0.0285 -0.1924  0.8305
19930TIP3    H181205   5.989   3.561   4.830 -2.5647 -0.5517  2.3673
19930TIP3    H281206   6.089   3.542   4.942 -0.7418 -0.9244  0.7130
19931TIP3   OH281207   0.468   1.290  12.555 -0.4455  0.1409 -0.0003
19931TIP3    H181208   0.401   1.290  12.487  1.5478 -0.5749 -2.0147
19931TIP3    H281209   0.551   1.294  12.508  0.9715  0.8709  2.4262
19932TIP3   OH281210   3.944   3.227  13.745 -0.1319 -0.5773 -0.5534
19932TIP3    H181211   3.955   3.155  13.806 -1.0587  1.7740  2.5371
19932TIP3    H281212   3.859   3.212  13.704  0.4392 -2.1021 -1.1971
19933TIP3   OH281213   3.813   5.478  11.017  0.2788  0.1334  0.0206
19933TIP3    H181214   3.781   5.390  11.036  1.2499 -0.1363  0.4334
19933TIP3    H281215   3.760   5.507  10.942  0.5438 -1.1447 -0.6789
19934TIP3   OH281216   2.187   1.677  14.751  0.2489 -0.5402 -0.4576
19934TIP3    H181217   2.269   1.726  14.759  0.1241 -0.5934  1.1555
19934TIP3    H281218   2.182   1.625  14.831 -1.6556 -0.0821 -0.2633
19935TIP3   OH281219   6.226   0.018   5.290  0.1745  0.8702 -0.4255
19935TIP3    H181220   6.207   0.095   5.343  0.2269  0.7631 -0.2514
19935TIP3    H281221   6.307  -0.018   5.327 -1.1292 -0.6655  1.0694
19936TIP3   OH281222   1.457   3.735   3.045  0.1803  0.5856 -0.6384
19936TIP3    H181223   1.510   3.773   2.975  1.8378  1.6591  1.1534
19936TIP3    H281224   1.420   3.656   3.006  0.7625  1.3443 -2.8390
19937TIP3   OH281225   6.251   6.008  11.036  0.5810 -0.4232  1.2811
19937TIP3    H181226   6.303   5.933  11.007 -0.6811 -0.7993 -0.1107
19937TIP3    H281227   6.172   6.004  10.982 -0.5466  0.5736  2.8197
19938TIP3   OH281228   3.860   1.904  16.053  0.2039  0.5391  0.6004
19938TIP3    H181229   3.926   1.921  16.120  1.0726 -0.0553 -0.0942
19938TIP3    H281230   3.879   1.968  15.985  0.4962 -0.0810  0.0972
19939TIP3   OH281231   0.020   6.286   0.933  0.3568 -0.2172 -0.4724
19939TIP3    H181232   0.078   6.319   1.001  0.6855  0.6906 -1.1887
19939TIP3    H281233   0.068   6.213   0.893  1.0834  0.6543 -1.1906
19940TIP3   OH281234   4.618   4.277  16.431 -0.4279  0.3642 -0.0634
19940TIP3    H181235   4.673   4.216  16.479 -0.8355  1.1771  1.4773
19940TIP3    H281236   4.672   4.305  16.357  0.6442 -0.0272  0.5567
19941TIP3   OH281237   0.992   6.202  13.308 -0.1189  0.3569  0.3848
19941TIP3    H181238   1.025   6.113  13.299 -0.7748  0.0810  0.6276
19941TIP3    H281239   1.061   6.258  13.272 -0.5252 -0.3660 -1.5825
19942TIP3   OH281240   6.177   1.283   1.947  0.5345  0.1559  0.7954
19942TIP3    H181241   6.136   1.329   1.874  1.0412  0.4413  0.6840
19942TIP3    H281242   6.266   1.264   1.916  0.3290 -0.8919  0.8420
19943TIP3   OH281243   3.427   0.781  12.231  0.6138  0.1713 -0.0908
19943TIP3    H181244   3.466   0.698  12.203  1.7092 -0.2260  2.4869
19943TIP3    H281245   3.355   0.795  12.170  0.3297 -2.7471 -0.4959
19944TIP3   OH281246   3.404   6.235  15.641 -0.4679 -0.5055  0.2593
19944TIP3    H181247   3.376   6.201  15.556  1.3309 -1.9048  0.2005
19944TIP3    H281248   3.441   6.321  15.621  0.7833 -1.2135 -0.5235
19945TIP3   OH281249   0.551   1.773   5.644  0.3244 -0.2828 -0.6258
19945TIP3    H181250   0.468   1.749   5.685  0.9492 -0.3360  0.6179
19945TIP3    H281251   0.526   1.819   5.564 -0.9225  1.2972  0.6539
19946TIP3   OH281252   2.161   3.653   4.967 -0.2503  0.2734  0.2991
19946TIP3    H181253   2.130   3.689   4.884  1.1559 -2.7144 -1.6006
19946TIP3    H281254   2.091   3.594   4.994  0.4567 -0.7506 -0.1157
19947TIP3   OH281255   5.442   5.852   5.853 -0.0374  0.0965 -0.1952
19947TIP3    H181256   5.479   5.932   5.888 -0.8707 -0.2514  1.5273
19947TIP3    H281257   5.368   5.832   5.911 -1.6303 -0.3529 -2.2863
19948TIP3   OH281258   0.145   5.569  14.284 -0.0225  0.5345 -0.2192
19948TIP3    H181259   0.111   5.651  14.250 -0.8069  0.5327  0.5509
19948TIP3    H281260   0.227   5.555  14.236 -0.9620  0.6621 -1.8759
19949TIP3   OH281261   1.900   3.859  16.543  0.4336  0.4169 -0.1429
19949TIP3    H181262   1.958   3.786  16.522  1.0004  0.6640  0.5533
19949TIP3    H281263   1.813   3.828  16.519  0.7464 -0.2671 -0.4062
19950TIP3   OH281264   2.993   2.836   0.693  0.0648  0.1624  0.0281
19950TIP3    H181265   2.956   2.814   0.607 -2.1349  0.4952  0.8651
19950TIP3    H281266   2.995   2.932   0.694  0.9024  0.1455  0.0127
19951TIP3   OH281267   1.090   4.415   4.159 -0.2638 -0.3262 -0.0897
19951TIP3    H181268   1.112   4.340   4.214  2.2635  0.8993  0.6556
19951TIP3    H281269   1.090   4.381   4.070 -0.0609 -1.3979  0.3158
19952TIP3   OH281270   3.001   6.615   2.758  0.0859 -0.6500 -0.1217
19952TIP3    H181271   3.017   6.708   2.741 -1.7411 -0.2863 -0.0334
19952TIP3    H281272   3.059   6.569   2.697  0.2850  0.5601 -0.8671
19953TIP3   OH281273   5.492   2.730   5.861  0.5628  0.8162  0.5416
19953TIP3    H181274   5.560   2.723   5.927  0.1540  1.9724  1.1067
19953TIP3    H281275   5.539   2.740   5.778  1.0698  0.9331  0.8436
19954TIP3   OH281276   2.610   2.867   4.788 -0.0286 -0.7123 -0.1590
19954TIP3    H181277   2.699   2.899   4.806 -0.5484  0.6367  0.0415
19954TIP3    H281278   2.616   2.829   4.700  0.4744  0.4212 -0.6224
19955TIP3   OH281279   2.620   2.766  11.878  0.1864  0.2421 -0.8551
19955TIP3    H181280   2.584   2.768  11.790 -1.2692 -2.3878 -0.3685
19955TIP3    H281281   2.558   2.818  11.930 -0.3417 -0.3239 -0.9138
19956LIG      S81282   3.260   3.425  16.426 -0.1241  0.2662  0.0199
19956LIG     N181283   3.549   3.410  16.395  1.0480  0.5127 -0.5492
19956LIG     N281284   3.572   3.253  16.839 -0.2387 -0.4752  0.2214
19956LIG     C181285   3.772   3.420  16.536  0.9056 -0.1599 -0.6897
19956LIG     C281286   3.739   3.322  16.652 -0.1334 -0.6660  0.6659
19956LIG     C381287   3.699   3.390  16.402  0.5977 -0.0689 -0.1929
19956LIG     C481288   3.601   3.344  16.723  0.4853 -0.1733  0.1033
19956LIG     C581289   3.919   3.417  16.514 -0.0225 -0.0187 -0.4637
19956LIG     C681290   3.499   3.546  16.395 -0.1217 -0.0768  0.8331
19956LIG     C781291   3.478   3.326  16.308 -0.0197 -0.3033 -0.0577
19956LIG     C881292   3.651   3.283  16.964  0.2731 -1.2331  0.2757
19956LIG     C981293   3.575   3.108  16.805  0.3687  0.7363  0.1192
19956LIG    C1081294   3.362   3.572  16.412  0.0238  0.7733 -0.9096
19956LIG    C1181295   3.335   3.319  16.311 -0.4509 -0.4065 -0.0397
19956LIG    C1281296   3.581   3.661  16.366 -0.0188 -0.6285 -0.2664
19956LIG    C1381297   3.546   3.266  16.201  0.1509  0.8572 -0.1462
19956LIG    C1481298   3.610   3.194  17.081  0.3051 -0.1428  0.5726
19956LIG    C1581299   3.486   3.053  16.693 -0.0237  0.6499 -0.4545
19956LIG    C1681300   3.312   3.698  16.416  0.3091 -0.6827 -0.0555
19956LIG    C1781301   3.266   3.254  16.213  0.2913 -0.5126 -0.3980
19956LIG    C1881302   3.526   3.790  16.378 -0.4319 -0.3786  0.7895
19956LIG    C1981303   3.476   3.198  16.098  0.0037 -0.2559  0.0611
19956LIG    C2081304   3.391   3.805  16.403  0.5322 -0.0070  0.3785
19956LIG    C2181305   3.341   3.196  16.108  0.9156  0.1984  0.5660
19956LIG     H181306   3.742   3.525  16.557 -2.3349 -1.1767 -0.0068
19956LIG     H281307   3.824   3.344  16.721  1.1734 -0.3375 -1.0035
19956LIG     H381308   3.743   3.219  16.611 -0.4996 -0.3870 -0.0850
19956LIG     H481309   3.746   3.442  16.316 -0.6491  1.0378 -0.2184
19956LIG     H581310   3.707   3.280  16.394  1.4788  0.0025 -0.3628
19956LIG     H681311   3.592   3.449  16.758 -0.4624  0.4455 -1.9287
19956LIG     H781312   3.523   3.319  16.648 -1.9346 -0.3257  2.5594
19956LIG     H881313   3.944   3.313  16.484  1.2331  0.7450 -2.1311
19956LIG     H981314   3.987   3.444  16.598  0.9868  2.0050 -1.9049
19956LIG    H1081315   3.942   3.487  16.432  0.8402 -0.2337 -0.4166
19956LIG    H1181316   3.625   3.388  16.988 -0.3617 -1.2649 -0.2546
19956LIG    H1281317   3.762   3.283  16.950  0.0408 -1.8565 -1.8248
19956LIG    H1381318   3.540   3.043  16.888  1.5697 -0.3132 -0.1899
19956LIG    H1481319   3.680   3.083  16.778  0.4292 -0.0831  1.0885
19956LIG    H1581320   3.687   3.650  16.351  0.0843 -1.0925  0.7667
19956LIG    H1681321   3.654   3.259  16.199  0.1390  0.7053 -0.2429
19956LIG    H1781322   3.507   3.205  17.121  0.7235  4.0583  0.7119
19956LIG    H1881323   3.663   3.211  17.177 -0.7127 -1.2731  1.3573
19956LIG    H1981324   3.625   3.087  17.057 -1.0640  0.2569 -2.4023
19956LIG    H2081325   3.388   3.032  16.742  1.7602 -1.5473  2.3352
19956LIG    H2181326   3.535   2.956  16.670 -0.0841  0.5662 -0.2342
19956LIG    H2281327   3.483   3.120  16.605  0.8424  1.1945 -0.0802
19956LIG    H2381328   3.207   3.708  16.437  0.4205  1.7578 -0.5625
19956LIG    H2481329   3.158   3.258  16.211  0.0961 -2.0395  3.3462
19956LIG    H2581330   3.581   3.879  16.351  1.2248 -1.4947  0.3954
19956LIG    H2681331   3.532   3.165  16.011  0.6858 -0.5372  0.6071
19956LIG    H2781332   3.339   3.899  16.410  0.7733  0.0409  1.7091
19956LIG    H2881333   3.289   3.154  16.023  0.3279  0.0931  0.9775
   6.78697   6.78697  17.23950
